Title
81383
    1CHL1    C3    1   0.197   4.946  10.230  0.0832 -0.0258 -0.4506
    1CHL1    H3    2   0.256   5.025  10.179 -1.4771  1.1572 -0.4662
    1CHL1    O3    3   0.218   4.966  10.366 -0.2020  0.2854  0.1072
    1CHL1   H3'    4   0.173   4.904  10.424  1.5041  0.6069  1.8423
    1CHL1    C4    5   0.046   4.966  10.193 -0.1828 -0.1238  0.6629
    1CHL1   H4A    6  -0.021   4.912  10.264 -1.8600 -0.9795 -1.5357
    1CHL1   H4B    7   0.035   5.071  10.228  3.1793  1.3199 -2.2962
    1CHL1    C5    8   0.023   4.937  10.048  0.3060 -0.9382 -0.0340
    1CHL1    C6    9  -0.038   5.020   9.963 -0.8323 -0.2339 -0.3942
    1CHL1    H6   10  -0.081   5.111  10.008  0.7059  0.8032 -0.9830
    1CHL1    C7   11  -0.048   4.996   9.815  0.5110  0.0835 -0.8951
    1CHL1   H7A   12  -0.139   5.040   9.767  0.1147 -1.3519 -1.4780
    1CHL1   H7B   13   0.028   5.068   9.779 -0.1977  1.5404  0.4295
    1CHL1    C8   14  -0.026   4.853   9.767 -0.0951  0.6225 -0.1175
    1CHL1    H8   15  -0.121   4.801   9.793  0.1077  1.2084  1.9254
    1CHL1   C14   16   0.001   4.845   9.621  0.2502  0.6195  0.3714
    1CHL1   H14   17   0.094   4.899   9.594  0.1763 -0.7201 -2.7127
    1CHL1   C15   18  -0.105   4.892   9.515 -0.0478 -0.0639  0.2650
    1CHL1  H15A   19  -0.203   4.847   9.539 -0.6129  1.1779  0.3273
    1CHL1  H15B   20  -0.102   5.003   9.517 -0.5729 -0.0591  0.7460
    1CHL1   C16   21  -0.056   4.842   9.380  0.0077 -0.0332 -0.0906
    1CHL1  H16A   22  -0.139   4.799   9.320 -0.2823 -1.5077  1.3089
    1CHL1  H16B   23  -0.010   4.924   9.321  0.4764 -0.3095 -0.1132
    1CHL1   C17   24   0.052   4.735   9.415  0.9449  0.5773  0.7187
    1CHL1   H17   25   0.149   4.785   9.396  1.2117  0.4783  1.8023
    1CHL1   C13   26   0.042   4.712   9.570  0.0313  0.8285 -0.4353
    1CHL1   C18   27  -0.067   4.605   9.589 -0.7692 -0.3868 -0.4653
    1CHL1  H18A   28  -0.115   4.609   9.689 -2.6263  4.3793 -1.4261
    1CHL1  H18B   29  -0.155   4.612   9.522 -2.7178 -1.4201  1.9121
    1CHL1  H18C   30  -0.030   4.501   9.574  0.4802 -0.5928  3.4025
    1CHL1   C12   31   0.177   4.677   9.630  0.0361  0.4952  0.0810
    1CHL1  H12A   32   0.212   4.577   9.596 -1.1028 -0.4236  1.5519
    1CHL1  H12B   33   0.248   4.753   9.590 -1.3903  0.9057 -1.7383
    1CHL1   C11   34   0.162   4.673   9.780  0.2971  0.2183  0.2651
    1CHL1  H11A   35   0.100   4.583   9.802  1.4723 -0.4685  0.8118
    1CHL1  H11B   36   0.266   4.663   9.818  0.4217  2.2204  0.5164
    1CHL1    C9   37   0.104   4.808   9.834  0.0458 -0.6587 -0.0632
    1CHL1    H9   38   0.184   4.884   9.818  1.1889 -1.2943  2.3652
    1CHL1   C10   39   0.093   4.809   9.993  0.3365 -0.1531  0.6761
    1CHL1   C19   40  -0.002   4.695  10.031 -0.6532 -0.0268 -0.5396
    1CHL1  H19A   41  -0.094   4.691   9.969 -0.0386 -0.1984 -1.4383
    1CHL1  H19B   42   0.046   4.595  10.035  0.6214  0.6083  0.8719
    1CHL1  H19C   43  -0.047   4.711  10.131 -0.7815 -1.1121 -0.4213
    1CHL1    C1   44   0.235   4.783  10.057  0.4108 -0.0463 -0.0310
    1CHL1   H1A   45   0.274   4.683  10.025  1.6508  1.1469 -2.4432
    1CHL1   H1B   46   0.297   4.858  10.004  1.4286 -2.4622 -2.3713
    1CHL1    C2   47   0.239   4.805  10.202  0.0178  0.9808 -0.4961
    1CHL1   H2A   48   0.347   4.797  10.229 -0.5399  1.5118  1.9896
    1CHL1   H2B   49   0.176   4.731  10.255 -0.1403  1.0576 -0.5786
    1CHL1   C20   50   0.054   4.615   9.309 -0.3721  0.2147 -0.3068
    1CHL1   H20   51  -0.044   4.565   9.327 -1.4955  2.6816  0.7267
    1CHL1   C21   52   0.162   4.508   9.332  1.2468 -0.5039  0.0213
    1CHL1  H21A   53   0.257   4.551   9.369 -0.0727 -0.1429  3.1066
    1CHL1  H21B   54   0.181   4.462   9.233 -1.6636 -0.9453 -0.3802
    1CHL1  H21C   55   0.131   4.430   9.404  0.0670  0.8020  0.9439
    1CHL1   C22   56   0.043   4.648   9.160 -0.4251 -0.1821 -0.1482
    1CHL1  H22A   57   0.048   4.556   9.097 -0.7668 -0.3263  0.0344
    1CHL1  H22B   58  -0.050   4.701   9.129  1.0789  1.1722 -2.4465
    1CHL1   C23   59   0.158   4.734   9.106 -0.0673  0.4467  0.0821
    1CHL1  H23A   60   0.162   4.824   9.171 -1.0169  1.0132 -0.6252
    1CHL1  H23B   61   0.257   4.685   9.115  0.6623  1.3693 -2.5134
    1CHL1   C24   62   0.142   4.783   8.967  0.4417  0.4295 -0.5555
    1CHL1  H24A   63   0.061   4.858   8.956 -0.0497 -0.1338 -0.7899
    1CHL1  H24B   64   0.240   4.828   8.937  0.7598  0.2554  0.2107
    1CHL1   C25   65   0.099   4.669   8.866  0.3687  0.0435 -0.8545
    1CHL1   H25   66  -0.000   4.635   8.902 -0.4520  2.5311 -0.6982
    1CHL1   C26   67   0.087   4.724   8.728  0.1438 -0.5914 -0.1751
    1CHL1  H26A   68   0.063   4.647   8.652 -2.5473 -0.7137  0.7554
    1CHL1  H26B   69   0.015   4.809   8.724 -0.9297 -1.5433 -1.0988
    1CHL1  H26C   70   0.180   4.774   8.693 -0.8166  0.6874 -0.9818
    1CHL1   C27   71   0.203   4.558   8.875 -0.8745  0.4239  0.2116
    1CHL1  H27A   72   0.303   4.605   8.870 -1.2477  1.0388 -2.0552
    1CHL1  H27B   73   0.194   4.496   8.966  0.2426  0.1505  0.1391
    1CHL1  H27C   74   0.176   4.493   8.789  1.4876 -1.0014  0.5166
    2CHL1    C3   75   0.993   2.964  10.017  0.2975  0.4750 -0.3064
    2CHL1    H3   76   1.101   2.938  10.019  0.0774 -0.3723  0.8042
    2CHL1    O3   77   0.958   3.021  10.148 -0.5250 -0.7077  0.2944
    2CHL1   H3'   78   0.899   2.959  10.191 -1.4045 -1.5538 -2.0238
    2CHL1    C4   79   0.963   3.067   9.905 -0.5693 -0.2787  0.0966
    2CHL1   H4A   80   0.865   3.118   9.920  0.0174  0.9810 -0.2616
    2CHL1   H4B   81   1.031   3.154   9.919 -0.6139 -0.4726  1.6339
    2CHL1    C5   82   0.972   3.015   9.758 -0.3728  0.1111 -0.8853
    2CHL1    C6   83   1.052   3.082   9.669 -0.3150 -0.1924 -0.6705
    2CHL1    H6   84   1.116   3.167   9.697 -1.1867  0.1494  0.3177
    2CHL1    C7   85   1.058   3.037   9.525 -0.7221 -0.2185 -0.4974
    2CHL1   H7A   86   1.061   3.130   9.465 -0.0326 -1.1077 -1.8731
    2CHL1   H7B   87   1.150   2.975   9.514 -0.5281 -0.7115  3.3924
    2CHL1    C8   88   0.943   2.943   9.480  0.7255  0.2135 -0.2048
    2CHL1    H8   89   0.848   3.000   9.471  0.4268 -0.0001  1.3985
    2CHL1   C14   90   0.985   2.883   9.351  0.8125  0.5104 -0.2463
    2CHL1   H14   91   1.085   2.840   9.371  0.0087 -0.7555  1.1238
    2CHL1   C15   92   1.003   2.969   9.225 -0.4310  0.7256 -0.1748
    2CHL1  H15A   93   0.910   3.028   9.215 -0.5261  0.9017  1.6722
    2CHL1  H15B   94   1.092   3.034   9.229  0.2146 -0.1006 -0.9147
    2CHL1   C16   95   1.003   2.865   9.110  0.0955 -0.5376  0.4584
    2CHL1  H16A   96   0.920   2.892   9.042  1.1561 -0.0797 -0.6504
    2CHL1  H16B   97   1.101   2.846   9.062 -0.0901 -0.5853  0.1001
    2CHL1   C17   98   0.954   2.732   9.170  0.8010 -0.7337 -0.9788
    2CHL1   H17   99   1.049   2.684   9.202  1.4964  1.4957  0.4084
    2CHL1   C13  100   0.890   2.767   9.304 -0.5025 -0.6058 -0.0434
    2CHL1   C18  101   0.747   2.819   9.286  1.1409 -0.2797 -0.6559
    2CHL1  H18A  102   0.737   2.894   9.204  0.4394  1.1078  0.6660
    2CHL1  H18B  103   0.672   2.738   9.276  0.6485  0.0609  0.2635
    2CHL1  H18C  104   0.715   2.879   9.374 -0.9210 -0.6021 -1.1797
    2CHL1   C12  105   0.900   2.661   9.419 -0.4999  0.2455  0.4331
    2CHL1  H12A  106   0.852   2.563   9.402 -0.0330  0.0278  0.3607
    2CHL1  H12B  107   1.008   2.645   9.442 -0.2710 -0.3760 -1.0641
    2CHL1   C11  108   0.845   2.716   9.549  0.1194 -0.0939  0.0397
    2CHL1  H11A  109   0.738   2.742   9.532 -0.3069 -2.6448 -1.3397
    2CHL1  H11B  110   0.868   2.650   9.636  1.3452  0.2233 -0.0285
    2CHL1    C9  111   0.932   2.834   9.594 -0.2443 -0.2945  0.4229
    2CHL1    H9  112   1.036   2.796   9.603 -0.6037 -1.0591  1.3258
    2CHL1   C10  113   0.892   2.891   9.732  0.4545  0.2289  0.1142
    2CHL1   C19  114   0.738   2.915   9.737 -0.7757  0.4362  0.4754
    2CHL1  H19A  115   0.718   2.979   9.648 -0.9185  0.8306  0.7920
    2CHL1  H19B  116   0.678   2.822   9.728 -2.0423  1.3390 -0.6606
    2CHL1  H19C  117   0.698   2.961   9.830 -0.7627 -1.3079  1.3700
    2CHL1    C1  118   0.935   2.793   9.839  0.5637 -0.8843 -0.7564
    2CHL1   H1A  119   0.872   2.703   9.824  0.3581 -0.7710 -0.5700
    2CHL1   H1B  120   1.042   2.762   9.844  0.4451 -1.2943 -0.7840
    2CHL1    C2  121   0.904   2.841   9.989 -0.1367  0.4145  0.2285
    2CHL1   H2A  122   0.928   2.761  10.062 -1.2597 -1.8452 -1.7813
    2CHL1   H2B  123   0.796   2.864   9.995 -0.0962  1.4729 -2.2159
    2CHL1   C20  124   0.871   2.645   9.071 -0.1594  0.6443 -0.8457
    2CHL1   H20  125   0.776   2.697   9.050 -0.1185  0.4214 -1.5801
    2CHL1   C21  126   0.833   2.513   9.133 -1.0579 -0.3516  0.8247
    2CHL1  H21A  127   0.756   2.510   9.213 -1.4090 -0.1987  0.4910
    2CHL1  H21B  128   0.922   2.462   9.174  0.6049 -0.8495 -3.2155
    2CHL1  H21C  129   0.791   2.440   9.061 -1.9849 -0.8564  1.8573
    2CHL1   C22  130   0.942   2.621   8.938  0.6197  0.1922  1.1535
    2CHL1  H22A  131   0.865   2.571   8.875  1.9504 -1.9750  1.1856
    2CHL1  H22B  132   0.965   2.718   8.888 -3.5309  0.0513 -1.2422
    2CHL1   C23  133   1.071   2.535   8.954 -0.1609  0.7605  0.3971
    2CHL1  H23A  134   1.147   2.598   9.005 -1.1944  1.8170  0.6630
    2CHL1  H23B  135   1.036   2.442   9.006 -2.1123  0.3110 -1.6294
    2CHL1   C24  136   1.137   2.485   8.822  0.1359 -0.1237  1.5100
    2CHL1  H24A  137   1.223   2.415   8.832  1.1609  0.3554 -3.0999
    2CHL1  H24B  138   1.055   2.438   8.764  1.6833  0.3177 -1.1109
    2CHL1   C25  139   1.180   2.596   8.723 -0.3550  0.0681  0.1781
    2CHL1   H25  140   1.098   2.670   8.715  0.3842  0.8731  0.0283
    2CHL1   C26  141   1.304   2.668   8.773  0.0041 -0.3178 -0.8474
    2CHL1  H26A  142   1.305   2.700   8.879 -1.6720  1.0198 -1.2119
    2CHL1  H26B  143   1.396   2.610   8.749  1.0611  1.1316 -0.3906
    2CHL1  H26C  144   1.329   2.752   8.704  2.5968 -0.8671 -0.6277
    2CHL1   C27  145   1.210   2.532   8.586 -0.7015  0.1558 -0.4808
    2CHL1  H27A  146   1.227   2.618   8.517 -0.2516  1.9427  1.7938
    2CHL1  H27B  147   1.307   2.478   8.584 -0.5341  0.3913  0.7104
    2CHL1  H27C  148   1.120   2.476   8.554 -1.0766  1.4330 -1.7274
    3CHL1    C3  149   1.560   2.708  10.251  0.0619 -0.1578  0.0561
    3CHL1    H3  150   1.667   2.680  10.239 -0.1501 -0.1768 -1.9017
    3CHL1    O3  151   1.535   2.728  10.392  0.1712 -0.2500  0.0290
    3CHL1   H3'  152   1.604   2.693  10.449  1.9253  2.0034 -0.6353
    3CHL1    C4  153   1.531   2.848  10.178  0.1632  0.2419  0.0771
    3CHL1   H4A  154   1.434   2.878  10.223  0.3272 -0.2743  0.7789
    3CHL1   H4B  155   1.614   2.915  10.210  0.0752  1.5320 -2.2539
    3CHL1    C5  156   1.528   2.839  10.026  0.0072  0.8508  0.0830
    3CHL1    C6  157   1.600   2.915   9.945 -0.2599  0.5144  0.2264
    3CHL1    H6  158   1.663   2.998   9.981  1.5409  0.1953 -2.0150
    3CHL1    C7  159   1.618   2.897   9.795 -0.5022  0.0515  0.4056
    3CHL1   H7A  160   1.614   2.991   9.735 -0.1103 -0.0710  0.1870
    3CHL1   H7B  161   1.721   2.863   9.772 -0.0822  0.7559  1.2265
    3CHL1    C8  162   1.512   2.806   9.737 -0.0735  0.3019  0.5437
    3CHL1    H8  163   1.413   2.856   9.735 -0.9211 -1.3455 -2.6278
    3CHL1   C14  164   1.554   2.763   9.596 -0.0083  0.2364  0.1332
    3CHL1   H14  165   1.648   2.709   9.621  0.0765  0.7168  0.8841
    3CHL1   C15  166   1.591   2.871   9.499  0.6186 -0.1153  0.4377
    3CHL1  H15A  167   1.519   2.956   9.492  1.2560  0.2353 -2.0664
    3CHL1  H15B  168   1.692   2.913   9.517 -0.0363  1.5905  0.1808
    3CHL1   C16  169   1.582   2.807   9.358 -0.5965 -0.2585  0.2098
    3CHL1  H16A  170   1.528   2.868   9.282  0.9256  0.5521 -0.2348
    3CHL1  H16B  171   1.691   2.797   9.341 -0.7221  2.5174 -2.7865
    3CHL1   C17  172   1.522   2.660   9.378 -0.2278 -0.0175 -0.5799
    3CHL1   H17  173   1.598   2.581   9.399  0.3678  0.4658 -0.9091
    3CHL1   C13  174   1.455   2.673   9.523 -0.4667 -0.5561  0.9613
    3CHL1   C18  175   1.315   2.741   9.505 -0.0364  0.0170 -0.4503
    3CHL1  H18A  176   1.272   2.754   9.606 -0.2398 -1.0134 -0.3935
    3CHL1  H18B  177   1.325   2.837   9.449  0.4277 -1.6181 -3.3010
    3CHL1  H18C  178   1.248   2.674   9.447  0.2925 -1.2961  0.6633
    3CHL1   C12  179   1.451   2.547   9.603  0.0703  0.6410 -0.6590
    3CHL1  H12A  180   1.384   2.469   9.559  1.2765  0.5047 -2.2674
    3CHL1  H12B  181   1.550   2.498   9.590 -0.5597 -0.7835 -0.2363
    3CHL1   C11  182   1.422   2.574   9.750 -0.2646  0.1962  0.0157
    3CHL1  H11A  183   1.313   2.597   9.754 -0.8711 -2.5738  0.4950
    3CHL1  H11B  184   1.425   2.478   9.806 -2.4537 -0.2462 -0.5805
    3CHL1    C9  185   1.499   2.682   9.823 -0.2306  0.1039  0.0593
    3CHL1    H9  186   1.597   2.630   9.828 -0.7368 -1.0523 -1.6931
    3CHL1   C10  187   1.451   2.712   9.970  0.1475 -0.6676  0.0340
    3CHL1   C19  188   1.290   2.743   9.966 -0.3596  0.1036  0.5037
    3CHL1  H19A  189   1.264   2.773  10.070 -2.6797 -0.0551  0.0063
    3CHL1  H19B  190   1.265   2.827   9.898 -0.1291 -1.6419 -1.7704
    3CHL1  H19C  191   1.221   2.658   9.949  0.0704 -0.1811  0.2010
    3CHL1    C1  192   1.480   2.591  10.054 -0.0508  0.0030  0.1038
    3CHL1   H1A  193   1.404   2.517  10.022  0.5367  0.3231 -2.0645
    3CHL1   H1B  194   1.579   2.546  10.032 -0.0165  0.3433 -0.4342
    3CHL1    C2  195   1.468   2.599  10.203  0.2292 -0.1551  0.3326
    3CHL1   H2A  196   1.491   2.502  10.250  0.8957 -1.7010 -3.0105
    3CHL1   H2B  197   1.369   2.636  10.237  0.3064  1.0174 -0.6552
    3CHL1   C20  198   1.436   2.625   9.259 -0.6528  0.4463 -0.3730
    3CHL1   H20  199   1.353   2.699   9.263 -1.1237 -0.1071  0.1187
    3CHL1   C21  200   1.368   2.487   9.277  0.1275  0.9098  0.0582
    3CHL1  H21A  201   1.286   2.484   9.352  0.9895 -1.7437  0.9508
    3CHL1  H21B  202   1.445   2.415   9.312  0.7648  2.0909  1.1195
    3CHL1  H21C  203   1.335   2.456   9.175  1.4527  2.8073 -0.9930
    3CHL1   C22  204   1.514   2.622   9.122 -0.1296  0.2986  0.6928
    3CHL1  H22A  205   1.450   2.595   9.035 -0.3832  1.5325  0.4870
    3CHL1  H22B  206   1.558   2.723   9.107 -0.7944  0.4382 -0.4088
    3CHL1   C23  207   1.637   2.524   9.113 -0.0495  0.2294 -0.1938
    3CHL1  H23A  208   1.705   2.543   9.198  0.1821  1.3759 -0.6307
    3CHL1  H23B  209   1.597   2.421   9.125  2.0069 -0.5822 -0.2480
    3CHL1   C24  210   1.704   2.527   8.975  0.5780 -0.5920  0.4863
    3CHL1  H24A  211   1.634   2.489   8.897  2.6496 -3.1414 -0.2087
    3CHL1  H24B  212   1.724   2.633   8.951  2.9677 -1.4214 -1.3909
    3CHL1   C25  213   1.840   2.446   8.955  0.2152 -0.5941 -0.2960
    3CHL1   H25  214   1.923   2.488   9.015 -0.3666 -0.5121  0.4577
    3CHL1   C26  215   1.823   2.306   9.001  0.5546 -0.1464 -0.0872
    3CHL1  H26A  216   1.910   2.241   8.978  1.1017  1.2990 -2.2453
    3CHL1  H26B  217   1.805   2.293   9.110  0.3459  1.9069  0.1518
    3CHL1  H26C  218   1.741   2.258   8.944  1.0433  0.6854 -1.5180
    3CHL1   C27  219   1.870   2.463   8.807  0.1582  0.8508 -0.6420
    3CHL1  H27A  220   1.874   2.571   8.780  0.1992  0.3988 -2.4797
    3CHL1  H27B  221   1.968   2.429   8.769  0.2227  0.6831 -0.3264
    3CHL1  H27C  222   1.786   2.413   8.753  1.8856 -1.0525 -1.6104
    4CHL1    C3  223   1.590   4.470  10.534  0.3984  0.4029  0.1668
    4CHL1    H3  224   1.674   4.542  10.538  1.0955 -0.2955 -1.7009
    4CHL1    O3  225   1.565   4.421  10.664  0.1135 -0.9454  0.0408
    4CHL1   H3'  226   1.486   4.372  10.639  0.3664 -0.8417 -0.9977
    4CHL1    C4  227   1.467   4.551  10.485 -0.2586 -0.0445  1.0147
    4CHL1   H4A  228   1.369   4.498  10.487  1.2033 -2.8547  0.3334
    4CHL1   H4B  229   1.452   4.643  10.544  0.3129  0.0859  0.9609
    4CHL1    C5  230   1.493   4.587  10.339  0.8674 -0.2663  0.5006
    4CHL1    C6  231   1.476   4.712  10.298  0.3647 -0.0790  0.2184
    4CHL1    H6  232   1.433   4.791  10.361  3.2131  0.1905  1.9007
    4CHL1    C7  233   1.484   4.756  10.156  0.0879  0.0678 -0.0898
    4CHL1   H7A  234   1.404   4.830  10.136  0.3225 -0.0935 -1.7311
    4CHL1   H7B  235   1.578   4.811  10.134 -0.0829  0.5476  0.3697
    4CHL1    C8  236   1.476   4.634  10.056  0.7957 -0.4768  0.1154
    4CHL1    H8  237   1.376   4.586  10.069  0.9385 -0.1817  2.5457
    4CHL1   C14  238   1.508   4.674   9.915 -0.6012 -0.0106 -0.2679
    4CHL1   H14  239   1.606   4.725   9.906 -0.7636  0.6458  1.4849
    4CHL1   C15  240   1.412   4.787   9.862 -0.8920  0.6408 -0.1080
    4CHL1  H15A  241   1.307   4.753   9.875  0.0843 -2.8451 -0.8644
    4CHL1  H15B  242   1.417   4.888   9.910 -1.0964 -0.4070  2.2006
    4CHL1   C16  243   1.448   4.783   9.709 -0.4936  0.0389 -0.3070
    4CHL1  H16A  244   1.352   4.777   9.654  0.5477  0.6568 -2.2373
    4CHL1  H16B  245   1.499   4.878   9.681 -1.7650  1.7381  2.8111
    4CHL1   C17  246   1.532   4.653   9.686  0.2016  0.2453 -0.2784
    4CHL1   H17  247   1.633   4.700   9.683 -0.1717  0.9999 -1.7102
    4CHL1   C13  248   1.512   4.568   9.812 -0.1466  0.3911 -0.3634
    4CHL1   C18  249   1.380   4.482   9.815  0.6002 -0.2655 -0.6710
    4CHL1  H18A  250   1.387   4.402   9.739 -0.5166 -1.6281  0.6427
    4CHL1  H18B  251   1.368   4.431   9.913  0.4393  0.0563 -0.5223
    4CHL1  H18C  252   1.292   4.550   9.803  1.3493  1.1936  1.7122
    4CHL1   C12  253   1.632   4.474   9.845  0.3572  0.1663 -0.0530
    4CHL1  H12A  254   1.648   4.388   9.777  2.4399 -0.1875  0.8231
    4CHL1  H12B  255   1.724   4.537   9.843  0.3910  0.1703  1.1583
    4CHL1   C11  256   1.623   4.423   9.995  0.8442 -0.4721 -0.1898
    4CHL1  H11A  257   1.547   4.343   9.996  2.7544 -2.3914 -2.6618
    4CHL1  H11B  258   1.715   4.367  10.024 -0.6727 -2.9667 -0.1301
    4CHL1    C9  259   1.582   4.532  10.104  0.2842 -0.5336 -0.4930
    4CHL1    H9  260   1.672   4.588  10.138 -0.0912 -1.0293  1.3878
    4CHL1   C10  261   1.530   4.469  10.244  0.1040 -0.3946  0.7023
    4CHL1   C19  262   1.414   4.366  10.227 -0.0937  0.3626  0.1332
    4CHL1  H19A  263   1.429   4.292  10.145  1.7624  0.5943  0.2380
    4CHL1  H19B  264   1.396   4.313  10.323 -2.4596  0.5667 -0.1765
    4CHL1  H19C  265   1.322   4.417  10.194 -1.7668 -1.4188  1.9151
    4CHL1    C1  266   1.658   4.397  10.302  0.1498 -0.4505  0.3768
    4CHL1   H1A  267   1.667   4.313  10.230 -0.9180  1.2916 -1.8415
    4CHL1   H1B  268   1.753   4.454  10.304  0.1702 -0.2624 -3.0241
    4CHL1    C2  269   1.632   4.352  10.447 -0.2596 -0.0110  0.5980
    4CHL1   H2A  270   1.725   4.308  10.488 -0.4014  0.7245  1.7383
    4CHL1   H2B  271   1.559   4.269  10.461 -0.4551  0.0248 -0.2153
    4CHL1   C20  272   1.511   4.583   9.558  0.1965  0.0293 -0.1648
    4CHL1   H20  273   1.411   4.535   9.560  0.5767 -0.7527  0.2663
    4CHL1   C21  274   1.597   4.458   9.537 -0.3898  0.7426  0.6782
    4CHL1  H21A  275   1.613   4.433   9.430 -1.0363 -0.2975  0.8201
    4CHL1  H21B  276   1.557   4.369   9.590 -0.6140  1.7271  2.1747
    4CHL1  H21C  277   1.699   4.478   9.576  0.6154 -1.8678 -0.4856
    4CHL1   C22  278   1.520   4.675   9.427 -0.1068 -0.1828 -0.6702
    4CHL1  H22A  279   1.448   4.756   9.451 -1.0816 -1.1342 -0.3518
    4CHL1  H22B  280   1.618   4.727   9.422 -0.0547  0.1076  2.3037
    4CHL1   C23  281   1.481   4.615   9.301  0.2248 -0.4888  0.5017
    4CHL1  H23A  282   1.546   4.530   9.271  0.2253 -0.4782  0.4731
    4CHL1  H23B  283   1.377   4.580   9.317 -0.5818  1.6651  0.1423
    4CHL1   C24  284   1.489   4.716   9.182 -0.2280 -0.0228 -0.2254
    4CHL1  H24A  285   1.428   4.800   9.219 -0.3733  0.1484 -0.8439
    4CHL1  H24B  286   1.598   4.728   9.163  0.0833 -0.6931  1.0815
    4CHL1   C25  287   1.411   4.662   9.064 -0.7558  0.5060 -0.2609
    4CHL1   H25  288   1.304   4.650   9.091 -0.1420 -1.1896  1.5421
    4CHL1   C26  289   1.419   4.769   8.950  0.8480  0.2172 -0.4339
    4CHL1  H26A  290   1.371   4.734   8.856  0.2530  1.3558 -0.5585
    4CHL1  H26B  291   1.379   4.868   8.981 -0.9083 -1.0182  1.3717
    4CHL1  H26C  292   1.527   4.790   8.935  1.2995 -0.8358  1.2930
    4CHL1   C27  293   1.467   4.531   9.009  0.3741  0.0148  0.7905
    4CHL1  H27A  294   1.453   4.445   9.079 -3.0238  1.0291  1.4509
    4CHL1  H27B  295   1.411   4.496   8.919  1.1905 -2.0471  1.0432
    4CHL1  H27C  296   1.572   4.529   8.974 -0.5583  1.9268 -2.3031
    5CHL1    C3  297   1.920   2.513  10.250  0.6574  0.3488 -0.5625
    5CHL1    H3  298   1.810   2.515  10.239  0.6383 -3.5338 -2.1556
    5CHL1    O3  299   1.950   2.486  10.388 -0.1400  0.2522 -0.0919
    5CHL1   H3'  300   1.955   2.391  10.396 -1.9295  0.1480 -0.1041
    5CHL1    C4  301   1.988   2.407  10.153  0.3065  0.3188  0.0189
    5CHL1   H4A  302   2.096   2.416  10.177 -0.1569  2.6214  1.3793
    5CHL1   H4B  303   1.945   2.307  10.176 -1.0853  0.6266 -1.1434
    5CHL1    C5  304   1.983   2.438  10.006  0.3253 -0.0642  0.3513
    5CHL1    C6  305   1.942   2.342   9.921 -0.0630  0.0847 -1.0823
    5CHL1    H6  306   1.919   2.243   9.965 -2.0204  0.4321 -1.2702
    5CHL1    C7  307   1.920   2.366   9.774  0.0425 -0.0183 -0.4101
    5CHL1   H7A  308   1.951   2.278   9.713  3.0103  0.4207  0.3894
    5CHL1   H7B  309   1.810   2.369   9.761  0.1045 -1.7040 -1.5651
    5CHL1    C8  310   1.990   2.499   9.723 -0.9460  0.3979  0.4606
    5CHL1    H8  311   2.098   2.472   9.722 -1.6252 -2.5778 -0.7484
    5CHL1   C14  312   1.952   2.538   9.585  0.3146 -0.2823 -0.4872
    5CHL1   H14  313   1.841   2.542   9.589  0.3459  0.2172 -0.0228
    5CHL1   C15  314   1.991   2.431   9.479 -1.1583  0.0396  0.5442
    5CHL1  H15A  315   2.094   2.393   9.500 -0.6159 -1.4446 -4.2238
    5CHL1  H15B  316   1.922   2.344   9.475 -0.5843 -0.5914  3.2086
    5CHL1   C16  317   1.988   2.511   9.351  0.2317 -0.3152 -0.3360
    5CHL1  H16A  318   2.083   2.489   9.298  0.1141  0.9177 -1.0599
    5CHL1  H16B  319   1.909   2.487   9.277  1.4566  1.7546 -2.3460
    5CHL1   C17  320   1.975   2.663   9.388 -0.0118  0.5046 -0.8034
    5CHL1   H17  321   1.866   2.683   9.390  0.3132  2.2449  1.8853
    5CHL1   C13  322   2.020   2.665   9.535  0.2220  0.3076 -0.3516
    5CHL1   C18  323   2.178   2.653   9.539  0.3240 -0.4326 -0.3932
    5CHL1  H18A  324   2.219   2.653   9.642  0.2462 -3.7121 -0.3092
    5CHL1  H18B  325   2.211   2.561   9.487 -0.7979 -0.3680 -1.2537
    5CHL1  H18C  326   2.232   2.738   9.493 -2.2043  1.2975 -0.2823
    5CHL1   C12  327   1.973   2.776   9.628 -0.2095  0.2584  0.0710
    5CHL1  H12A  328   2.008   2.878   9.602  1.6601 -0.2600  0.4719
    5CHL1  H12B  329   1.863   2.774   9.619 -0.2718  3.1227 -0.0214
    5CHL1   C11  330   2.004   2.749   9.777  0.3874 -0.1854 -0.4779
    5CHL1  H11A  331   2.115   2.750   9.784  0.3432  0.8441  0.0171
    5CHL1  H11B  332   1.965   2.837   9.831  2.3332  1.4198 -1.6190
    5CHL1    C9  333   1.951   2.611   9.833  0.0905 -0.6529  0.1401
    5CHL1    H9  334   1.841   2.606   9.822  0.3141 -0.2280 -2.6213
    5CHL1   C10  335   2.009   2.584   9.971 -0.3309  0.4995 -0.3009
    5CHL1   C19  336   2.161   2.594   9.971 -0.1465 -0.3887 -0.5596
    5CHL1  H19A  337   2.206   2.554  10.065 -0.6278  1.6804  0.5901
    5CHL1  H19B  338   2.213   2.544   9.886  0.2648  2.6532 -2.1549
    5CHL1  H19C  339   2.199   2.698   9.982 -0.4584 -0.1600 -1.5867
    5CHL1    C1  340   1.949   2.675  10.073 -0.3700 -0.0038  0.0035
    5CHL1   H1A  341   1.967   2.782  10.052  0.4280  0.6550  3.7298
    5CHL1   H1B  342   1.841   2.697  10.055 -0.7838  0.6030  3.0368
    5CHL1    C2  343   1.971   2.650  10.221  0.2806 -0.8595 -0.5073
    5CHL1   H2A  344   1.902   2.720  10.272 -0.7369 -1.5844 -0.8823
    5CHL1   H2B  345   2.077   2.671  10.250 -0.3797 -0.0652  1.4511
    5CHL1   C20  346   2.036   2.772   9.298  0.5767 -0.0600  1.0200
    5CHL1   H20  347   2.146   2.767   9.303  0.4707 -1.0862  2.3612
    5CHL1   C21  348   1.992   2.914   9.340  0.1378 -0.6550 -0.4870
    5CHL1  H21A  349   2.054   2.938   9.429 -2.1927 -1.5384  1.4300
    5CHL1  H21B  350   1.889   2.931   9.378 -0.1135  2.0181 -2.2074
    5CHL1  H21C  351   2.017   2.989   9.262  0.7971 -1.4460 -1.0482
    5CHL1   C22  352   1.997   2.758   9.151 -0.6586 -0.0404  0.7039
    5CHL1  H22A  353   2.015   2.651   9.129  1.0468  0.2780  0.5119
    5CHL1  H22B  354   1.890   2.786   9.139 -0.8083 -1.7729 -2.4210
    5CHL1   C23  355   2.086   2.835   9.049  0.3615  0.7736  0.2981
    5CHL1  H23A  356   2.069   2.945   9.046  0.4260  0.7872  0.4626
    5CHL1  H23B  357   2.191   2.823   9.083  0.5511 -2.2611 -1.1550
    5CHL1   C24  358   2.072   2.776   8.911 -0.6883 -0.2313  0.2826
    5CHL1  H24A  359   2.071   2.665   8.905  1.8891 -0.2837  0.3077
    5CHL1  H24B  360   1.979   2.803   8.856  0.9185  0.5825 -2.1206
    5CHL1   C25  361   2.191   2.820   8.823  0.4875 -0.2034 -0.2358
    5CHL1   H25  362   2.288   2.774   8.852 -0.8190 -2.0787  1.3337
    5CHL1   C26  363   2.181   2.765   8.679 -0.1573 -0.7883  0.6663
    5CHL1  H26A  364   2.257   2.805   8.607 -1.6911 -0.8324 -1.0167
    5CHL1  H26B  365   2.207   2.657   8.680 -2.2415 -1.3621 -1.8955
    5CHL1  H26C  366   2.079   2.770   8.634  0.6071 -0.1519 -1.0649
    5CHL1   C27  367   2.196   2.974   8.813 -0.4572  0.0213 -0.5901
    5CHL1  H27A  368   2.211   3.041   8.900  0.3562  0.5312 -1.1191
    5CHL1  H27B  369   2.272   3.007   8.739  1.2777 -1.4047  0.5085
    5CHL1  H27C  370   2.099   3.007   8.771 -0.1764 -0.5217 -1.6769
    6CHL1    C3  371   6.585   6.612  10.392 -0.7023 -0.2066 -0.3775
    6CHL1    H3  372   6.650   6.700  10.371 -1.8532  0.3470 -1.7283
    6CHL1    O3  373   6.546   6.609  10.523  0.4944 -0.0578 -0.2486
    6CHL1   H3'  374   6.626   6.600  10.575  1.1393  0.7565 -1.0865
    6CHL1    C4  375   6.462   6.634  10.295 -0.4776  0.3746  0.9469
    6CHL1   H4A  376   6.388   6.553  10.310  0.7527 -1.2433 -1.3723
    6CHL1   H4B  377   6.417   6.731  10.323 -1.7604 -0.4643  1.8144
    6CHL1    C5  378   6.488   6.630  10.144  0.2847  0.2916 -0.1959
    6CHL1    C6  379   6.459   6.735  10.065 -0.8850  0.1312 -0.0177
    6CHL1    H6  380   6.414   6.827  10.105  2.6067  1.1078  1.9057
    6CHL1    C7  381   6.485   6.734   9.917 -0.5835  0.5614  0.6010
    6CHL1   H7A  382   6.400   6.766   9.854 -0.2933  1.7102  0.7815
    6CHL1   H7B  383   6.569   6.805   9.901  0.9961 -1.9372 -2.7698
    6CHL1    C8  384   6.532   6.598   9.860 -0.4312  0.0031 -0.1701
    6CHL1    H8  385   6.437   6.541   9.850 -0.3636 -0.0864 -0.3089
    6CHL1   C14  386   6.602   6.612   9.725 -0.3117 -0.3547  0.1324
    6CHL1   H14  387   6.693   6.671   9.750 -0.6449  1.1938 -2.1658
    6CHL1   C15  388   6.544   6.705   9.613 -0.3870 -0.0038 -0.5323
    6CHL1  H15A  389   6.436   6.695   9.589 -0.6158 -1.3682  0.9936
    6CHL1  H15B  390   6.571   6.811   9.635 -2.0990  0.3288  0.0460
    6CHL1   C16  391   6.621   6.659   9.484  0.3545 -0.2387 -0.8280
    6CHL1  H16A  392   6.550   6.617   9.409 -0.7607 -0.3830  0.2786
    6CHL1  H16B  393   6.673   6.745   9.438 -0.8964  2.0079  1.8061
    6CHL1   C17  394   6.716   6.540   9.526  0.7232  0.4271 -0.3988
    6CHL1   H17  395   6.812   6.592   9.546 -0.3366  2.2887 -0.0912
    6CHL1   C13  396   6.654   6.488   9.659  1.0755 -0.5748  0.4351
    6CHL1   C18  397   6.525   6.410   9.621  0.0267 -0.1291 -0.1015
    6CHL1  H18A  398   6.468   6.386   9.713  0.6402 -0.1284  0.2821
    6CHL1  H18B  399   6.462   6.458   9.543  3.1030  1.5916 -1.6422
    6CHL1  H18C  400   6.549   6.307   9.586 -0.7751  1.0228 -4.3752
    6CHL1   C12  401   6.745   6.414   9.755 -1.1869  0.2518  0.5791
    6CHL1  H12A  402   6.777   6.318   9.709 -1.6274  0.0001  0.7996
    6CHL1  H12B  403   6.830   6.485   9.766 -1.3124  0.5911 -0.5094
    6CHL1   C11  404   6.690   6.389   9.900 -0.1005  0.6570 -0.5627
    6CHL1  H11A  405   6.605   6.318   9.891 -1.2083  1.5491  2.1048
    6CHL1  H11B  406   6.765   6.350   9.973 -0.9060 -2.0711 -1.1325
    6CHL1    C9  407   6.623   6.519   9.961  0.3939  0.4891 -0.3440
    6CHL1    H9  408   6.706   6.591   9.969  1.5949 -1.1219  2.3261
    6CHL1   C10  409   6.568   6.507  10.102 -0.3352  0.6286 -0.7508
    6CHL1   C19  410   6.472   6.389  10.117  0.3335  0.3809 -0.6892
    6CHL1  H19A  411   6.379   6.391  10.057 -0.6009 -2.4490  0.6172
    6CHL1  H19B  412   6.520   6.294  10.087  0.4976  0.6627 -1.3265
    6CHL1  H19C  413   6.434   6.373  10.220  0.4703 -0.4954 -0.7689
    6CHL1    C1  414   6.692   6.494  10.193  0.5335  0.1542  0.0433
    6CHL1   H1A  415   6.721   6.388  10.176 -0.8371 -0.5146  1.7493
    6CHL1   H1B  416   6.771   6.568  10.164 -0.1592  0.1367 -1.9777
    6CHL1    C2  417   6.654   6.489  10.348  0.1432  0.0293  0.1769
    6CHL1   H2A  418   6.746   6.476  10.409  0.5162  2.5653  0.1874
    6CHL1   H2B  419   6.597   6.397  10.375  0.6333  0.4800  2.8627
    6CHL1   C20  420   6.724   6.439   9.401  0.4884  0.0127 -0.4402
    6CHL1   H20  421   6.622   6.403   9.375  2.1439 -2.8528 -3.3589
    6CHL1   C21  422   6.800   6.319   9.441  0.3830  0.0882 -0.2490
    6CHL1  H21A  423   6.823   6.258   9.352  1.2271  0.8254 -0.5430
    6CHL1  H21B  424   6.737   6.250   9.501  1.7741 -0.8510  0.1597
    6CHL1  H21C  425   6.885   6.356   9.502 -0.1992 -0.6023  1.0140
    6CHL1   C22  426   6.790   6.503   9.278 -0.3012  0.4315  0.1848
    6CHL1  H22A  427   6.801   6.428   9.197 -0.0059  0.3781  0.2745
    6CHL1  H22B  428   6.727   6.585   9.236  0.0741  0.5572 -0.1311
    6CHL1   C23  429   6.936   6.559   9.290  0.2668 -0.7742  0.1461
    6CHL1  H23A  430   6.938   6.654   9.347  0.7095  0.1701 -1.4238
    6CHL1  H23B  431   7.006   6.490   9.343 -1.1042 -1.8441  0.5983
    6CHL1   C24  432   6.995   6.585   9.150 -0.4186 -0.5756  0.0951
    6CHL1  H24A  433   7.104   6.588   9.167 -0.7938 -0.3112  2.6211
    6CHL1  H24B  434   6.969   6.498   9.086 -0.2409  0.1583 -0.9820
    6CHL1   C25  435   6.933   6.702   9.073 -0.2551 -0.5588 -0.0268
    6CHL1   H25  436   6.826   6.676   9.056 -0.0633 -2.0491  0.8856
    6CHL1   C26  437   6.949   6.832   9.145 -0.3656  0.2242  0.3025
    6CHL1  H26A  438   7.055   6.866   9.153 -1.6153  4.1326  1.4322
    6CHL1  H26B  439   6.886   6.912   9.100  1.2335  0.8101 -0.9736
    6CHL1  H26C  440   6.913   6.814   9.248 -1.8478  0.3937 -0.1816
    6CHL1   C27  441   7.001   6.722   8.931  0.6385  0.2180  0.1761
    6CHL1  H27A  442   6.955   6.652   8.858 -0.5172 -0.0089  1.0868
    6CHL1  H27B  443   6.982   6.827   8.899 -1.2102  0.4103  1.7447
    6CHL1  H27C  444   7.111   6.726   8.940  0.5642 -0.0983  1.2737
    7CHL1    C3  445   2.816   3.486  10.276 -0.0712 -0.4154 -0.3971
    7CHL1    H3  446   2.903   3.553  10.258  0.2333 -0.5534  0.5375
    7CHL1    O3  447   2.802   3.442  10.415 -0.2329  0.7554 -0.9170
    7CHL1   H3'  448   2.748   3.363  10.406  1.3115 -0.2613 -1.5228
    7CHL1    C4  449   2.692   3.559  10.235  0.4223  0.1552 -0.0393
    7CHL1   H4A  450   2.612   3.500  10.284 -1.0568  0.4739 -1.9908
    7CHL1   H4B  451   2.700   3.659  10.283 -1.6354  0.3537 -0.0441
    7CHL1    C5  452   2.661   3.581  10.089  0.0963 -0.2111  0.7746
    7CHL1    C6  453   2.612   3.697  10.044  0.1239 -0.1266 -0.3401
    7CHL1    H6  454   2.596   3.789  10.103 -1.4226 -0.5192 -0.1390
    7CHL1    C7  455   2.576   3.715   9.893  0.1953  0.3271 -0.0672
    7CHL1   H7A  456   2.475   3.756   9.871 -0.3809 -1.5363 -0.9810
    7CHL1   H7B  457   2.657   3.787   9.866  0.4836  0.0099 -0.0589
    7CHL1    C8  458   2.575   3.587   9.811  0.7510 -0.3505  0.1599
    7CHL1    H8  459   2.475   3.539   9.819 -0.7965  2.6330 -0.4216
    7CHL1   C14  460   2.596   3.626   9.664  0.0930 -0.1278  0.0739
    7CHL1   H14  461   2.702   3.657   9.660 -0.7159  2.9242  0.9310
    7CHL1   C15  462   2.508   3.734   9.597  0.4781 -0.7133  0.2109
    7CHL1  H15A  463   2.406   3.702   9.629 -1.1234  1.8058 -2.0958
    7CHL1  H15B  464   2.528   3.843   9.610  2.2892 -1.0685  0.5402
    7CHL1   C16  465   2.533   3.700   9.448  0.0291 -0.2665 -0.0702
    7CHL1  H16A  466   2.440   3.671   9.396 -0.0439 -0.4614  0.1685
    7CHL1  H16B  467   2.592   3.775   9.391  0.3441 -1.2837 -1.1205
    7CHL1   C17  468   2.623   3.571   9.440 -0.0455  1.0062  0.3005
    7CHL1   H17  469   2.729   3.602   9.447 -0.1313  1.2167  0.6813
    7CHL1   C13  470   2.595   3.499   9.576  0.3192  0.1238  0.0197
    7CHL1   C18  471   2.456   3.429   9.569 -0.2882  0.0662 -0.4910
    7CHL1  H18A  472   2.458   3.360   9.481  0.9461  0.1273 -0.5158
    7CHL1  H18B  473   2.432   3.361   9.653  3.1508 -0.2693  0.2502
    7CHL1  H18C  474   2.375   3.502   9.545  1.3673  2.6415  1.5065
    7CHL1   C12  475   2.699   3.397   9.612 -0.3651 -0.3927  0.3742
    7CHL1  H12A  476   2.677   3.299   9.566  0.1414 -0.8496  1.1049
    7CHL1  H12B  477   2.794   3.449   9.585 -1.1607  1.0417  0.2803
    7CHL1   C11  478   2.701   3.371   9.762  0.3197  0.0764 -0.5748
    7CHL1  H11A  479   2.606   3.315   9.775  0.2999 -0.0675 -1.3407
    7CHL1  H11B  480   2.778   3.293   9.780 -0.6206 -0.6260  0.4859
    7CHL1    C9  481   2.689   3.495   9.856 -0.2765  0.6848 -0.5885
    7CHL1    H9  482   2.786   3.549   9.846 -0.1675  0.4604 -0.7617
    7CHL1   C10  483   2.688   3.458  10.001  0.4108 -0.7716  0.3501
    7CHL1   C19  484   2.580   3.354  10.029  0.1367  0.6263  0.1304
    7CHL1  H19A  485   2.616   3.261   9.979  0.7042 -0.3945  2.3703
    7CHL1  H19B  486   2.571   3.324  10.136 -2.4274  0.7334 -0.0111
    7CHL1  H19C  487   2.484   3.373   9.977  0.5061 -1.7145 -1.4802
    7CHL1    C1  488   2.818   3.386  10.040 -0.0427 -0.4439  0.0740
    7CHL1   H1A  489   2.837   3.293   9.982 -1.0792  0.2553 -1.4395
    7CHL1   H1B  490   2.893   3.463  10.011 -1.0798  0.5152 -0.0980
    7CHL1    C2  491   2.836   3.360  10.190  0.6947 -0.8194 -0.0127
    7CHL1   H2A  492   2.942   3.332  10.208  0.6095  0.3619  2.6237
    7CHL1   H2B  493   2.759   3.290  10.228  0.4911  0.6221  2.3903
    7CHL1   C20  494   2.609   3.492   9.298  0.0566 -0.0821 -0.6189
    7CHL1   H20  495   2.503   3.462   9.285  0.0722 -0.2113 -0.4546
    7CHL1   C21  496   2.708   3.370   9.288  0.3334 -0.9684 -0.6434
    7CHL1  H21A  497   2.751   3.356   9.186  2.6025 -1.8024  0.4047
    7CHL1  H21B  498   2.655   3.273   9.300 -1.0761 -0.1965 -0.5429
    7CHL1  H21C  499   2.788   3.388   9.362  0.5909 -2.6328 -0.4808
    7CHL1   C22  500   2.639   3.595   9.188 -0.2096 -0.0781  0.3894
    7CHL1  H22A  501   2.571   3.683   9.186  0.2267  0.2541 -0.9528
    7CHL1  H22B  502   2.737   3.634   9.224 -0.5886  0.7202  0.5484
    7CHL1   C23  503   2.645   3.539   9.046  0.3936  0.1724  0.3020
    7CHL1  H23A  504   2.708   3.450   9.026  2.1569  1.0211  1.8810
    7CHL1  H23B  505   2.541   3.505   9.025 -0.4791  2.6247  0.4484
    7CHL1   C24  506   2.672   3.643   8.944 -0.4949  0.6107  0.6139
    7CHL1  H24A  507   2.599   3.724   8.966  1.6708  2.5286  0.9056
    7CHL1  H24B  508   2.774   3.685   8.958  0.1472 -0.1067 -1.7561
    7CHL1   C25  509   2.639   3.595   8.804 -0.0336 -0.6601  0.2176
    7CHL1   H25  510   2.537   3.550   8.800 -0.6462  0.5553  1.8319
    7CHL1   C26  511   2.622   3.721   8.722  0.6550 -0.5623 -0.6408
    7CHL1  H26A  512   2.715   3.782   8.715  0.3508 -0.0400 -0.2192
    7CHL1  H26B  513   2.605   3.700   8.615  0.9227 -1.5622 -0.4947
    7CHL1  H26C  514   2.533   3.781   8.750  1.0585 -0.7957  1.2407
    7CHL1   C27  515   2.734   3.493   8.739  0.0532  0.1873 -0.2742
    7CHL1  H27A  516   2.766   3.424   8.819 -0.8633 -0.2928 -0.3110
    7CHL1  H27B  517   2.669   3.442   8.664  0.1260  2.3633 -1.8734
    7CHL1  H27C  518   2.815   3.540   8.679  1.0682 -0.0977  0.8608
    8CHL1    C3  519   3.460   5.201  10.351  0.1348  0.2064 -0.3129
    8CHL1    H3  520   3.564   5.216  10.315  0.2143 -0.2223 -0.2679
    8CHL1    O3  521   3.468   5.184  10.496 -0.1092  0.1437  0.3975
    8CHL1   H3'  522   3.380   5.170  10.530  0.0789  0.6295  1.0948
    8CHL1    C4  523   3.369   5.321  10.326 -0.2839  0.9051  0.2487
    8CHL1   H4A  524   3.273   5.297  10.376  0.0370 -0.9216  0.0376
    8CHL1   H4B  525   3.407   5.404  10.389 -0.6639  0.4206  1.1202
    8CHL1    C5  526   3.343   5.351  10.179  0.9671  0.2624 -0.0429
    8CHL1    C6  527   3.377   5.469  10.128 -0.7156 -0.2271  0.7460
    8CHL1    H6  528   3.425   5.547  10.189 -0.1822  0.7960 -0.9369
    8CHL1    C7  529   3.366   5.506   9.982 -0.5849  0.8440  0.4657
    8CHL1   H7A  530   3.325   5.608   9.967 -1.1107  0.4515 -0.7891
    8CHL1   H7B  531   3.464   5.510   9.929 -0.9350  1.6168 -0.1203
    8CHL1    C8  532   3.285   5.398   9.906 -0.1267  0.3050 -0.1555
    8CHL1    H8  533   3.175   5.409   9.919 -0.2811  0.8673 -1.8809
    8CHL1   C14  534   3.310   5.410   9.756 -0.0397 -0.5891  0.7608
    8CHL1   H14  535   3.420   5.394   9.744  0.0499  0.0762  0.7096
    8CHL1   C15  536   3.275   5.552   9.692  0.1855  0.2382  0.3127
    8CHL1  H15A  537   3.172   5.584   9.719 -0.4814 -2.2918  0.9150
    8CHL1  H15B  538   3.348   5.626   9.730  0.7672 -1.0267  1.7335
    8CHL1   C16  539   3.282   5.510   9.539  0.1716  0.2788 -0.9250
    8CHL1  H16A  540   3.205   5.568   9.483  0.8734  0.6625 -1.5027
    8CHL1  H16B  541   3.386   5.533   9.506  1.1408  1.4536  2.7266
    8CHL1   C17  542   3.266   5.354   9.526 -0.8593  0.2808  0.0651
    8CHL1   H17  543   3.369   5.322   9.501 -0.9569 -0.1481  0.2114
    8CHL1   C13  544   3.247   5.306   9.668 -0.9762 -0.0378 -0.2818
    8CHL1   C18  545   3.095   5.314   9.682 -0.2635 -0.7625 -0.4527
    8CHL1  H18A  546   3.062   5.418   9.662 -0.0527 -0.3679  1.1508
    8CHL1  H18B  547   3.038   5.239   9.623 -1.8104  0.5504 -0.6407
    8CHL1  H18C  548   3.075   5.294   9.790 -3.1683 -2.3919 -1.2384
    8CHL1   C12  549   3.309   5.166   9.693  0.4563  0.2839 -1.1418
    8CHL1  H12A  550   3.266   5.084   9.632 -1.5340  1.2767 -1.1262
    8CHL1  H12B  551   3.419   5.177   9.681  0.6408  0.3643  0.4757
    8CHL1   C11  552   3.291   5.136   9.851  0.0336  0.2550  0.1570
    8CHL1  H11A  553   3.182   5.116   9.859 -0.0863  1.0461  0.5159
    8CHL1  H11B  554   3.349   5.044   9.873 -0.9879 -0.2848  0.6587
    8CHL1    C9  555   3.331   5.254   9.947 -0.5389 -0.3256  0.0007
    8CHL1    H9  556   3.442   5.253   9.939 -0.4672 -0.5375  0.9331
    8CHL1   C10  557   3.302   5.229  10.097  0.0648  0.0022  0.0307
    8CHL1   C19  558   3.153   5.197  10.101  0.0013 -0.2728 -0.0956
    8CHL1  H19A  559   3.112   5.219  10.202  0.7949 -0.7091  0.3266
    8CHL1  H19B  560   3.101   5.266  10.032  1.6854 -0.1555 -1.2702
    8CHL1  H19C  561   3.125   5.093  10.071  0.9783 -1.1160  1.7954
    8CHL1    C1  562   3.377   5.100  10.136  0.3071 -0.0511 -0.4409
    8CHL1   H1A  563   3.324   5.011  10.095 -2.5007  1.2000  0.3889
    8CHL1   H1B  564   3.480   5.112  10.096  1.3271 -4.0341  0.7401
    8CHL1    C2  565   3.397   5.075  10.285 -0.1107 -0.8360  0.4642
    8CHL1   H2A  566   3.462   4.986  10.289  0.2569 -0.7177 -2.0549
    8CHL1   H2B  567   3.295   5.062  10.328  0.1007 -1.2351  0.8401
    8CHL1   C20  568   3.173   5.311   9.406 -0.9026  0.3503 -1.1743
    8CHL1   H20  569   3.065   5.329   9.426 -0.1618  1.7105  1.8051
    8CHL1   C21  570   3.186   5.152   9.379 -1.2403  0.2868  0.5813
    8CHL1  H21A  571   3.131   5.137   9.283  0.7531  2.5026 -0.9553
    8CHL1  H21B  572   3.134   5.087   9.453 -0.2969 -1.6323 -0.3807
    8CHL1  H21C  573   3.291   5.117   9.366 -1.6181 -0.7784  0.3368
    8CHL1   C22  574   3.197   5.390   9.276 -0.5372  0.0417  0.2644
    8CHL1  H22A  575   3.203   5.498   9.302  1.6375 -0.3437  1.5043
    8CHL1  H22B  576   3.291   5.354   9.229  0.9951  1.5588  2.0853
    8CHL1   C23  577   3.081   5.381   9.172  0.5490  0.1223  0.3533
    8CHL1  H23A  578   3.059   5.274   9.149  0.3141  0.4813 -1.1200
    8CHL1  H23B  579   2.986   5.417   9.218 -0.2302 -1.3835 -0.0100
    8CHL1   C24  580   3.112   5.450   9.034 -0.5395 -0.5893  0.4272
    8CHL1  H24A  581   3.148   5.552   9.057  1.9212 -2.2701  4.5459
    8CHL1  H24B  582   3.199   5.405   8.983  0.9079  1.4281  1.0594
    8CHL1   C25  583   2.999   5.455   8.929 -0.2632 -0.1153  0.2692
    8CHL1   H25  584   2.907   5.497   8.974 -0.8767  0.0094 -1.0944
    8CHL1   C26  585   3.041   5.538   8.808  0.2211  0.0485  0.6341
    8CHL1  H26A  586   3.099   5.630   8.830  0.3649  0.2105 -0.3829
    8CHL1  H26B  587   3.098   5.468   8.742 -0.0506  0.2643  0.1681
    8CHL1  H26C  588   2.955   5.575   8.747  1.4589  1.2552 -0.4265
    8CHL1   C27  589   2.973   5.312   8.888 -0.8693  0.6486  0.3305
    8CHL1  H27A  590   2.979   5.239   8.972 -0.7713 -0.7717 -0.8976
    8CHL1  H27B  591   2.870   5.316   8.847 -1.2214 -0.9534  1.0215
    8CHL1  H27C  592   3.035   5.276   8.804 -0.4691 -0.3912  1.0666
    9CHL1    C3  593   6.396   0.916  10.181 -0.0835 -0.0881 -0.1168
    9CHL1    H3  594   6.507   0.912  10.168  0.2695  0.9838  2.2440
    9CHL1    O3  595   6.360   0.915  10.313  0.1307 -0.4338  0.0025
    9CHL1   H3'  596   6.264   0.926  10.310 -0.1001 -1.5524  2.0647
    9CHL1    C4  597   6.342   1.039  10.119 -0.0248 -0.2673  0.2898
    9CHL1   H4A  598   6.232   1.040  10.136 -0.1789 -1.0062 -0.5717
    9CHL1   H4B  599   6.385   1.126  10.173 -0.8455  0.9855 -1.0228
    9CHL1    C5  600   6.367   1.048   9.967  0.1165  0.5775 -0.1653
    9CHL1    C6  601   6.450   1.140   9.908  0.2436  0.2065 -0.5230
    9CHL1    H6  602   6.486   1.219   9.976  1.1357  0.4268 -1.2533
    9CHL1    C7  603   6.448   1.172   9.760  0.1624 -0.8894 -0.3550
    9CHL1   H7A  604   6.427   1.280   9.745  0.9646 -0.6702  0.0607
    9CHL1   H7B  605   6.548   1.155   9.715  0.6958 -1.4552  1.0157
    9CHL1    C8  606   6.346   1.086   9.684 -0.3669 -0.3367 -0.5626
    9CHL1    H8  607   6.245   1.130   9.698  0.0042  0.0969  0.8163
    9CHL1   C14  608   6.365   1.093   9.531 -0.3128  0.6929  0.1267
    9CHL1   H14  609   6.459   1.042   9.502  0.0552  0.3656  1.8720
    9CHL1   C15  610   6.367   1.236   9.471 -0.3184  0.6466 -0.4297
    9CHL1  H15A  611   6.284   1.292   9.518  0.0885  0.4156  0.5632
    9CHL1  H15B  612   6.466   1.284   9.485  0.2494 -0.5241 -0.4114
    9CHL1   C16  613   6.345   1.206   9.319  0.2474  0.1391  0.1429
    9CHL1  H16A  614   6.260   1.270   9.285 -0.1033  0.2378  1.1872
    9CHL1  H16B  615   6.434   1.228   9.257  0.6908  3.2636  1.7648
    9CHL1   C17  616   6.312   1.051   9.307 -0.6554  0.1204 -0.4770
    9CHL1   H17  617   6.413   1.005   9.301 -0.1259  1.5844 -4.4176
    9CHL1   C13  618   6.264   1.006   9.449 -1.1059  0.1354  0.0638
    9CHL1   C18  619   6.129   1.062   9.464  0.2934 -0.2815 -0.5805
    9CHL1  H18A  620   6.115   1.156   9.406 -1.6953  0.2267  0.6995
    9CHL1  H18B  621   6.051   0.989   9.434  0.3503 -1.3183  1.6972
    9CHL1  H18C  622   6.101   1.102   9.563  2.7328  0.8297 -0.3061
    9CHL1   C12  623   6.283   0.857   9.482  0.1177  0.4713 -0.6832
    9CHL1  H12A  624   6.212   0.787   9.432  1.2241 -0.1069 -1.4457
    9CHL1  H12B  625   6.392   0.835   9.480 -0.1850 -1.3463  0.6695
    9CHL1   C11  626   6.254   0.856   9.635 -0.4493 -0.0335 -1.0410
    9CHL1  H11A  627   6.149   0.893   9.644 -1.1364 -1.8306 -1.3794
    9CHL1  H11B  628   6.267   0.749   9.663 -0.2223  0.1843 -0.3079
    9CHL1    C9  629   6.344   0.942   9.732  0.1723 -0.1500  0.1178
    9CHL1    H9  630   6.451   0.913   9.726  0.1008 -0.9534  2.3972
    9CHL1   C10  631   6.306   0.936   9.886 -0.7016 -0.2097  0.1941
    9CHL1   C19  632   6.149   0.941   9.898 -0.6087  0.4676  0.6491
    9CHL1  H19A  633   6.103   1.024   9.840  0.4755  0.8616  0.3446
    9CHL1  H19B  634   6.100   0.849   9.862  3.2370 -1.5267  0.3098
    9CHL1  H19C  635   6.118   0.955  10.004 -0.7237  0.9143  0.5587
    9CHL1    C1  636   6.345   0.806   9.950  0.4201  0.7448  0.4911
    9CHL1   H1A  637   6.286   0.719   9.913  0.2933  0.0188  2.3458
    9CHL1   H1B  638   6.448   0.767   9.937 -0.5351 -0.7949 -3.0336
    9CHL1    C2  639   6.328   0.795  10.111 -0.0748  0.1311  0.2934
    9CHL1   H2A  640   6.385   0.707  10.148  0.0960  0.6816  1.3852
    9CHL1   H2B  641   6.222   0.781  10.140  0.0416  0.7784  1.0493
    9CHL1   C20  642   6.225   1.008   9.185  0.0190 -0.0894  0.6439
    9CHL1   H20  643   6.116   1.016   9.207 -0.5115 -1.1703 -1.4071
    9CHL1   C21  644   6.255   0.864   9.142 -0.3221 -0.8399  0.0392
    9CHL1  H21A  645   6.216   0.792   9.217  0.1547  0.0849  1.1987
    9CHL1  H21B  646   6.365   0.849   9.131 -0.1477 -0.7917  1.6367
    9CHL1  H21C  647   6.203   0.845   9.046  0.5070 -0.1422 -0.5571
    9CHL1   C22  648   6.253   1.093   9.059  0.6700 -0.3387  0.2947
    9CHL1  H22A  649   6.295   1.194   9.078  2.2686 -0.9081 -0.1459
    9CHL1  H22B  650   6.328   1.040   8.997  0.8165 -0.3289  0.4622
    9CHL1   C23  651   6.126   1.119   8.972 -0.0503  0.0934  0.3058
    9CHL1  H23A  652   6.060   1.031   8.963 -0.6438  0.4100  1.4011
    9CHL1  H23B  653   6.066   1.197   9.024 -2.4375 -0.4720 -1.5106
    9CHL1   C24  654   6.164   1.168   8.834  0.3385 -0.3663 -0.2348
    9CHL1  H24A  655   6.236   1.252   8.843 -0.4385  0.4091 -1.1859
    9CHL1  H24B  656   6.225   1.088   8.787  0.9684 -0.3731  0.5881
    9CHL1   C25  657   6.056   1.208   8.738 -0.2421  0.0526  0.0623
    9CHL1   H25  658   5.980   1.261   8.799  1.4130 -0.0841  2.2881
    9CHL1   C26  659   6.116   1.299   8.628  0.0284 -0.7615  0.6978
    9CHL1  H26A  660   6.215   1.259   8.596  0.5677 -1.0788  2.6976
    9CHL1  H26B  661   6.048   1.314   8.541  0.7143  1.4327  0.4963
    9CHL1  H26C  662   6.133   1.400   8.672  1.8131 -2.5971  4.4399
    9CHL1   C27  663   5.994   1.081   8.676  0.0394  0.6878  0.9904
    9CHL1  H27A  664   5.943   1.021   8.754  0.6047 -0.1740  0.7124
    9CHL1  H27B  665   5.929   1.091   8.586  0.5714  3.6085  0.8843
    9CHL1  H27C  666   6.077   1.016   8.639 -0.6379 -0.2329  1.0733
   10CHL1    C3  667   5.383   5.599  10.219 -1.4341  0.1202  0.2148
   10CHL1    H3  668   5.314   5.515  10.196  0.4786 -2.2337  2.8375
   10CHL1    O3  669   5.409   5.600  10.359 -0.4259  0.7441  1.0131
   10CHL1   H3'  670   5.496   5.641  10.363 -0.3099  0.7744 -1.1923
   10CHL1    C4  671   5.521   5.589  10.139  0.8553  0.5623  0.5917
   10CHL1   H4A  672   5.592   5.666  10.177  2.4299  0.0151 -1.1592
   10CHL1   H4B  673   5.557   5.486  10.159 -0.3553  0.0279  0.0639
   10CHL1    C5  674   5.505   5.616   9.992  0.3844  0.4176  0.1315
   10CHL1    C6  675   5.540   5.523   9.900  0.0569 -0.2539  0.3638
   10CHL1    H6  676   5.579   5.426   9.935  0.6287 -0.6625 -1.3280
   10CHL1    C7  677   5.538   5.539   9.746 -0.3468  0.3474  0.0438
   10CHL1   H7A  678   5.630   5.494   9.702 -0.4946  1.9539 -1.9915
   10CHL1   H7B  679   5.454   5.494   9.689 -0.3408  0.4714 -0.0637
   10CHL1    C8  680   5.533   5.698   9.714  0.3864  0.1862 -0.2518
   10CHL1    H8  681   5.636   5.729   9.740 -0.5848  1.4748  2.2149
   10CHL1   C14  682   5.501   5.715   9.570 -0.2717  0.2140  0.0889
   10CHL1   H14  683   5.412   5.651   9.556 -0.6410  0.3681  1.6598
   10CHL1   C15  684   5.605   5.658   9.465  0.0827  0.0460  0.1993
   10CHL1  H15A  685   5.699   5.699   9.510 -0.4415  0.8634  0.5693
   10CHL1  H15B  686   5.592   5.548   9.472 -1.8233  0.3337  1.4808
   10CHL1   C16  687   5.555   5.713   9.329  0.3641 -0.4352 -0.4825
   10CHL1  H16A  688   5.646   5.742   9.272  2.0413 -2.3866  1.1112
   10CHL1  H16B  689   5.506   5.629   9.275 -1.0719 -0.6749  1.1485
   10CHL1   C17  690   5.455   5.821   9.361  1.2325 -0.0491  0.3569
   10CHL1   H17  691   5.359   5.766   9.353  0.3361  1.3420  1.3110
   10CHL1   C13  692   5.463   5.850   9.518 -0.0892  0.2604 -0.0134
   10CHL1   C18  693   5.576   5.954   9.536  0.2454 -0.8206  0.5752
   10CHL1  H18A  694   5.665   5.941   9.471  0.1277 -1.2431  0.5015
   10CHL1  H18B  695   5.547   6.058   9.508  0.4893 -0.5412  1.3494
   10CHL1  H18C  696   5.618   5.947   9.638  0.3585  2.3597  0.7981
   10CHL1   C12  697   5.344   5.894   9.595  0.2115 -0.4711 -0.4381
   10CHL1  H12A  698   5.321   6.001   9.575  2.3000  0.1513  0.3899
   10CHL1  H12B  699   5.258   5.835   9.559 -0.7301  0.8047 -0.3296
   10CHL1   C11  700   5.368   5.896   9.745 -0.3909  0.2007 -0.0029
   10CHL1  H11A  701   5.440   5.978   9.766 -0.1645  0.1047 -0.3863
   10CHL1  H11B  702   5.269   5.924   9.788 -0.2993  1.8244 -0.8070
   10CHL1    C9  703   5.413   5.759   9.801  0.4503 -0.3566  0.4653
   10CHL1    H9  704   5.320   5.702   9.778  0.0612  0.5245 -0.1723
   10CHL1   C10  705   5.441   5.749   9.952 -0.7950  0.1541  0.3845
   10CHL1   C19  706   5.553   5.852   9.999 -0.4717  0.4236  0.0391
   10CHL1  H19A  707   5.511   5.953   9.981  2.2634  1.6566  0.4017
   10CHL1  H19B  708   5.570   5.840  10.109 -0.0654 -3.2614 -0.3663
   10CHL1  H19C  709   5.646   5.853   9.940 -1.2239  1.1763 -1.1497
   10CHL1    C1  710   5.315   5.774  10.032  0.2202  0.3554  0.3818
   10CHL1   H1A  711   5.284   5.880  10.026  0.0351  0.2755 -0.1607
   10CHL1   H1B  712   5.230   5.718   9.985  1.4909  0.2820 -1.9035
   10CHL1    C2  713   5.316   5.741  10.182  0.0062  0.7774  0.6245
   10CHL1   H2A  714   5.217   5.755  10.229 -0.8426  2.7565 -1.6605
   10CHL1   H2B  715   5.379   5.808  10.245 -0.3469 -0.2388  2.0826
   10CHL1   C20  716   5.450   5.929   9.256 -0.2246 -0.8481 -0.1957
   10CHL1   H20  717   5.555   5.966   9.261 -0.2246 -1.1169  3.9247
   10CHL1   C21  718   5.351   6.038   9.295  0.1698 -0.0828  0.2108
   10CHL1  H21A  719   5.338   6.119   9.219  1.9260 -1.0130 -1.1129
   10CHL1  H21B  720   5.369   6.104   9.383  2.8306 -0.8342  0.2597
   10CHL1  H21C  721   5.247   6.000   9.308  0.1857  0.5231  2.2952
   10CHL1   C22  722   5.436   5.875   9.115 -0.2141  0.3183  0.3506
   10CHL1  H22A  723   5.508   5.793   9.093 -0.5164 -0.2326  1.3442
   10CHL1  H22B  724   5.337   5.823   9.110 -0.3342  0.7085 -1.8379
   10CHL1   C23  725   5.426   5.977   9.005  0.3013 -0.0569 -0.0840
   10CHL1  H23A  726   5.330   6.033   9.007  0.0334 -0.5391  1.7273
   10CHL1  H23B  727   5.509   6.045   9.035  0.3825  0.0106 -0.4650
   10CHL1   C24  728   5.468   5.931   8.864  0.0200 -0.2815  0.2562
   10CHL1  H24A  729   5.580   5.930   8.863  0.0493 -0.1170  1.6118
   10CHL1  H24B  730   5.421   5.837   8.830  0.1048 -0.0862 -0.4000
   10CHL1   C25  731   5.411   6.028   8.760 -0.7674 -0.0810  0.1890
   10CHL1   H25  732   5.304   6.028   8.789 -0.4682 -0.7085  1.3253
   10CHL1   C26  733   5.461   6.177   8.780 -0.2256  0.2045  0.7797
   10CHL1  H26A  734   5.442   6.208   8.885 -0.1207 -0.9837  1.1516
   10CHL1  H26B  735   5.570   6.182   8.761 -0.3220  3.2749  0.7124
   10CHL1  H26C  736   5.420   6.244   8.702  1.0559 -0.5514 -0.5660
   10CHL1   C27  737   5.443   5.983   8.624 -0.0850  0.0408 -0.4877
   10CHL1  H27A  738   5.553   5.974   8.614 -0.0499 -0.9875  0.6271
   10CHL1  H27B  739   5.391   5.884   8.619  0.1900 -0.1687  0.5318
   10CHL1  H27C  740   5.396   6.043   8.544 -2.0054 -1.8745 -0.8486
   11CHL1    C3  741   1.333   1.186  10.049  0.9332 -0.3571  0.0410
   11CHL1    H3  742   1.228   1.190  10.013  1.4363 -0.7391 -1.5109
   11CHL1    O3  743   1.337   1.195  10.194 -0.5728 -0.3122 -0.9200
   11CHL1   H3'  744   1.425   1.174  10.225 -0.6602 -0.0824 -0.4999
   11CHL1    C4  745   1.389   1.043  10.027 -0.6281  0.6943 -0.2527
   11CHL1   H4A  746   1.485   1.025  10.079 -0.8856 -0.1130 -0.0369
   11CHL1   H4B  747   1.317   0.970  10.072 -0.7481 -0.1150 -1.7207
   11CHL1    C5  748   1.408   1.013   9.878 -0.3385 -0.1968 -0.6521
   11CHL1    C6  749   1.352   0.902   9.816  0.0181 -0.3210  0.4486
   11CHL1    H6  750   1.282   0.840   9.875 -0.9042  0.7909  0.5361
   11CHL1    C7  751   1.379   0.859   9.677 -0.0541  0.8726  0.1706
   11CHL1   H7A  752   1.426   0.758   9.681 -0.6394  0.6500  2.1510
   11CHL1   H7B  753   1.282   0.866   9.624 -0.3314  0.7287  0.6594
   11CHL1    C8  754   1.477   0.953   9.604  0.6792  0.1307 -0.0598
   11CHL1    H8  755   1.583   0.924   9.622  0.2867 -0.1745  1.8856
   11CHL1   C14  756   1.455   0.935   9.453 -0.0631  0.6780 -0.7613
   11CHL1   H14  757   1.359   0.980   9.418 -0.8242 -1.0244 -0.8966
   11CHL1   C15  758   1.431   0.794   9.405 -0.4466 -0.5767 -0.4381
   11CHL1  H15A  759   1.518   0.737   9.441  0.7397  1.1204 -0.5635
   11CHL1  H15B  760   1.337   0.750   9.444 -0.4349  1.2436  1.7458
   11CHL1   C16  761   1.443   0.817   9.258 -0.1306  0.1559  0.1639
   11CHL1  H16A  762   1.497   0.729   9.217  0.6994  1.8100 -2.3860
   11CHL1  H16B  763   1.346   0.815   9.204  1.0289 -1.5944 -1.9466
   11CHL1   C17  764   1.518   0.954   9.227  0.3518  0.0923  0.0421
   11CHL1   H17  765   1.430   1.012   9.191  1.2599  1.5449  0.1361
   11CHL1   C13  766   1.561   1.005   9.365  0.6880 -0.7431  0.5125
   11CHL1   C18  767   1.706   0.956   9.396  0.5715  0.2470 -0.0973
   11CHL1  H18A  768   1.786   1.015   9.346 -1.6114  2.6275 -0.8752
   11CHL1  H18B  769   1.716   0.992   9.500  2.1330  0.4367 -0.2993
   11CHL1  H18C  770   1.729   0.847   9.401 -1.1885 -0.0847  1.0743
   11CHL1   C12  771   1.542   1.153   9.397 -0.5276  0.1624  0.2113
   11CHL1  H12A  772   1.631   1.203   9.352 -2.2728  1.8789 -1.4540
   11CHL1  H12B  773   1.454   1.187   9.338  0.2344  0.4021 -0.8115
   11CHL1   C11  774   1.548   1.188   9.547  0.0148 -0.0081  0.1281
   11CHL1  H11A  775   1.657   1.189   9.567 -0.2489  1.6774  1.6508
   11CHL1  H11B  776   1.510   1.291   9.564 -2.2674 -0.5255 -1.4944
   11CHL1    C9  777   1.467   1.100   9.642  0.0248 -0.0214  0.7291
   11CHL1    H9  778   1.359   1.123   9.635  0.0247  0.4421  2.0413
   11CHL1   C10  779   1.489   1.125   9.797  0.6357 -0.0599 -0.3589
   11CHL1   C19  780   1.638   1.104   9.835  0.7978  0.0269 -0.0507
   11CHL1  H19A  781   1.656   1.123   9.943  3.0142  2.0573 -0.7373
   11CHL1  H19B  782   1.672   1.000   9.815 -0.8439 -0.1960 -1.8199
   11CHL1  H19C  783   1.698   1.182   9.784  1.3419 -0.4921 -0.2099
   11CHL1    C1  784   1.450   1.267   9.835 -0.4214 -0.0160  0.1592
   11CHL1   H1A  785   1.530   1.334   9.795 -2.5294  2.0883 -0.6399
   11CHL1   H1B  786   1.361   1.295   9.775  0.1442  0.0102 -0.6745
   11CHL1    C2  787   1.428   1.288   9.984 -0.1031  0.1175  0.1677
   11CHL1   H2A  788   1.390   1.391  10.003  1.3248  1.0624 -1.8408
   11CHL1   H2B  789   1.526   1.277  10.036 -1.8759 -1.0960  3.3600
   11CHL1   C20  790   1.618   0.943   9.113 -0.4542 -0.4465  0.2211
   11CHL1   H20  791   1.700   0.872   9.137 -0.8420 -0.4786  1.5134
   11CHL1   C21  792   1.691   1.089   9.085  0.3579  0.0073  0.1342
   11CHL1  H21A  793   1.761   1.077   8.999  0.9031 -0.5015  0.6394
   11CHL1  H21B  794   1.748   1.123   9.174 -1.2174 -0.1664  1.2359
   11CHL1  H21C  795   1.618   1.171   9.070 -0.0375 -0.1774  1.0630
   11CHL1   C22  796   1.556   0.890   8.978 -0.0469 -0.0506 -0.1131
   11CHL1  H22A  797   1.496   0.800   9.001  2.5319 -1.1326  2.8836
   11CHL1  H22B  798   1.490   0.973   8.945  2.2115  2.4145  1.3235
   11CHL1   C23  799   1.660   0.857   8.874 -0.3455 -0.3774 -0.9707
   11CHL1  H23A  800   1.710   0.955   8.858 -0.1749 -0.1057  1.1474
   11CHL1  H23B  801   1.725   0.779   8.918 -0.6148 -0.6677 -1.0835
   11CHL1   C24  802   1.605   0.800   8.741  0.2138 -0.4673  0.1247
   11CHL1  H24A  803   1.689   0.789   8.669  0.4920 -0.1274  0.3970
   11CHL1  H24B  804   1.563   0.700   8.765 -1.4521 -0.4229 -2.4434
   11CHL1   C25  805   1.489   0.876   8.672  0.8624  0.6167  0.4664
   11CHL1   H25  806   1.399   0.871   8.737 -0.2207 -2.2818 -1.1405
   11CHL1   C26  807   1.511   1.032   8.652 -0.0587 -0.3854 -0.1204
   11CHL1  H26A  808   1.552   1.052   8.551 -2.9100 -1.0919 -1.4725
   11CHL1  H26B  809   1.406   1.069   8.647  0.3729  0.8758  0.0948
   11CHL1  H26C  810   1.562   1.083   8.736  0.6895 -1.3072 -0.0066
   11CHL1   C27  811   1.439   0.801   8.541  0.5860 -0.3879 -0.5328
   11CHL1  H27A  812   1.424   0.695   8.569  3.1842 -0.7719 -0.4013
   11CHL1  H27B  813   1.351   0.849   8.494  0.7381  0.4743  0.0535
   11CHL1  H27C  814   1.514   0.787   8.460  0.6999  0.5237 -0.6006
   12CHL1    C3  815   4.359   4.709  10.336 -0.7212 -0.1504 -0.7169
   12CHL1    H3  816   4.404   4.811  10.328 -2.7217  0.7828 -0.4419
   12CHL1    O3  817   4.370   4.663  10.468 -0.3155 -0.0355 -0.0951
   12CHL1   H3'  818   4.319   4.582  10.475 -0.6075 -0.0435 -2.0156
   12CHL1    C4  819   4.208   4.738  10.315 -0.9166 -0.1440 -0.1157
   12CHL1   H4A  820   4.145   4.647  10.326 -0.3936 -0.3198  1.5485
   12CHL1   H4B  821   4.174   4.817  10.386  0.5967  0.6521 -0.2692
   12CHL1    C5  822   4.194   4.795  10.171  0.4964  0.2098 -1.0741
   12CHL1    C6  823   4.135   4.911  10.148 -0.4622 -0.2294 -0.0710
   12CHL1    H6  824   4.096   4.964  10.235 -0.6780 -1.2454  0.4615
   12CHL1    C7  825   4.105   4.972  10.011 -0.4747  0.0031  0.2312
   12CHL1   H7A  826   3.997   4.994  10.001 -0.0789  1.3555 -1.3198
   12CHL1   H7B  827   4.165   5.065  10.005 -0.1874  0.0875  3.5466
   12CHL1    C8  828   4.142   4.875   9.895  0.0535 -0.1375 -0.1908
   12CHL1    H8  829   4.059   4.803   9.881  0.2727 -0.4266 -0.0143
   12CHL1   C14  830   4.161   4.954   9.769 -0.5841 -1.1954  0.0342
   12CHL1   H14  831   4.257   5.009   9.777 -0.0141 -1.9512 -1.5824
   12CHL1   C15  832   4.063   5.067   9.733  0.0142  0.2822 -0.8964
   12CHL1  H15A  833   3.955   5.045   9.752 -0.0186  0.3460 -1.0113
   12CHL1  H15B  834   4.095   5.158   9.787  2.5466 -2.0714  1.7574
   12CHL1   C16  835   4.083   5.094   9.579  0.2781 -0.4215  0.4739
   12CHL1  H16A  836   3.989   5.085   9.520 -0.1820  0.4501  1.0600
   12CHL1  H16B  837   4.137   5.188   9.554 -1.1370  1.2769  3.5128
   12CHL1   C17  838   4.181   4.979   9.531  0.4210  0.2500  0.7418
   12CHL1   H17  839   4.281   5.026   9.542 -0.1952  1.7969 -0.0903
   12CHL1   C13  840   4.188   4.871   9.642  0.8307  0.4279 -0.6651
   12CHL1   C18  841   4.065   4.777   9.620 -0.0870  0.3141  1.3170
   12CHL1  H18A  842   3.964   4.823   9.623  0.0264  0.6352  0.4634
   12CHL1  H18B  843   4.084   4.723   9.525  2.0529  1.5038  1.0313
   12CHL1  H18C  844   4.060   4.689   9.688 -0.0082 -0.7519 -0.0356
   12CHL1   C12  845   4.321   4.796   9.665 -0.5252  0.1465 -0.3358
   12CHL1  H12A  846   4.333   4.718   9.587 -3.4462 -2.4651  1.6728
   12CHL1  H12B  847   4.398   4.875   9.654 -1.4069  1.2200  0.9598
   12CHL1   C11  848   4.328   4.719   9.803  0.2908 -0.2367  0.1003
   12CHL1  H11A  849   4.273   4.625   9.784 -0.6578  0.5712 -1.2275
   12CHL1  H11B  850   4.431   4.677   9.803  0.5171  0.2876 -1.3452
   12CHL1    C9  851   4.269   4.802   9.921 -0.0091 -0.4380 -1.5028
   12CHL1    H9  852   4.345   4.877   9.950 -1.0017  0.1185 -0.3046
   12CHL1   C10  853   4.254   4.716  10.061 -0.0335  0.3156 -0.4955
   12CHL1   C19  854   4.171   4.593  10.034 -0.0164 -0.0490 -0.3300
   12CHL1  H19A  855   4.215   4.520   9.963 -2.2834 -1.0196 -0.7957
   12CHL1  H19B  856   4.162   4.538  10.130  0.2803  0.7419  0.1595
   12CHL1  H19C  857   4.063   4.601  10.008 -0.9031  0.8374  3.3557
   12CHL1    C1  858   4.396   4.664  10.099 -0.3121  0.4782 -0.0930
   12CHL1   H1A  859   4.430   4.589  10.025 -0.8509  0.0331  0.1189
   12CHL1   H1B  860   4.472   4.746  10.094 -0.3638  0.5488  0.2709
   12CHL1    C2  861   4.416   4.603  10.239  0.1770 -0.2647 -0.1247
   12CHL1   H2A  862   4.515   4.560  10.267 -1.3867 -2.3924  2.3704
   12CHL1   H2B  863   4.344   4.519  10.251  0.1197 -0.3592 -1.0832
   12CHL1   C20  864   4.175   4.943   9.383 -0.4456  1.0656  0.6447
   12CHL1   H20  865   4.096   4.865   9.378  1.3070 -0.7551  0.6538
   12CHL1   C21  866   4.297   4.870   9.335 -0.3161 -0.1721  0.4454
   12CHL1  H21A  867   4.386   4.937   9.344 -0.3025 -0.0322 -0.6627
   12CHL1  H21B  868   4.284   4.836   9.231 -2.2225 -0.2760  0.6969
   12CHL1  H21C  869   4.311   4.776   9.392 -1.4924 -0.6482 -0.0527
   12CHL1   C22  870   4.131   5.053   9.280  0.4352  0.0126  0.2783
   12CHL1  H22A  871   4.042   5.107   9.318  1.0130  0.1490  1.4375
   12CHL1  H22B  872   4.210   5.130   9.287  1.0923 -0.7130  0.9224
   12CHL1   C23  873   4.104   5.018   9.134  0.9305 -0.1527  0.6754
   12CHL1  H23A  874   4.070   5.108   9.078  3.7535  0.3789 -0.2728
   12CHL1  H23B  875   4.201   4.987   9.089  0.9757  0.1751  0.5415
   12CHL1   C24  876   4.008   4.904   9.119  0.3845  0.3318  0.4545
   12CHL1  H24A  877   4.030   4.812   9.177 -1.3117 -0.6013 -0.3319
   12CHL1  H24B  878   3.909   4.932   9.163 -1.5046 -0.7278 -2.8956
   12CHL1   C25  879   3.985   4.866   8.968 -0.2957  0.1593 -0.2603
   12CHL1   H25  880   4.084   4.891   8.925 -0.1605  0.8592  0.4494
   12CHL1   C26  881   3.949   4.716   8.950  0.2311  0.1875 -0.2064
   12CHL1  H26A  882   3.946   4.705   8.839  2.5351  1.0872 -0.3944
   12CHL1  H26B  883   4.026   4.642   8.982 -0.2454  0.0933  0.7258
   12CHL1  H26C  884   3.853   4.694   9.001 -0.0826  0.4310 -0.6869
   12CHL1   C27  885   3.876   4.952   8.898 -0.7851 -0.0326  0.0531
   12CHL1  H27A  886   3.774   4.926   8.933 -1.2785  0.1036 -1.2707
   12CHL1  H27B  887   3.877   5.062   8.913  1.6879 -0.2968  2.2949
   12CHL1  H27C  888   3.887   4.923   8.792 -0.6039 -0.1726  0.1097
   13CHL1    C3  889   3.125   6.415   9.974  0.2515 -0.2721 -0.3157
   13CHL1    H3  890   3.160   6.520   9.981  0.4735 -0.4431  1.6272
   13CHL1    O3  891   3.097   6.381  10.112  0.4814  0.2676  0.2801
   13CHL1   H3'  892   3.181   6.361  10.153  1.4756  1.5913 -1.0592
   13CHL1    C4  893   2.994   6.406   9.905  0.0875 -0.4557 -0.3251
   13CHL1   H4A  894   2.953   6.305   9.929 -0.6708 -0.1239 -0.2075
   13CHL1   H4B  895   2.923   6.475   9.955 -1.1247 -0.4239 -2.0546
   13CHL1    C5  896   2.996   6.423   9.758 -0.1702  0.3488 -0.0693
   13CHL1    C6  897   2.925   6.522   9.699  0.5360 -0.1707  0.4963
   13CHL1    H6  898   2.848   6.575   9.757  0.2496  0.9485 -0.8926
   13CHL1    C7  899   2.929   6.536   9.547  0.5098 -0.3777 -0.6873
   13CHL1   H7A  900   2.826   6.546   9.509 -0.1900 -2.0723  0.6477
   13CHL1   H7B  901   3.000   6.620   9.533  1.1112 -0.3438  2.1382
   13CHL1    C8  902   2.992   6.418   9.466  0.2320 -0.6360 -0.0572
   13CHL1    H8  903   2.924   6.330   9.462 -0.5864 -0.0588  1.1465
   13CHL1   C14  904   3.022   6.443   9.321  0.3255  0.0592 -1.0308
   13CHL1   H14  905   3.085   6.535   9.316 -1.3536  1.1451 -3.0382
   13CHL1   C15  906   2.906   6.494   9.233  0.3546  1.1115  0.2013
   13CHL1  H15A  907   2.811   6.439   9.255  0.6798  0.1829 -0.7142
   13CHL1  H15B  908   2.878   6.599   9.257 -0.2300  1.0601 -0.2405
   13CHL1   C16  909   2.958   6.478   9.094  0.6374 -0.0850 -0.1935
   13CHL1  H16A  910   2.903   6.411   9.024 -0.3655  1.8157 -1.2631
   13CHL1  H16B  911   2.958   6.578   9.045 -0.9848 -1.1802 -2.5395
   13CHL1   C17  912   3.103   6.419   9.097 -0.1266  0.4781 -0.2373
   13CHL1   H17  913   3.174   6.504   9.104 -1.1698  1.5600 -2.2105
   13CHL1   C13  914   3.106   6.346   9.237 -0.0431 -0.3431 -0.4055
   13CHL1   C18  915   3.031   6.212   9.225 -0.2303 -0.1966  0.3152
   13CHL1  H18A  916   2.937   6.209   9.165 -0.5439 -0.1297  0.8038
   13CHL1  H18B  917   3.091   6.133   9.174  0.3875  0.6091 -0.2167
   13CHL1  H18C  918   2.986   6.173   9.319 -0.9749  1.5345  0.6932
   13CHL1   C12  919   3.240   6.329   9.306  0.0975  0.2147 -0.2606
   13CHL1  H12A  920   3.305   6.251   9.262  0.7684 -0.1583  1.3981
   13CHL1  H12B  921   3.300   6.421   9.321 -0.3869  0.3885  0.6331
   13CHL1   C11  922   3.219   6.284   9.451  0.4594 -0.0910 -0.6643
   13CHL1  H11A  923   3.197   6.175   9.450 -0.9793  0.1752  0.4679
   13CHL1  H11B  924   3.319   6.285   9.500 -0.4295 -0.3571  1.1945
   13CHL1    C9  925   3.120   6.373   9.542 -0.1437 -0.0218  0.5650
   13CHL1    H9  926   3.172   6.471   9.543 -0.4313  0.1526 -0.4302
   13CHL1   C10  927   3.086   6.325   9.686  0.3112 -0.5303  0.0619
   13CHL1   C19  928   3.019   6.195   9.665  0.6556  1.7567  0.1263
   13CHL1  H19A  929   3.084   6.122   9.612 -0.3170  2.8062 -2.6144
   13CHL1  H19B  930   2.992   6.157   9.766  4.0571 -3.7062 -0.8530
   13CHL1  H19C  931   2.925   6.204   9.607 -0.7545  1.1130  2.2668
   13CHL1    C1  932   3.221   6.317   9.760 -0.1813  0.3493  0.3123
   13CHL1   H1A  933   3.279   6.239   9.707 -0.4954  1.0579 -1.1033
   13CHL1   H1B  934   3.280   6.409   9.741 -1.1273  0.4994 -2.0692
   13CHL1    C2  935   3.217   6.304   9.915  0.6199  0.0082 -0.2316
   13CHL1   H2A  936   3.320   6.302   9.958  0.4007  0.4322  0.3257
   13CHL1   H2B  937   3.165   6.207   9.930  0.0099  0.2035 -1.0760
   13CHL1   C20  938   3.135   6.338   8.976 -0.2198 -0.3196 -0.0492
   13CHL1   H20  939   3.076   6.244   8.972 -0.8629  0.1329 -1.4031
   13CHL1   C21  940   3.290   6.310   8.987  0.1184 -0.5702  0.6625
   13CHL1  H21A  941   3.305   6.218   9.046 -0.6594 -1.2633 -0.2112
   13CHL1  H21B  942   3.355   6.392   9.025 -2.1492  1.8658 -0.5685
   13CHL1  H21C  943   3.329   6.275   8.889 -0.6350 -1.1211  0.5565
   13CHL1   C22  944   3.109   6.421   8.843 -0.2331  0.4195 -0.4892
   13CHL1  H22A  945   3.009   6.468   8.838 -0.8185 -0.8186 -0.6818
   13CHL1  H22B  946   3.180   6.507   8.843 -0.1521  0.3538 -0.9700
   13CHL1   C23  947   3.126   6.335   8.723  0.9100  0.0665  0.1029
   13CHL1  H23A  948   3.231   6.300   8.714  1.1336  0.3140  1.5318
   13CHL1  H23B  949   3.077   6.235   8.726 -1.3799  1.1152 -0.5864
   13CHL1   C24  950   3.081   6.395   8.591  0.0890 -0.0251 -0.5113
   13CHL1  H24A  951   2.981   6.440   8.607  0.4515  0.5006  0.3124
   13CHL1  H24B  952   3.158   6.467   8.556 -1.5590  1.2415 -1.6057
   13CHL1   C25  953   3.047   6.306   8.473 -0.2509  0.5976  0.2164
   13CHL1   H25  954   2.962   6.244   8.510 -1.1528  1.8086  0.2085
   13CHL1   C26  955   3.002   6.381   8.348  0.3201  0.4412 -0.5626
   13CHL1  H26A  956   3.093   6.395   8.285  0.2592 -0.0553 -0.7614
   13CHL1  H26B  957   2.936   6.315   8.287 -1.8026  2.7565 -0.8395
   13CHL1  H26C  958   2.950   6.475   8.376  1.5126  0.5862  1.2560
   13CHL1   C27  959   3.154   6.203   8.433 -0.0392 -0.0325 -0.0222
   13CHL1  H27A  960   3.259   6.241   8.437 -0.2849  0.5502  1.3095
   13CHL1  H27B  961   3.165   6.121   8.507  1.8998 -1.5105 -1.8858
   13CHL1  H27C  962   3.127   6.141   8.345  1.9374 -0.9596 -0.0084
   14CHL1    C3  963   2.453   3.000  10.206  0.5961  0.1359  0.4179
   14CHL1    H3  964   2.480   3.108  10.200 -1.2348  0.5046 -1.8221
   14CHL1    O3  965   2.417   2.972  10.341  0.2561  0.4513  0.3549
   14CHL1   H3'  966   2.339   3.027  10.352 -1.2355 -1.9406  2.1407
   14CHL1    C4  967   2.333   2.962  10.110  0.3213  0.7444  0.5557
   14CHL1   H4A  968   2.303   2.861  10.146 -1.4578  0.3683 -1.8341
   14CHL1   H4B  969   2.248   3.029  10.135 -0.2782 -1.0097  3.4134
   14CHL1    C5  970   2.359   2.944   9.962  0.0661  0.3752  0.2333
   14CHL1    C6  971   2.288   3.013   9.877  0.2622  0.1957  0.6777
   14CHL1    H6  972   2.201   3.064   9.920  0.5003 -0.6131  2.1530
   14CHL1    C7  973   2.315   3.031   9.728 -0.3831  0.3416  0.5107
   14CHL1   H7A  974   2.223   3.006   9.670  0.1783  0.4818 -0.4591
   14CHL1   H7B  975   2.352   3.134   9.708 -1.3234  0.6957  0.5799
   14CHL1    C8  976   2.423   2.929   9.683 -0.4082 -0.8502 -0.2172
   14CHL1    H8  977   2.385   2.825   9.674 -0.4957 -0.8566  0.2206
   14CHL1   C14  978   2.477   2.975   9.548  0.1181  0.2520  0.0680
   14CHL1   H14  979   2.535   3.066   9.577  1.0459 -0.3127  0.0106
   14CHL1   C15  980   2.374   3.020   9.434 -0.0410 -0.1109  0.4416
   14CHL1  H15A  981   2.291   2.947   9.439  2.0072 -2.6599 -1.5975
   14CHL1  H15B  982   2.332   3.119   9.465  2.2126  0.1515  2.8487
   14CHL1   C16  983   2.448   3.002   9.306 -0.2346 -0.0703 -0.4490
   14CHL1  H16A  984   2.413   2.920   9.240  0.7645 -0.3377 -0.6590
   14CHL1  H16B  985   2.458   3.095   9.247  0.2566 -0.4436 -0.9559
   14CHL1   C17  986   2.597   2.971   9.351 -0.4608  0.8914  0.2493
   14CHL1   H17  987   2.649   3.065   9.380 -0.4292  0.7771  0.5720
   14CHL1   C13  988   2.584   2.886   9.481 -0.0606  0.8739 -0.5115
   14CHL1   C18  989   2.543   2.742   9.451 -0.5207 -0.0057 -0.3292
   14CHL1  H18A  990   2.506   2.689   9.541  0.7667 -0.2057  0.1029
   14CHL1  H18B  991   2.452   2.745   9.388 -1.1792 -1.1697  0.5462
   14CHL1  H18C  992   2.620   2.683   9.396 -0.8632  0.2796 -1.1202
   14CHL1   C12  993   2.698   2.897   9.583 -0.0942 -0.2667 -0.0942
   14CHL1  H12A  994   2.777   2.835   9.536 -0.8912 -1.8144  0.5565
   14CHL1  H12B  995   2.730   3.003   9.593 -0.1461 -0.1305 -1.3145
   14CHL1   C11  996   2.665   2.851   9.723  0.5043 -0.2379  0.0393
   14CHL1  H11A  997   2.652   2.741   9.720 -1.5855  0.0150 -1.9786
   14CHL1  H11B  998   2.744   2.875   9.798 -1.8473  1.9669  1.9188
   14CHL1    C9  999   2.539   2.926   9.781  0.0669  0.5262  0.3298
   14CHL1    H9 1000   2.573   3.030   9.800  1.0317  0.0192  1.4145
   14CHL1   C10 1001   2.497   2.881   9.929  0.2975  0.2591 -0.0739
   14CHL1   C19 1002   2.483   2.722   9.935  0.3251  1.1134  0.1573
   14CHL1  H19A 1003   2.582   2.675   9.912  0.7008  1.2760  1.4141
   14CHL1  H19B 1004   2.444   2.681  10.030 -0.1473  0.5131 -0.2910
   14CHL1  H19C 1005   2.410   2.686   9.860  1.4919 -0.3174 -0.3199
   14CHL1    C1 1006   2.609   2.924  10.025 -0.1217  0.0874 -0.0494
   14CHL1   H1A 1007   2.699   2.859  10.020  0.4198  0.7558  0.8790
   14CHL1   H1B 1008   2.642   3.028  10.004  1.7777 -0.4878  0.0713
   14CHL1    C2 1009   2.581   2.913  10.169  0.8246  0.6216  0.0521
   14CHL1   H2A 1010   2.672   2.955  10.217  0.0657  1.7124  0.5659
   14CHL1   H2B 1011   2.559   2.808  10.197  1.2355 -0.3201 -2.9580
   14CHL1   C20 1012   2.672   2.926   9.226 -0.6024 -0.1623 -0.6703
   14CHL1   H20 1013   2.627   2.835   9.183 -2.0330  0.0487  0.3433
   14CHL1   C21 1014   2.820   2.901   9.258  0.0824  0.5582  1.4083
   14CHL1  H21A 1015   2.860   2.987   9.316 -1.4790  0.1648  3.1012
   14CHL1  H21B 1016   2.878   2.901   9.163 -1.5474  2.2151  0.3948
   14CHL1  H21C 1017   2.835   2.810   9.320  1.4586  1.2360  2.0937
   14CHL1   C22 1018   2.668   3.026   9.104  0.5059  0.7556  0.0841
   14CHL1  H22A 1019   2.571   3.080   9.101  0.0876 -0.0419 -1.4637
   14CHL1  H22B 1020   2.745   3.105   9.114 -0.3614  1.7715 -1.0877
   14CHL1   C23 1021   2.696   2.956   8.968 -0.2025 -0.6567 -0.2773
   14CHL1  H23A 1022   2.803   2.926   8.959  0.8811  2.4876  1.2007
   14CHL1  H23B 1023   2.638   2.862   8.967 -2.2639  0.5485  1.0266
   14CHL1   C24 1024   2.661   3.060   8.859  0.1539 -0.2462 -0.5082
   14CHL1  H24A 1025   2.556   3.093   8.874  0.4999  0.1348  1.1440
   14CHL1  H24B 1026   2.719   3.154   8.859 -0.2632  0.0168 -1.1606
   14CHL1   C25 1027   2.691   3.001   8.723  0.3480 -0.6256 -0.3339
   14CHL1   H25 1028   2.802   2.998   8.722  0.4437  2.0537  0.0543
   14CHL1   C26 1029   2.642   2.854   8.694  0.0750  0.4329  0.0311
   14CHL1  H26A 1030   2.695   2.790   8.768  1.4709  1.7064  0.1729
   14CHL1  H26B 1031   2.533   2.861   8.715 -0.1610 -1.5535 -0.4280
   14CHL1  H26C 1032   2.649   2.825   8.587  2.8589  1.3916 -0.0812
   14CHL1   C27 1033   2.628   3.088   8.618  0.1418 -0.1555 -0.2043
   14CHL1  H27A 1034   2.670   3.053   8.522  0.3463 -0.6275  0.0558
   14CHL1  H27B 1035   2.517   3.087   8.615  0.0740  1.7981  0.7122
   14CHL1  H27C 1036   2.661   3.193   8.632 -1.6663  0.4078 -0.0427
   15CHL1    C3 1037   3.145   1.635  10.121  0.0508  0.3026  0.1022
   15CHL1    H3 1038   3.078   1.723  10.116 -0.3625  0.1305  2.0741
   15CHL1    O3 1039   3.142   1.585  10.259  0.0123 -1.3135  0.9901
   15CHL1   H3' 1040   3.051   1.560  10.276 -1.0030  1.3765 -0.2896
   15CHL1    C4 1041   3.101   1.519  10.023 -0.0693  0.1017  0.6608
   15CHL1   H4A 1042   3.150   1.429  10.064 -0.7776  0.1494  1.6422
   15CHL1   H4B 1043   2.990   1.518  10.034 -0.1150  1.7586  0.5068
   15CHL1    C5 1044   3.141   1.551   9.880 -0.0316 -0.8406  0.3679
   15CHL1    C6 1045   3.047   1.550   9.785 -0.2218  0.7417  0.4309
   15CHL1    H6 1046   2.942   1.533   9.812  0.1766 -2.8536 -0.1186
   15CHL1    C7 1047   3.073   1.579   9.643  0.0114 -0.0046  0.6014
   15CHL1   H7A 1048   3.017   1.510   9.575  1.7486 -0.4283 -0.4149
   15CHL1   H7B 1049   3.052   1.684   9.616 -1.2228  0.0182  1.6023
   15CHL1    C8 1050   3.226   1.552   9.606  0.0885 -0.3977 -0.5854
   15CHL1    H8 1051   3.256   1.446   9.601  3.1982  0.3387  0.9460
   15CHL1   C14 1052   3.248   1.606   9.468 -1.0997  0.0311  0.5700
   15CHL1   H14 1053   3.229   1.716   9.469  0.3751  0.3113 -0.1159
   15CHL1   C15 1054   3.172   1.554   9.345  0.8881  0.2580  0.2515
   15CHL1  H15A 1055   3.185   1.444   9.353 -2.0299 -0.1263  0.3758
   15CHL1  H15B 1056   3.064   1.579   9.360  0.9003  1.0251 -0.8957
   15CHL1   C16 1057   3.245   1.618   9.226  0.5545  0.6325  0.3942
   15CHL1  H16A 1058   3.266   1.535   9.155 -0.7001 -1.0685  1.9613
   15CHL1  H16B 1059   3.185   1.694   9.173 -0.1196 -1.0398 -1.3101
   15CHL1   C17 1060   3.378   1.678   9.276  0.3006  0.1252 -0.0622
   15CHL1   H17 1061   3.353   1.785   9.291  0.7172  0.0183  1.4268
   15CHL1   C13 1062   3.393   1.610   9.420  0.7591  0.2206  0.5246
   15CHL1   C18 1063   3.453   1.468   9.406 -0.5976 -0.3437 -0.2411
   15CHL1  H18A 1064   3.417   1.412   9.317 -0.7078  0.9769 -1.0536
   15CHL1  H18B 1065   3.563   1.479   9.394 -0.3142  0.8362  3.0162
   15CHL1  H18C 1066   3.416   1.395   9.481 -1.2006  1.5050  1.2925
   15CHL1   C12 1067   3.476   1.695   9.518  0.5093  0.1182  0.6869
   15CHL1  H12A 1068   3.585   1.681   9.505  0.5689  0.5795  0.6951
   15CHL1  H12B 1069   3.444   1.801   9.506  1.4985  0.6283  2.3953
   15CHL1   C11 1070   3.457   1.652   9.668 -0.0018 -0.4047  0.2593
   15CHL1  H11A 1071   3.510   1.555   9.676 -1.1739 -1.1176 -0.4953
   15CHL1  H11B 1072   3.511   1.734   9.720  2.4088  0.6398 -3.6809
   15CHL1    C9 1073   3.308   1.637   9.711 -1.1706  0.3911 -0.0142
   15CHL1    H9 1074   3.257   1.736   9.711 -4.0427 -0.9472  3.7474
   15CHL1   C10 1075   3.285   1.588   9.859  0.6499 -0.0988  0.3932
   15CHL1   C19 1076   3.382   1.468   9.891 -0.9380 -0.1234  0.2721
   15CHL1  H19A 1077   3.385   1.393   9.809 -0.5340 -0.8179  0.9188
   15CHL1  H19B 1078   3.489   1.495   9.908 -0.6043  0.6063 -2.6558
   15CHL1  H19C 1079   3.348   1.411   9.979 -1.2845  0.2393  0.3742
   15CHL1    C1 1080   3.319   1.704   9.952 -0.2026 -0.0148  0.5327
   15CHL1   H1A 1081   3.426   1.732   9.940 -0.6454  1.1010 -0.8535
   15CHL1   H1B 1082   3.253   1.787   9.919 -1.3739 -0.3593  1.9959
   15CHL1    C2 1083   3.299   1.676  10.101  0.3715 -0.0389 -0.2832
   15CHL1   H2A 1084   3.316   1.767  10.162  0.0092  1.5374 -2.4942
   15CHL1   H2B 1085   3.366   1.598  10.143  3.0288  0.9798 -2.5003
   15CHL1   C20 1086   3.490   1.666   9.176  0.0097 -0.1961  0.1345
   15CHL1   H20 1087   3.538   1.566   9.188 -0.1436  0.0602  3.2955
   15CHL1   C21 1088   3.607   1.762   9.218  0.2817 -0.4968  0.4216
   15CHL1  H21A 1089   3.644   1.738   9.320 -2.9363  0.8298  1.9654
   15CHL1  H21B 1090   3.584   1.869   9.201 -0.7335 -0.6086  1.0411
   15CHL1  H21C 1091   3.699   1.741   9.160 -0.3330 -3.0164  0.3110
   15CHL1   C22 1092   3.453   1.690   9.035 -0.4571 -1.0491  0.4381
   15CHL1  H22A 1093   3.365   1.634   8.995 -1.8586  0.1919  1.6947
   15CHL1  H22B 1094   3.405   1.790   9.028 -0.7902 -1.2515 -0.2251
   15CHL1   C23 1095   3.561   1.675   8.936  0.4037  0.2589 -0.1210
   15CHL1  H23A 1096   3.623   1.767   8.932 -1.5891  1.8348  3.1764
   15CHL1  H23B 1097   3.637   1.599   8.965 -0.6007 -0.0488  1.7886
   15CHL1   C24 1098   3.512   1.653   8.792 -0.3263  0.2160  0.4709
   15CHL1  H24A 1099   3.425   1.584   8.783  0.1181 -0.4177  1.0091
   15CHL1  H24B 1100   3.483   1.757   8.763  2.4711  2.2014  4.3563
   15CHL1   C25 1101   3.621   1.612   8.694  0.3454  0.2397  0.0010
   15CHL1   H25 1102   3.699   1.690   8.704  2.0555 -1.6558  2.1192
   15CHL1   C26 1103   3.686   1.479   8.722 -1.0557 -0.3064  0.2960
   15CHL1  H26A 1104   3.725   1.458   8.824  0.7543  2.0122  0.1356
   15CHL1  H26B 1105   3.617   1.394   8.704  0.3261 -0.8113 -2.9226
   15CHL1  H26C 1106   3.779   1.455   8.666 -2.1857 -2.9435 -0.4986
   15CHL1   C27 1107   3.565   1.628   8.550 -0.7334  0.6511 -0.0984
   15CHL1  H27A 1108   3.641   1.609   8.471 -1.7679  2.7225 -1.6558
   15CHL1  H27B 1109   3.485   1.551   8.543 -0.8706  0.8837 -1.2972
   15CHL1  H27C 1110   3.517   1.725   8.526 -2.6406 -0.3778 -0.5877
   16CHL1    C3 1111   3.587   2.504  10.083 -0.1807  0.3544 -0.2435
   16CHL1    H3 1112   3.609   2.397  10.066 -1.1823 -0.0168  0.7384
   16CHL1    O3 1113   3.596   2.515  10.223  0.2167  0.3731  0.0297
   16CHL1   H3' 1114   3.509   2.480  10.247  1.6078 -0.9557  3.4875
   16CHL1    C4 1115   3.702   2.578  10.008 -0.1769 -0.5594  0.2257
   16CHL1   H4A 1116   3.681   2.680  10.049 -2.3238 -1.3183  1.1019
   16CHL1   H4B 1117   3.801   2.556  10.053 -0.6715 -3.3146  0.0065
   16CHL1    C5 1118   3.696   2.578   9.856 -0.0826  0.0399 -0.1644
   16CHL1    C6 1119   3.796   2.513   9.787 -0.7502 -1.0593  0.5127
   16CHL1    H6 1120   3.878   2.462   9.839 -2.0216 -1.4124  2.2240
   16CHL1    C7 1121   3.791   2.501   9.641 -0.3292  0.0478 -0.4849
   16CHL1   H7A 1122   3.889   2.530   9.598  0.2945 -0.0676  0.8115
   16CHL1   H7B 1123   3.772   2.396   9.612 -1.6772  0.0658  0.2727
   16CHL1    C8 1124   3.679   2.589   9.574 -0.6954  1.1032 -0.1752
   16CHL1    H8 1125   3.711   2.696   9.578 -0.4723  1.0783 -1.1284
   16CHL1   C14 1126   3.656   2.538   9.429  0.2888  0.0991  0.4471
   16CHL1   H14 1127   3.623   2.433   9.441 -1.2096  0.4807 -0.1761
   16CHL1   C15 1128   3.771   2.528   9.329 -0.3851 -0.3246 -0.3850
   16CHL1  H15A 1129   3.855   2.600   9.343 -0.0602 -0.8343  0.2646
   16CHL1  H15B 1130   3.832   2.437   9.342  1.1507  0.6707 -0.4852
   16CHL1   C16 1131   3.706   2.535   9.192  0.0739  0.0973  0.8257
   16CHL1  H16A 1132   3.742   2.631   9.148 -2.5667  0.4116 -0.7634
   16CHL1  H16B 1133   3.729   2.454   9.120  0.0633 -0.5332  1.5221
   16CHL1   C17 1134   3.551   2.547   9.214  0.4917 -0.8174 -0.2009
   16CHL1   H17 1135   3.515   2.441   9.214  2.4052 -1.4825  0.6535
   16CHL1   C13 1136   3.544   2.606   9.357  0.3859 -0.0630  0.7330
   16CHL1   C18 1137   3.585   2.761   9.348 -0.3158  0.3160  0.6470
   16CHL1  H18A 1138   3.522   2.823   9.282  3.2491  0.0285 -3.2415
   16CHL1  H18B 1139   3.567   2.804   9.449 -2.2412 -2.3054  1.4778
   16CHL1  H18C 1140   3.692   2.759   9.317  0.1141  1.2272  2.0049
   16CHL1   C12 1141   3.409   2.594   9.431 -0.2773  0.0383 -0.0263
   16CHL1  H12A 1142   3.328   2.649   9.377 -1.1092 -3.0741 -2.0867
   16CHL1  H12B 1143   3.381   2.487   9.425 -0.5067  0.0460  0.8839
   16CHL1   C11 1144   3.422   2.635   9.582 -0.5851  0.3639  0.0006
   16CHL1  H11A 1145   3.417   2.745   9.573  0.1392  0.3755 -0.3330
   16CHL1  H11B 1146   3.330   2.593   9.627 -1.3352  0.1969 -1.6448
   16CHL1    C9 1147   3.543   2.584   9.651 -0.5524  0.8179 -0.2651
   16CHL1    H9 1148   3.523   2.475   9.654 -2.0276  1.0965  1.0251
   16CHL1   C10 1149   3.566   2.629   9.796  0.4253  0.2216  0.7739
   16CHL1   C19 1150   3.564   2.779   9.802 -0.3554  0.5770  0.4581
   16CHL1  H19A 1151   3.643   2.831   9.742 -0.1391  2.1273  2.0533
   16CHL1  H19B 1152   3.474   2.817   9.749 -1.6974 -1.8950  0.9168
   16CHL1  H19C 1153   3.567   2.816   9.906 -3.7639  0.5515  0.6090
   16CHL1    C1 1154   3.451   2.555   9.877 -0.5739 -0.3138  0.1307
   16CHL1   H1A 1155   3.356   2.606   9.851 -0.9352 -0.5259  1.0217
   16CHL1   H1B 1156   3.446   2.447   9.853  1.6746 -0.2704 -0.6870
   16CHL1    C2 1157   3.452   2.564  10.029  0.1046 -0.5888 -0.2785
   16CHL1   H2A 1158   3.364   2.511  10.070 -0.6000 -0.3912 -1.5452
   16CHL1   H2B 1159   3.448   2.673  10.049 -0.6086 -0.3754 -1.5460
   16CHL1   C20 1160   3.483   2.620   9.093 -0.6113 -0.2507  0.5682
   16CHL1   H20 1161   3.540   2.715   9.093  0.8038 -1.0686  1.3820
   16CHL1   C21 1162   3.333   2.640   9.111 -0.0907  0.1328 -0.1202
   16CHL1  H21A 1163   3.296   2.677   9.013 -2.0005  1.0710  0.9311
   16CHL1  H21B 1164   3.311   2.721   9.183  0.7118 -1.2434  1.7139
   16CHL1  H21C 1165   3.273   2.548   9.126 -1.0777  0.8368  0.2719
   16CHL1   C22 1166   3.504   2.532   8.964  0.5078  0.2485  0.2464
   16CHL1  H22A 1167   3.613   2.522   8.944 -0.0951 -0.4364 -3.0556
   16CHL1  H22B 1168   3.465   2.428   8.974 -0.6609  0.8413  2.0705
   16CHL1   C23 1169   3.459   2.595   8.833  0.7620 -0.1161 -0.0644
   16CHL1  H23A 1170   3.485   2.523   8.752  0.7324  1.1621 -1.2299
   16CHL1  H23B 1171   3.348   2.608   8.827  0.6660  0.0612  1.7611
   16CHL1   C24 1172   3.520   2.736   8.804 -0.1115  0.6033  0.9189
   16CHL1  H24A 1173   3.483   2.805   8.883  0.4224 -0.1088  1.7983
   16CHL1  H24B 1174   3.630   2.738   8.820 -0.3445 -0.3764  2.8439
   16CHL1   C25 1175   3.489   2.793   8.664  0.7961 -0.2704 -0.0419
   16CHL1   H25 1176   3.490   2.709   8.591 -2.1667 -1.2413  0.9551
   16CHL1   C26 1177   3.342   2.837   8.653  0.6927 -0.7372  1.1011
   16CHL1  H26A 1178   3.318   2.882   8.554 -2.3870  0.5476  2.3829
   16CHL1  H26B 1179   3.272   2.753   8.669 -0.5039  0.1192  0.4517
   16CHL1  H26C 1180   3.324   2.918   8.726 -0.2716  0.2976 -0.2676
   16CHL1   C27 1181   3.585   2.909   8.635 -0.3520 -0.1487 -0.3419
   16CHL1  H27A 1182   3.577   2.940   8.529 -0.7016 -0.3591 -0.3783
   16CHL1  H27B 1183   3.559   2.993   8.702 -1.5580 -1.8533  1.3940
   16CHL1  H27C 1184   3.690   2.878   8.654 -0.2672 -0.8894 -1.9360
   17CHL1    C3 1185   6.413   5.579  10.395 -0.6636  0.6806  0.2984
   17CHL1    H3 1186   6.476   5.664  10.428  1.9381 -1.4015  0.8951
   17CHL1    O3 1187   6.395   5.505  10.514  0.2606  0.0235 -0.2963
   17CHL1   H3' 1188   6.346   5.425  10.490 -1.5721  0.8871  0.4262
   17CHL1    C4 1189   6.278   5.612  10.330  0.4743 -0.0474 -0.4538
   17CHL1   H4A 1190   6.224   5.520  10.300 -0.0028  0.6555 -1.8309
   17CHL1   H4B 1191   6.221   5.672  10.404 -1.8869 -4.0076  1.0590
   17CHL1    C5 1192   6.300   5.684  10.197 -0.0242  0.6755  0.4947
   17CHL1    C6 1193   6.262   5.808  10.173  0.3064 -1.1084  0.3055
   17CHL1    H6 1194   6.216   5.869  10.252  1.5075 -1.5013  1.3240
   17CHL1    C7 1195   6.289   5.881  10.046  0.0222  0.7965  0.4205
   17CHL1   H7A 1196   6.189   5.916  10.010 -0.1807  0.3017  0.4941
   17CHL1   H7B 1197   6.362   5.962  10.067  0.9045  0.5706 -1.6519
   17CHL1    C8 1198   6.341   5.797   9.932  0.2678  0.0886  0.5039
   17CHL1    H8 1199   6.254   5.746   9.884  1.2461 -0.9522 -0.2072
   17CHL1   C14 1200   6.398   5.886   9.823  0.5101 -0.0506 -0.5407
   17CHL1   H14 1201   6.491   5.923   9.871  0.7046  0.7051 -1.4978
   17CHL1   C15 1202   6.322   6.007   9.773 -0.3009  0.3314 -0.4050
   17CHL1  H15A 1203   6.219   5.969   9.755 -0.0467 -0.7804  0.4289
   17CHL1  H15B 1204   6.318   6.087   9.849  0.4440 -0.2346  0.2440
   17CHL1   C16 1205   6.398   6.041   9.646  0.1204  0.4608 -0.3790
   17CHL1  H16A 1206   6.316   6.053   9.572 -0.2018 -1.0550 -0.2731
   17CHL1  H16B 1207   6.444   6.142   9.654  2.1595 -0.4729 -0.2053
   17CHL1   C17 1208   6.498   5.922   9.608 -0.1867 -0.1818  0.7044
   17CHL1   H17 1209   6.591   5.951   9.662  1.2832 -1.3219 -1.1246
   17CHL1   C13 1210   6.446   5.807   9.697  0.5587 -0.5029 -0.4599
   17CHL1   C18 1211   6.327   5.740   9.626  0.0471 -1.0443 -0.4602
   17CHL1  H18A 1212   6.363   5.684   9.537 -2.3025 -2.6821 -0.4276
   17CHL1  H18B 1213   6.275   5.663   9.686 -0.2607  0.6225  1.4594
   17CHL1  H18C 1214   6.252   5.817   9.600  2.3801  1.9393  1.2562
   17CHL1   C12 1215   6.555   5.717   9.749  0.2298  0.1001 -0.5539
   17CHL1  H12A 1216   6.593   5.658   9.663  3.1449 -1.1639  1.5008
   17CHL1  H12B 1217   6.641   5.776   9.788  1.2929 -0.8276 -1.4734
   17CHL1   C11 1218   6.499   5.622   9.861 -0.3879 -0.7883 -0.2937
   17CHL1  H11A 1219   6.428   5.550   9.817  2.5373 -4.5973  0.9293
   17CHL1  H11B 1220   6.583   5.557   9.895  1.2022  0.1737 -2.2479
   17CHL1    C9 1221   6.445   5.696   9.985  0.9068  0.1786 -0.5818
   17CHL1    H9 1222   6.528   5.760  10.022  0.5436  0.3513 -0.0583
   17CHL1   C10 1223   6.399   5.610  10.104 -0.3520  0.1851 -0.3464
   17CHL1   C19 1224   6.330   5.480  10.047 -0.4277 -0.0317  0.2720
   17CHL1  H19A 1225   6.411   5.420  10.001 -0.1455  0.1005  0.5931
   17CHL1  H19B 1226   6.281   5.416  10.123 -0.4302 -0.3330  0.0185
   17CHL1  H19C 1227   6.256   5.505   9.968  0.3799 -0.2652 -0.5615
   17CHL1    C1 1228   6.535   5.565  10.176  0.4717 -0.1169  0.9507
   17CHL1   H1A 1229   6.601   5.506  10.109  0.7576 -1.5480  2.4393
   17CHL1   H1B 1230   6.593   5.658  10.194 -0.6547  0.7296  0.2162
   17CHL1    C2 1231   6.509   5.490  10.311  0.7419  0.0975 -0.5343
   17CHL1   H2A 1232   6.612   5.487  10.351  0.0313 -3.4772  1.1737
   17CHL1   H2B 1233   6.470   5.388  10.291  2.8466 -1.4310  2.8076
   17CHL1   C20 1234   6.523   5.902   9.455 -0.0465  0.4429 -0.1828
   17CHL1   H20 1235   6.434   5.860   9.405 -0.4668 -0.0544  0.9653
   17CHL1   C21 1236   6.638   5.802   9.432 -0.3125  0.0330 -0.2306
   17CHL1  H21A 1237   6.604   5.698   9.450 -1.1052  0.3553  0.1821
   17CHL1  H21B 1238   6.729   5.819   9.494 -0.6041 -2.4839  0.9536
   17CHL1  H21C 1239   6.676   5.810   9.328  0.9735 -2.2864  0.0197
   17CHL1   C22 1240   6.563   6.035   9.393  0.0263 -0.2778  0.7219
   17CHL1  H22A 1241   6.532   6.131   9.439 -0.7887 -0.4286  0.4997
   17CHL1  H22B 1242   6.673   6.028   9.378  0.0669  2.8501 -1.0735
   17CHL1   C23 1243   6.505   6.037   9.252 -0.0595 -0.1760  0.9839
   17CHL1  H23A 1244   6.554   5.957   9.193 -1.9292  0.9752 -2.2668
   17CHL1  H23B 1245   6.397   6.010   9.250 -0.1250  0.0943 -1.7521
   17CHL1   C24 1246   6.529   6.178   9.191  0.1657  0.1443  0.6158
   17CHL1  H24A 1247   6.453   6.248   9.232 -0.5156 -0.1021 -0.1905
   17CHL1  H24B 1248   6.633   6.204   9.218  0.7748  0.6414 -2.1061
   17CHL1   C25 1249   6.520   6.186   9.034  0.2581  0.0755 -0.9557
   17CHL1   H25 1250   6.578   6.097   9.003  0.9880 -0.7471  2.6040
   17CHL1   C26 1251   6.369   6.178   8.982  0.4353  0.4879  0.0564
   17CHL1  H26A 1252   6.375   6.172   8.871 -0.5702  1.7166 -0.0670
   17CHL1  H26B 1253   6.310   6.098   9.031  0.8876  0.9966  1.4759
   17CHL1  H26C 1254   6.332   6.280   9.003  0.1788  0.5924 -0.9059
   17CHL1   C27 1255   6.596   6.310   8.981  0.6635  0.0331 -0.1905
   17CHL1  H27A 1256   6.554   6.397   9.036 -0.5267 -1.0400  0.6352
   17CHL1  H27B 1257   6.704   6.311   9.005  0.3573  1.9838  1.2502
   17CHL1  H27C 1258   6.562   6.314   8.875 -4.1457  0.2353  1.2520
   18CHL1    C3 1259   5.115   4.783  10.338 -0.8789 -0.2059  0.5518
   18CHL1    H3 1260   5.020   4.761  10.284 -0.7225  0.4949 -0.0104
   18CHL1    O3 1261   5.084   4.730  10.462 -0.1431 -0.1216  0.3442
   18CHL1   H3' 1262   5.047   4.801  10.514 -1.3601  2.0747 -3.3236
   18CHL1    C4 1263   5.224   4.690  10.265 -0.3171  0.1758  0.0619
   18CHL1   H4A 1264   5.311   4.697  10.334  0.3067 -1.0702 -0.5865
   18CHL1   H4B 1265   5.180   4.587  10.264 -0.8393  0.4065 -1.1135
   18CHL1    C5 1266   5.248   4.740  10.123 -0.4586 -0.3034 -0.4805
   18CHL1    C6 1267   5.251   4.651  10.025  0.6249 -0.3320 -0.9079
   18CHL1    H6 1268   5.231   4.546  10.050  0.3312  0.0564  0.5461
   18CHL1    C7 1269   5.282   4.686   9.886 -0.5520  0.2484  0.5664
   18CHL1   H7A 1270   5.352   4.609   9.847 -2.7586 -1.9528  0.8748
   18CHL1   H7B 1271   5.194   4.657   9.825 -0.7075 -0.7478  1.2615
   18CHL1    C8 1272   5.329   4.834   9.863 -0.0527 -0.2632 -0.7733
   18CHL1    H8 1273   5.439   4.824   9.865 -0.1492 -1.1677  2.6716
   18CHL1   C14 1274   5.289   4.876   9.721  0.4655 -0.6711  0.3110
   18CHL1   H14 1275   5.179   4.891   9.723  0.8522  2.3723  2.9875
   18CHL1   C15 1276   5.318   4.781   9.607 -0.5180 -0.1073  0.0485
   18CHL1  H15A 1277   5.418   4.732   9.610 -0.0397  0.8832  0.5025
   18CHL1  H15B 1278   5.233   4.710   9.601 -0.2324 -0.3827 -0.8022
   18CHL1   C16 1279   5.302   4.876   9.483 -0.2676  0.6021  0.5729
   18CHL1  H16A 1280   5.388   4.868   9.413 -1.2379 -1.4892 -0.4420
   18CHL1  H16B 1281   5.211   4.846   9.427  1.2367  1.5790 -2.5375
   18CHL1   C17 1282   5.290   5.021   9.535  0.6615 -0.3889 -0.5061
   18CHL1   H17 1283   5.181   5.045   9.538  0.6920 -0.2602 -0.4196
   18CHL1   C13 1284   5.336   5.013   9.681 -0.5517 -0.5116  0.0341
   18CHL1   C18 1285   5.491   5.026   9.684  0.7204  0.1416  0.0769
   18CHL1  H18A 1286   5.530   5.000   9.785  1.3799  0.0157 -0.2038
   18CHL1  H18B 1287   5.543   4.958   9.614  2.1179 -0.1963  1.3985
   18CHL1  H18C 1288   5.520   5.133   9.670 -2.0773  1.3628  2.9641
   18CHL1   C12 1289   5.263   5.113   9.782 -0.4213  0.3620  0.5329
   18CHL1  H12A 1290   5.288   5.219   9.757 -0.2686  0.0959 -0.4457
   18CHL1  H12B 1291   5.154   5.102   9.761 -0.5840  0.7200  1.1651
   18CHL1   C11 1292   5.306   5.082   9.934 -0.1701  0.4655 -0.1032
   18CHL1  H11A 1293   5.412   5.113   9.941 -0.3695  1.0299  0.4996
   18CHL1  H11B 1294   5.260   5.158  10.001 -1.8634 -1.1004  0.5577
   18CHL1    C9 1295   5.274   4.935   9.965  0.0053  0.2512 -0.1255
   18CHL1    H9 1296   5.165   4.936   9.945  0.3749  2.7334 -2.2460
   18CHL1   C10 1297   5.287   4.892  10.111  0.3098 -0.3653 -0.2772
   18CHL1   C19 1298   5.437   4.900  10.154  0.9277 -0.0047  0.1108
   18CHL1  H19A 1299   5.452   4.871  10.261 -0.0107 -1.1835 -0.0710
   18CHL1  H19B 1300   5.499   4.827  10.099 -1.1006 -0.7993 -1.1704
   18CHL1  H19C 1301   5.477   5.001  10.135  0.8527 -0.4355 -2.4088
   18CHL1    C1 1302   5.183   4.976  10.194  0.3310 -0.0266  0.2993
   18CHL1   H1A 1303   5.215   5.082  10.193  0.8560 -0.1880 -1.2496
   18CHL1   H1B 1304   5.083   4.976  10.146  0.7131 -1.4585 -0.5229
   18CHL1    C2 1305   5.151   4.931  10.334 -0.0909  0.0061  0.0933
   18CHL1   H2A 1306   5.061   4.986  10.368  0.8027 -0.1176  2.7507
   18CHL1   H2B 1307   5.236   4.957  10.401  0.7296  0.1267 -0.9945
   18CHL1   C20 1308   5.348   5.125   9.440 -0.4186  0.0622 -0.0671
   18CHL1   H20 1309   5.457   5.102   9.429 -1.0108 -2.5310 -0.7892
   18CHL1   C21 1310   5.334   5.268   9.498 -0.3428  0.3582 -0.2709
   18CHL1  H21A 1311   5.398   5.277   9.588 -0.1701  0.4011 -0.3978
   18CHL1  H21B 1312   5.239   5.277   9.554  1.0856 -2.2929  2.7290
   18CHL1  H21C 1313   5.355   5.344   9.420  2.7576 -0.2616 -0.1013
   18CHL1   C22 1314   5.299   5.118   9.291  0.0065 -0.6191 -0.5873
   18CHL1  H22A 1315   5.360   5.178   9.220 -1.0541  1.1112 -0.0664
   18CHL1  H22B 1316   5.298   5.012   9.258 -1.1772  0.3277 -3.7843
   18CHL1   C23 1317   5.159   5.178   9.273 -0.1994  0.0440 -0.1974
   18CHL1  H23A 1318   5.103   5.125   9.352  0.6796 -2.6068 -1.2703
   18CHL1  H23B 1319   5.168   5.283   9.308 -1.0221  0.1312 -0.2425
   18CHL1   C24 1320   5.089   5.175   9.144  0.4222 -0.6512 -0.3478
   18CHL1  H24A 1321   4.993   5.232   9.140  0.0191 -1.2081  1.1569
   18CHL1  H24B 1322   5.153   5.219   9.064  0.8505 -0.7702 -0.0702
   18CHL1   C25 1323   5.070   5.032   9.084  0.1377  0.6037 -0.0209
   18CHL1   H25 1324   5.171   4.986   9.079  0.0927  0.5397 -0.3389
   18CHL1   C26 1325   4.984   4.952   9.180  0.0399 -0.1232  0.0448
   18CHL1  H26A 1326   5.029   4.951   9.281 -3.5078  1.2659  1.7306
   18CHL1  H26B 1327   4.876   4.977   9.170 -0.0597 -0.6897 -0.3351
   18CHL1  H26C 1328   4.981   4.844   9.154  0.8622 -0.3121  0.7382
   18CHL1   C27 1329   5.015   5.037   8.942 -0.6472 -0.9722 -0.2500
   18CHL1  H27A 1330   5.097   5.055   8.869 -1.7457  2.1661 -0.7984
   18CHL1  H27B 1331   4.964   4.945   8.907 -1.1874 -0.8480  0.2080
   18CHL1  H27C 1332   4.943   5.121   8.933  2.0413  1.8893  3.4904
   19CHL1    C3 1333   2.591   1.138  10.046 -0.2863 -0.6495 -0.2107
   19CHL1    H3 1334   2.520   1.053  10.034 -2.4152  1.1232 -0.4148
   19CHL1    O3 1335   2.633   1.147  10.176  0.3516 -0.0807 -0.5612
   19CHL1   H3' 1336   2.557   1.109  10.220  1.5182 -1.9196 -0.0470
   19CHL1    C4 1337   2.723   1.099   9.967  0.2905  0.2192  0.9363
   19CHL1   H4A 1338   2.802   1.173   9.990  0.6517 -0.2322  1.1632
   19CHL1   H4B 1339   2.771   1.005  10.001  1.2115 -0.1417 -1.2745
   19CHL1    C5 1340   2.687   1.098   9.817 -0.1893  0.8348 -0.3201
   19CHL1    C6 1341   2.684   0.980   9.748  0.0677  0.2214 -1.0343
   19CHL1    H6 1342   2.703   0.887   9.805 -0.6506  0.2501 -0.7439
   19CHL1    C7 1343   2.646   0.957   9.607  0.2268 -0.0146 -0.1210
   19CHL1   H7A 1344   2.721   0.901   9.548  0.0570 -1.1681  0.7491
   19CHL1   H7B 1345   2.545   0.910   9.604  0.2366 -0.0886  0.6605
   19CHL1    C8 1346   2.643   1.091   9.534 -0.2953 -0.4261 -0.5307
   19CHL1    H8 1347   2.744   1.134   9.518  0.0914 -1.1435 -0.0849
   19CHL1   C14 1348   2.584   1.066   9.401 -0.2730  0.3648 -0.1133
   19CHL1   H14 1349   2.480   1.035   9.422  0.0979 -1.2120 -0.5832
   19CHL1   C15 1350   2.651   0.956   9.313  0.2423  0.2480 -0.6785
   19CHL1  H15A 1351   2.757   0.989   9.307  0.2453  0.1386 -1.2978
   19CHL1  H15B 1352   2.647   0.855   9.358 -2.3789  0.2869 -0.7503
   19CHL1   C16 1353   2.592   0.975   9.176 -0.6184  0.5568 -0.1865
   19CHL1  H16A 1354   2.670   0.969   9.097 -0.8798  0.8056 -0.4682
   19CHL1  H16B 1355   2.511   0.899   9.164  0.8970 -0.9158 -1.3408
   19CHL1   C17 1356   2.516   1.121   9.172 -0.4056  1.5430  0.6976
   19CHL1   H17 1357   2.407   1.105   9.191  0.0824  0.8574  3.1175
   19CHL1   C13 1358   2.568   1.189   9.305 -0.0146 -0.6684  0.1590
   19CHL1   C18 1359   2.709   1.246   9.277 -0.1847  0.2743  0.2906
   19CHL1  H18A 1360   2.780   1.245   9.363  0.9001  0.4520 -0.5908
   19CHL1  H18B 1361   2.768   1.190   9.201  0.2766  1.8912 -0.5753
   19CHL1  H18C 1362   2.706   1.348   9.233 -0.3139 -0.9687 -2.6959
   19CHL1   C12 1363   2.478   1.290   9.379  0.4736 -0.2746  0.1691
   19CHL1  H12A 1364   2.454   1.389   9.336 -0.8815 -0.3730  0.6395
   19CHL1  H12B 1365   2.382   1.234   9.389 -0.5463  1.6577  1.8783
   19CHL1   C11 1366   2.528   1.320   9.522  0.5656  0.0949 -0.0015
   19CHL1  H11A 1367   2.619   1.383   9.515  0.0598  1.0758  1.7674
   19CHL1  H11B 1368   2.447   1.375   9.575  0.1468  0.1847 -0.7279
   19CHL1    C9 1369   2.566   1.195   9.616 -0.1329  0.0526 -0.2034
   19CHL1    H9 1370   2.475   1.135   9.632 -0.1110  0.1493  0.3125
   19CHL1   C10 1371   2.629   1.225   9.755 -0.3986  0.1172  0.6992
   19CHL1   C19 1372   2.745   1.322   9.739 -0.0540  0.7711 -0.7130
   19CHL1  H19A 1373   2.781   1.353   9.839  2.0001 -1.9683 -0.5452
   19CHL1  H19B 1374   2.829   1.290   9.673  0.2012 -0.1766  0.0459
   19CHL1  H19C 1375   2.703   1.415   9.697 -0.1723  1.0692  0.0597
   19CHL1    C1 1376   2.510   1.277   9.849  0.4422  0.1330  0.1708
   19CHL1   H1A 1377   2.478   1.376   9.810  2.3912  0.9139  0.5010
   19CHL1   H1B 1378   2.426   1.207   9.825 -0.1519  1.3508 -1.4093
   19CHL1    C2 1379   2.535   1.275  10.001 -0.1219 -0.1996  0.1245
   19CHL1   H2A 1380   2.450   1.296  10.069 -1.5173  0.3966 -1.7613
   19CHL1   H2B 1381   2.610   1.350  10.035  1.3951 -0.9589 -1.4059
   19CHL1   C20 1382   2.528   1.196   9.040  0.1083  0.5289 -0.2889
   19CHL1   H20 1383   2.637   1.213   9.030  0.0921  0.1413 -1.2507
   19CHL1   C21 1384   2.444   1.321   9.060  0.3917 -0.2302  0.3621
   19CHL1  H21A 1385   2.478   1.384   9.145  0.1965 -1.1475  1.1402
   19CHL1  H21B 1386   2.339   1.293   9.082  0.3902 -0.3838  0.1608
   19CHL1  H21C 1387   2.438   1.375   8.963  2.2773  1.0300  0.9141
   19CHL1   C22 1388   2.496   1.122   8.912 -0.4726  0.4778  0.6666
   19CHL1  H22A 1389   2.525   1.015   8.908  0.3680  0.7395 -0.5395
   19CHL1  H22B 1390   2.387   1.119   8.890 -0.3099  1.0565 -0.2379
   19CHL1   C23 1391   2.555   1.203   8.792  0.2947  0.1608 -0.6210
   19CHL1  H23A 1392   2.494   1.296   8.788  1.1617  0.7819  0.4019
   19CHL1  H23B 1393   2.663   1.226   8.801  0.7576 -2.3150  0.5643
   19CHL1   C24 1394   2.546   1.127   8.658 -1.2843  0.1181  0.4610
   19CHL1  H24A 1395   2.581   1.022   8.667 -0.9384  0.0553 -1.2627
   19CHL1  H24B 1396   2.439   1.103   8.638 -1.3730  0.0791  0.9880
   19CHL1   C25 1397   2.605   1.203   8.537  0.5775 -0.2736 -0.3348
   19CHL1   H25 1398   2.688   1.266   8.577 -1.7589  1.7184  1.5102
   19CHL1   C26 1399   2.669   1.105   8.437  0.9943  0.5077 -0.5314
   19CHL1  H26A 1400   2.590   1.037   8.400 -0.2698  0.6141  1.8931
   19CHL1  H26B 1401   2.701   1.163   8.347  0.4439 -0.8893 -1.6525
   19CHL1  H26C 1402   2.760   1.049   8.470  0.9227  1.6795  1.7400
   19CHL1   C27 1403   2.499   1.292   8.470  0.2395 -0.0020  0.3986
   19CHL1  H27A 1404   2.438   1.344   8.546 -0.3596  0.4247 -0.3679
   19CHL1  H27B 1405   2.544   1.374   8.411  1.1256 -1.2595 -0.7105
   19CHL1  H27C 1406   2.426   1.240   8.404  0.9320 -0.3235 -0.1207
   20CHL1    C3 1407   4.714   2.031  10.392  0.3804  0.0400  0.7350
   20CHL1    H3 1408   4.697   2.130  10.344  0.3791  0.0082  0.6700
   20CHL1    O3 1409   4.739   2.041  10.533 -0.5365 -0.5215  0.2269
   20CHL1   H3' 1410   4.796   2.116  10.551 -0.7212 -0.3948  0.2814
   20CHL1    C4 1411   4.585   1.955  10.378 -0.1306  0.0951 -0.1142
   20CHL1   H4A 1412   4.587   1.855  10.427 -2.4564 -0.0384 -0.2396
   20CHL1   H4B 1413   4.503   2.005  10.434 -0.5517  1.4461 -1.8731
   20CHL1    C5 1414   4.555   1.950  10.227  0.5546  0.3401 -0.3805
   20CHL1    C6 1415   4.435   1.996  10.179 -0.4641  0.4278 -0.5870
   20CHL1    H6 1416   4.355   2.021  10.250 -0.0362  2.1905 -0.7001
   20CHL1    C7 1417   4.398   2.001  10.030  0.4534 -0.5216  0.5923
   20CHL1   H7A 1418   4.291   1.975  10.013  0.3890  0.5918 -0.8104
   20CHL1   H7B 1419   4.405   2.108  10.002  3.8967 -1.2661 -1.6531
   20CHL1    C8 1420   4.494   1.914   9.946 -0.5437  0.4517 -0.2870
   20CHL1    H8 1421   4.456   1.810   9.948  2.1903 -0.5731  0.2187
   20CHL1   C14 1422   4.488   1.959   9.804 -0.0125  0.0871 -1.2158
   20CHL1   H14 1423   4.536   2.058   9.810  1.2487 -0.6143  0.8194
   20CHL1   C15 1424   4.350   1.979   9.737 -0.2669 -0.4493  0.1355
   20CHL1  H15A 1425   4.293   1.884   9.734 -0.8638 -0.0751 -0.7399
   20CHL1  H15B 1426   4.278   2.052   9.779 -2.0124 -0.7793 -2.1792
   20CHL1   C16 1427   4.386   2.014   9.585  0.7257  0.3575  0.5870
   20CHL1  H16A 1428   4.325   1.947   9.521  1.2790  1.3922 -1.0399
   20CHL1  H16B 1429   4.362   2.120   9.560  1.4391 -0.1547 -2.4525
   20CHL1   C17 1430   4.533   1.976   9.572 -0.6862  0.2458 -0.4179
   20CHL1   H17 1431   4.595   2.068   9.584 -2.1270  1.4735 -2.0070
   20CHL1   C13 1432   4.565   1.885   9.696 -0.3590  0.0886  0.3252
   20CHL1   C18 1433   4.520   1.741   9.672 -0.1274  0.0731 -0.7206
   20CHL1  H18A 1434   4.512   1.676   9.762  1.3294 -0.1363 -0.7380
   20CHL1  H18B 1435   4.418   1.742   9.628  0.4547  1.4923 -2.0795
   20CHL1  H18C 1436   4.589   1.688   9.603  0.8675 -1.0989  1.1282
   20CHL1   C12 1437   4.717   1.893   9.737 -0.1255  0.1399 -0.2627
   20CHL1  H12A 1438   4.795   1.842   9.677 -1.1740 -0.2213 -1.3165
   20CHL1  H12B 1439   4.749   1.999   9.738  2.7079 -0.6805  0.5333
   20CHL1   C11 1440   4.729   1.837   9.890  0.6465 -0.3147  0.2018
   20CHL1  H11A 1441   4.691   1.733   9.880 -0.9614  0.4066 -1.4536
   20CHL1  H11B 1442   4.839   1.830   9.909  0.4851 -0.4094  1.1166
   20CHL1    C9 1443   4.641   1.923   9.987  0.1454  0.0529 -0.7037
   20CHL1    H9 1444   4.670   2.029   9.972  2.2323 -0.4013 -0.0559
   20CHL1   C10 1445   4.663   1.888  10.139 -0.1347 -1.1456  0.3011
   20CHL1   C19 1446   4.654   1.736  10.153 -0.6725  0.6894 -0.3265
   20CHL1  H19A 1447   4.670   1.710  10.260  0.5771  0.4291 -0.5617
   20CHL1  H19B 1448   4.557   1.694  10.121  0.4050 -1.8874 -0.4230
   20CHL1  H19C 1449   4.731   1.679  10.096 -0.4759  1.3188 -0.6854
   20CHL1    C1 1450   4.800   1.933  10.182 -0.7059 -0.0112 -0.0657
   20CHL1   H1A 1451   4.886   1.874  10.142 -0.0680  1.4228 -0.8486
   20CHL1   H1B 1452   4.816   2.030  10.129  2.8367 -1.0516 -1.0847
   20CHL1    C2 1453   4.831   1.956  10.328  0.3198  0.3344  0.4050
   20CHL1   H2A 1454   4.927   2.012  10.334  0.4319  0.0908  0.8993
   20CHL1   H2B 1455   4.832   1.860  10.384  1.5453 -0.6488 -1.2703
   20CHL1   C20 1456   4.568   1.937   9.428  0.2281  0.5639 -0.5461
   20CHL1   H20 1457   4.531   1.838   9.395  1.3649  0.5775 -1.9285
   20CHL1   C21 1458   4.727   1.934   9.420 -0.4064  0.2062  0.0008
   20CHL1  H21A 1459   4.765   1.911   9.318  1.7332 -1.1486  1.0671
   20CHL1  H21B 1460   4.756   1.852   9.489  2.9276  2.6301  1.5851
   20CHL1  H21C 1461   4.763   2.035   9.450 -1.7659  1.0176 -1.0471
   20CHL1   C22 1462   4.518   2.034   9.321 -0.6285  0.3258 -0.0475
   20CHL1  H22A 1463   4.409   2.048   9.334 -0.7852 -0.9374 -0.0051
   20CHL1  H22B 1464   4.569   2.130   9.346  0.5434  0.0557 -1.3391
   20CHL1   C23 1465   4.553   2.000   9.170 -0.5837  0.0551  0.1896
   20CHL1  H23A 1466   4.663   1.990   9.170 -0.7522 -2.0638 -0.1793
   20CHL1  H23B 1467   4.521   1.901   9.131  1.1747 -0.0092 -1.1433
   20CHL1   C24 1468   4.507   2.110   9.067 -0.5664  0.4916  0.3087
   20CHL1  H24A 1469   4.399   2.129   9.084 -0.7766 -1.9383  2.1241
   20CHL1  H24B 1470   4.576   2.193   9.090 -0.8288  0.9066 -0.4191
   20CHL1   C25 1471   4.519   2.067   8.918 -0.7675 -0.2803 -0.3677
   20CHL1   H25 1472   4.462   1.976   8.893 -1.7503  0.0675  0.5798
   20CHL1   C26 1473   4.457   2.168   8.825 -0.0412 -0.5827  0.6387
   20CHL1  H26A 1474   4.462   2.130   8.721 -2.3974  0.5256  0.0735
   20CHL1  H26B 1475   4.347   2.153   8.834 -0.0606 -0.8128 -0.0225
   20CHL1  H26C 1476   4.486   2.274   8.841  1.7076 -1.0275  0.5138
   20CHL1   C27 1477   4.665   2.024   8.888 -0.0408 -0.5498  0.1407
   20CHL1  H27A 1478   4.691   1.943   8.960  0.2091 -0.8117 -0.2455
   20CHL1  H27B 1479   4.677   1.997   8.781 -2.0882  1.8028 -0.7157
   20CHL1  H27C 1480   4.729   2.112   8.907 -0.2910  0.0528 -1.6708
   21CHL1    C3 1481   4.418   5.351  10.266  0.6113 -0.2488 -0.7970
   21CHL1    H3 1482   4.528   5.350  10.279  0.1317  0.6088  4.4992
   21CHL1    O3 1483   4.346   5.370  10.384 -0.1963 -0.1438  0.2661
   21CHL1   H3' 1484   4.273   5.430  10.372  0.2225  0.7664  2.1624
   21CHL1    C4 1485   4.382   5.479  10.178  0.3859 -0.5643  0.0219
   21CHL1   H4A 1486   4.273   5.498  10.167  0.7675  0.4121 -2.2110
   21CHL1   H4B 1487   4.430   5.564  10.232 -0.7005  0.0497  0.0409
   21CHL1    C5 1488   4.439   5.476  10.038  0.9037 -0.5397  0.0905
   21CHL1    C6 1489   4.519   5.573   9.993  0.1453 -0.3301  0.2967
   21CHL1    H6 1490   4.524   5.668  10.047 -0.8943 -0.2587  0.2784
   21CHL1    C7 1491   4.570   5.578   9.854  0.0256 -0.2085  0.2129
   21CHL1   H7A 1492   4.560   5.680   9.812  2.7697 -0.1784 -0.4728
   21CHL1   H7B 1493   4.677   5.547   9.853  0.5279  1.4869 -3.2805
   21CHL1    C8 1494   4.492   5.484   9.763  0.6921  0.0204 -0.0336
   21CHL1    H8 1495   4.397   5.540   9.749  2.1111  2.3998 -0.4411
   21CHL1   C14 1496   4.578   5.468   9.636  0.3429 -0.0806 -0.1262
   21CHL1   H14 1497   4.674   5.420   9.665  0.7470 -0.1445 -1.5221
   21CHL1   C15 1498   4.616   5.597   9.554  0.4548  0.0515  0.9606
   21CHL1  H15A 1499   4.525   5.659   9.534  0.1468 -0.6730  0.0907
   21CHL1  H15B 1500   4.687   5.658   9.615  0.4673  0.2153  0.7816
   21CHL1   C16 1501   4.670   5.548   9.422  0.2458 -0.2682 -0.3378
   21CHL1  H16A 1502   4.622   5.596   9.333 -0.7842 -2.6054 -1.0750
   21CHL1  H16B 1503   4.778   5.573   9.423  0.4705 -1.2090 -0.6849
   21CHL1   C17 1504   4.623   5.398   9.416  0.1276  0.6660 -0.2280
   21CHL1   H17 1505   4.710   5.335   9.444 -0.4366 -0.2643 -0.5344
   21CHL1   C13 1506   4.517   5.379   9.531  0.5013  0.7799 -0.0804
   21CHL1   C18 1507   4.385   5.434   9.465 -0.2141 -0.1521  0.4883
   21CHL1  H18A 1508   4.331   5.476   9.552 -1.1353 -2.2268  0.9497
   21CHL1  H18B 1509   4.404   5.515   9.391  0.7520 -0.9031 -0.1006
   21CHL1  H18C 1510   4.326   5.352   9.419 -0.4797 -0.4934  1.4196
   21CHL1   C12 1511   4.524   5.237   9.592  1.1232  0.1260 -0.6601
   21CHL1  H12A 1512   4.500   5.150   9.528  0.1136 -1.1465  1.4084
   21CHL1  H12B 1513   4.628   5.206   9.618  0.2670 -2.4408 -0.1804
   21CHL1   C11 1514   4.453   5.226   9.726  0.6454 -0.0026 -0.5089
   21CHL1  H11A 1515   4.345   5.222   9.700  0.1755  2.3335  0.9328
   21CHL1  H11B 1516   4.479   5.132   9.778  0.9574  0.4468  0.1444
   21CHL1    C9 1517   4.482   5.341   9.825 -0.0750 -0.1579 -0.3190
   21CHL1    H9 1518   4.585   5.314   9.858 -0.8087  0.4634  2.5355
   21CHL1   C10 1519   4.404   5.353   9.960  0.0265 -0.0444  0.0638
   21CHL1   C19 1520   4.252   5.364   9.921  0.2411  0.5733 -0.0133
   21CHL1  H19A 1521   4.228   5.444   9.847 -0.6294 -1.9675 -2.6119
   21CHL1  H19B 1522   4.233   5.265   9.874 -0.0065  0.3810  0.4864
   21CHL1  H19C 1523   4.183   5.378  10.007  0.7563 -0.1173  0.5121
   21CHL1    C1 1524   4.432   5.226  10.049 -0.2088  0.1403  0.0487
   21CHL1   H1A 1525   4.396   5.133  10.002  2.0562 -1.7243  1.8682
   21CHL1   H1B 1526   4.541   5.207  10.063 -0.3356 -1.0004 -0.5118
   21CHL1    C2 1527   4.371   5.228  10.187 -0.7559 -0.6547 -0.7867
   21CHL1   H2A 1528   4.402   5.136  10.241  0.8144  0.4770  0.2859
   21CHL1   H2B 1529   4.261   5.229  10.171 -0.3104  1.5178 -4.0843
   21CHL1   C20 1530   4.602   5.353   9.268 -0.0861 -0.1487 -0.4999
   21CHL1   H20 1531   4.515   5.407   9.225 -0.3357 -1.1027 -1.2162
   21CHL1   C21 1532   4.569   5.207   9.269 -0.1395  0.1995 -0.1677
   21CHL1  H21A 1533   4.463   5.177   9.288 -0.0416  1.2522  2.1791
   21CHL1  H21B 1534   4.632   5.148   9.338 -1.0048  0.7588  1.1146
   21CHL1  H21C 1535   4.588   5.170   9.166  0.3656 -0.3304  0.1150
   21CHL1   C22 1536   4.725   5.386   9.179 -0.3605 -0.1004  0.4903
   21CHL1  H22A 1537   4.780   5.478   9.205  0.4099 -0.4708  0.1782
   21CHL1  H22B 1538   4.792   5.301   9.204  1.2440  1.5537  1.9378
   21CHL1   C23 1539   4.694   5.378   9.025  0.2789 -0.4905  0.0019
   21CHL1  H23A 1540   4.621   5.302   8.989  0.0624  0.5585 -1.8042
   21CHL1  H23B 1541   4.650   5.478   9.006 -0.4181 -0.4950  1.5367
   21CHL1   C24 1542   4.825   5.379   8.939 -0.4460 -0.6635 -0.0938
   21CHL1  H24A 1543   4.871   5.477   8.961 -1.0398 -0.9740  2.6903
   21CHL1  H24B 1544   4.894   5.310   8.992 -1.8611 -0.3762  2.2040
   21CHL1   C25 1545   4.827   5.375   8.777  0.1971  0.0674  0.2511
   21CHL1   H25 1546   4.935   5.367   8.755 -0.0486 -1.6215 -0.4246
   21CHL1   C26 1547   4.747   5.256   8.714  0.0677  0.5649  1.1034
   21CHL1  H26A 1548   4.637   5.268   8.727 -0.0327  0.6763  0.1525
   21CHL1  H26B 1549   4.764   5.268   8.605 -1.2094  2.3117  1.0666
   21CHL1  H26C 1550   4.774   5.156   8.754 -0.8955  0.4045  1.3823
   21CHL1   C27 1551   4.759   5.498   8.715 -0.1296 -0.2047  0.5418
   21CHL1  H27A 1552   4.653   5.503   8.748 -0.3024 -1.6242  0.2126
   21CHL1  H27B 1553   4.800   5.586   8.769 -0.3864  0.6443 -0.6470
   21CHL1  H27C 1554   4.769   5.505   8.605  1.6022  1.9801  0.7949
   22CHL1    C3 1555   4.288   6.348  10.147 -0.0483 -0.1960  1.0602
   22CHL1    H3 1556   4.380   6.409  10.131 -0.5466  0.5100  0.8950
   22CHL1    O3 1557   4.269   6.315  10.281  0.2377 -0.3129  1.1788
   22CHL1   H3' 1558   4.178   6.285  10.291 -0.3262  0.0590 -2.1677
   22CHL1    C4 1559   4.169   6.443  10.106  0.5189 -0.0777 -0.3806
   22CHL1   H4A 1560   4.073   6.402  10.143  0.4447  1.0419  0.6924
   22CHL1   H4B 1561   4.172   6.539  10.162  0.0275 -0.0247 -0.4399
   22CHL1    C5 1562   4.161   6.464   9.956  0.0772  0.3837 -0.1585
   22CHL1    C6 1563   4.155   6.593   9.906  0.1933  0.3623 -0.2596
   22CHL1    H6 1564   4.147   6.671   9.984  0.3600 -4.3266  4.7975
   22CHL1    C7 1565   4.150   6.627   9.764 -0.1161 -0.7607  0.4379
   22CHL1   H7A 1566   4.070   6.700   9.738 -0.2079 -0.3171  1.9154
   22CHL1   H7B 1567   4.244   6.671   9.725  1.3431 -1.1518  3.3465
   22CHL1    C8 1568   4.124   6.507   9.672 -0.3911  0.3834  0.0578
   22CHL1    H8 1569   4.017   6.478   9.680 -0.1724 -0.0496  1.5530
   22CHL1   C14 1570   4.153   6.536   9.524 -0.0797  0.6728  0.6623
   22CHL1   H14 1571   4.262   6.554   9.516 -0.2452  0.4286 -2.9839
   22CHL1   C15 1572   4.096   6.662   9.460  0.4911  0.1696  0.5770
   22CHL1  H15A 1573   3.991   6.687   9.488 -0.7972 -1.1577 -2.6748
   22CHL1  H15B 1574   4.155   6.754   9.476  0.8526 -0.2185  1.5009
   22CHL1   C16 1575   4.109   6.644   9.306 -0.7272  0.6149  0.6757
   22CHL1  H16A 1576   4.009   6.648   9.258  0.1520  1.7447 -1.1323
   22CHL1  H16B 1577   4.173   6.721   9.257 -1.5099  1.4649  0.9659
   22CHL1   C17 1578   4.151   6.502   9.281  0.5397  0.3316  0.3215
   22CHL1   H17 1579   4.261   6.506   9.270  0.5516  1.5948  0.7476
   22CHL1   C13 1580   4.122   6.423   9.420  0.6445 -0.4113  0.3904
   22CHL1   C18 1581   3.963   6.384   9.419 -0.2989 -0.5234 -0.3666
   22CHL1  H18A 1582   3.933   6.301   9.352  1.7172  1.4401 -3.8288
   22CHL1  H18B 1583   3.930   6.363   9.523  0.3217 -1.9520 -0.4631
   22CHL1  H18C 1584   3.909   6.472   9.376 -0.0863  0.2259  0.8712
   22CHL1   C12 1585   4.216   6.308   9.466  0.5058  0.0024  0.3624
   22CHL1  H12A 1586   4.202   6.221   9.398 -1.5377  1.3595 -1.0108
   22CHL1  H12B 1587   4.321   6.342   9.461  0.1770  0.8694 -0.6649
   22CHL1   C11 1588   4.182   6.266   9.612 -0.1226 -0.1211  0.2618
   22CHL1  H11A 1589   4.074   6.239   9.621 -0.4095  0.6420 -0.8256
   22CHL1  H11B 1590   4.247   6.183   9.648 -0.5639  0.4379  2.4376
   22CHL1    C9 1591   4.198   6.382   9.713 -0.8860  1.5253  0.5125
   22CHL1    H9 1592   4.303   6.417   9.716 -0.8723  1.4710  0.6942
   22CHL1   C10 1593   4.182   6.343   9.862  0.4628  0.3124 -0.0108
   22CHL1   C19 1594   4.049   6.259   9.875  1.1670  0.2216  0.8053
   22CHL1  H19A 1595   3.965   6.311   9.825 -0.7962 -4.3913 -0.9154
   22CHL1  H19B 1596   4.055   6.161   9.824 -2.9893  0.5611 -0.5619
   22CHL1  H19C 1597   4.025   6.235   9.981  1.0065 -0.2061  0.6730
   22CHL1    C1 1598   4.293   6.249   9.909 -0.2472 -0.2780 -0.6905
   22CHL1   H1A 1599   4.287   6.151   9.856  0.0746  0.0173 -1.2785
   22CHL1   H1B 1600   4.393   6.288   9.882 -0.2598 -0.0065 -0.3405
   22CHL1    C2 1601   4.284   6.221  10.061 -0.2257  0.4326 -0.1110
   22CHL1   H2A 1602   4.378   6.167  10.087 -0.9494  0.5693  2.9090
   22CHL1   H2B 1603   4.195   6.164  10.092 -2.0247  1.4239 -3.2250
   22CHL1   C20 1604   4.100   6.445   9.156 -0.1268 -0.6613 -0.2937
   22CHL1   H20 1605   3.991   6.430   9.173  0.3017 -0.3878  3.1247
   22CHL1   C21 1606   4.177   6.311   9.126  0.3281 -0.1553  0.0828
   22CHL1  H21A 1607   4.145   6.246   9.211 -1.6555  0.2353 -0.3233
   22CHL1  H21B 1608   4.283   6.343   9.133  0.7101 -0.8910 -2.1673
   22CHL1  H21C 1609   4.147   6.252   9.037  0.2539 -3.8752  2.4510
   22CHL1   C22 1610   4.106   6.540   9.033  0.5494  0.2092 -0.2583
   22CHL1  H22A 1611   4.057   6.637   9.057 -2.8066 -1.9287  1.8256
   22CHL1  H22B 1612   4.211   6.567   9.010  1.1995 -0.5615  1.7844
   22CHL1   C23 1613   4.034   6.495   8.894  0.0589  0.9990 -0.7797
   22CHL1  H23A 1614   4.064   6.389   8.877  0.0596  0.9395 -0.4210
   22CHL1  H23B 1615   3.923   6.494   8.901 -0.0474  1.7418 -2.1617
   22CHL1   C24 1616   4.086   6.577   8.772  0.0978 -0.1575 -0.0015
   22CHL1  H24A 1617   4.197   6.566   8.772  0.0669 -0.5269 -0.5221
   22CHL1  H24B 1618   4.047   6.536   8.676  0.4312  0.3885 -0.3716
   22CHL1   C25 1619   4.070   6.728   8.762 -0.2402  0.0870 -0.1003
   22CHL1   H25 1620   4.110   6.763   8.859 -0.3550  2.2771 -0.8089
   22CHL1   C26 1621   4.161   6.787   8.652  0.7155 -0.2760  0.0771
   22CHL1  H26A 1622   4.147   6.896   8.635  2.0415  0.0468  0.9874
   22CHL1  H26B 1623   4.265   6.757   8.677 -0.0335 -2.6052  0.5560
   22CHL1  H26C 1624   4.140   6.742   8.553  1.4642 -0.6714  0.1017
   22CHL1   C27 1625   3.925   6.774   8.748 -0.3120 -0.5621 -0.7380
   22CHL1  H27A 1626   3.897   6.750   8.644  0.4440 -0.9098 -0.8663
   22CHL1  H27B 1627   3.862   6.727   8.827 -0.0015 -0.5291 -0.4672
   22CHL1  H27C 1628   3.920   6.885   8.754 -2.7330 -0.7732  2.2523
   23CHL1    C3 1629   0.270   0.212  10.416  0.0046  0.0200 -0.7339
   23CHL1    H3 1630   0.166   0.246  10.438  1.0793  2.3485  0.9200
   23CHL1    O3 1631   0.320   0.171  10.538 -0.3167  0.5463 -0.1904
   23CHL1   H3' 1632   0.285   0.086  10.565  0.6227  0.3954  0.5873
   23CHL1    C4 1633   0.261   0.092  10.320 -0.0776 -0.3525  1.1773
   23CHL1   H4A 1634   0.358   0.037  10.319  0.3160  0.3320 -0.8276
   23CHL1   H4B 1635   0.188   0.015  10.353 -0.5764 -0.6561 -0.5596
   23CHL1    C5 1636   0.233   0.118  10.173  0.6163  0.9821 -0.1670
   23CHL1    C6 1637   0.133   0.058  10.107 -0.5826 -0.3016  0.1665
   23CHL1    H6 1638   0.080  -0.026  10.154 -0.2993 -0.7472 -0.3028
   23CHL1    C7 1639   0.107   0.080   9.961  0.1179  0.2216 -1.0904
   23CHL1   H7A 1640   0.119  -0.017   9.908  4.3394 -0.2225  0.5122
   23CHL1   H7B 1641   0.007   0.128   9.958 -0.1264 -0.0903  1.7226
   23CHL1    C8 1642   0.212   0.175   9.890 -0.1744  0.3587 -0.3345
   23CHL1    H8 1643   0.306   0.119   9.877 -2.0165 -3.0350  0.4903
   23CHL1   C14 1644   0.152   0.211   9.757  0.0013 -1.2837 -0.5564
   23CHL1   H14 1645   0.061   0.274   9.770  0.5861 -0.7762  1.3152
   23CHL1   C15 1646   0.117   0.095   9.660  0.0029 -0.4457  0.0005
   23CHL1  H15A 1647   0.198   0.019   9.660 -1.0653 -1.6238  1.1217
   23CHL1  H15B 1648   0.022   0.046   9.691  0.1496 -0.5041  0.3679
   23CHL1   C16 1649   0.120   0.167   9.520  0.3950 -0.1701 -0.2195
   23CHL1  H16A 1650   0.177   0.103   9.449  1.6478  0.6715  0.0117
   23CHL1  H16B 1651   0.014   0.183   9.492  0.5319  1.1209 -0.0523
   23CHL1   C17 1652   0.185   0.311   9.541 -0.2812  0.0660 -0.4173
   23CHL1   H17 1653   0.102   0.384   9.546 -0.0679  0.2638  0.2153
   23CHL1   C13 1654   0.251   0.296   9.680 -0.6914 -0.3275  0.1475
   23CHL1   C18 1655   0.390   0.240   9.654  0.7075 -0.1894 -0.2488
   23CHL1  H18A 1656   0.396   0.148   9.593 -1.6878 -1.7793  1.8267
   23CHL1  H18B 1657   0.457   0.320   9.615  2.2728  0.0296  2.7599
   23CHL1  H18C 1658   0.440   0.207   9.747  1.4441 -0.3021 -0.6797
   23CHL1   C12 1659   0.256   0.425   9.764  0.2045  0.0174  0.2034
   23CHL1  H12A 1660   0.316   0.507   9.721  0.6219 -1.0497 -1.2697
   23CHL1  H12B 1661   0.153   0.467   9.773  0.3950  0.6365 -0.4549
   23CHL1   C11 1662   0.314   0.406   9.903 -0.0770  0.2327  0.4138
   23CHL1  H11A 1663   0.417   0.371   9.881  0.9231  3.3741 -0.1626
   23CHL1  H11B 1664   0.321   0.505   9.953 -0.2355  0.8061 -0.7049
   23CHL1    C9 1665   0.241   0.295   9.983 -0.1393  0.4626  0.1424
   23CHL1    H9 1666   0.140   0.337  10.002 -0.7953 -0.6869 -0.7377
   23CHL1   C10 1667   0.305   0.242  10.117  0.2200  0.0044  0.6083
   23CHL1   C19 1668   0.445   0.203  10.084 -0.3311  0.3168  0.4417
   23CHL1  H19A 1669   0.496   0.143  10.163  1.1321 -0.4867 -1.0918
   23CHL1  H19B 1670   0.442   0.147   9.988 -1.9543  0.9408  0.1241
   23CHL1  H19C 1671   0.495   0.300  10.067  1.2057 -0.6825 -0.9284
   23CHL1    C1 1672   0.311   0.368  10.214  0.1311 -0.4095  0.3087
   23CHL1   H1A 1673   0.387   0.437  10.171 -0.7705  0.7126  0.5159
   23CHL1   H1B 1674   0.208   0.410  10.212  1.0432  1.9144  0.7451
   23CHL1    C2 1675   0.347   0.330  10.358 -0.2628  0.0970 -0.1076
   23CHL1   H2A 1676   0.336   0.422  10.419 -0.4553 -0.8263  1.2720
   23CHL1   H2B 1677   0.453   0.295  10.352 -0.9065 -1.7172 -0.9437
   23CHL1   C20 1678   0.263   0.365   9.419  0.5013 -0.4157 -0.3625
   23CHL1   H20 1679   0.340   0.286   9.402  1.7488 -0.0012  2.9392
   23CHL1   C21 1680   0.337   0.502   9.444 -0.1225  0.2072 -0.2418
   23CHL1  H21A 1681   0.381   0.546   9.352 -0.1511  2.2879  0.7048
   23CHL1  H21B 1682   0.407   0.490   9.529 -0.7657 -4.7253 -0.2307
   23CHL1  H21C 1683   0.264   0.579   9.476  0.4936  0.3845  0.7349
   23CHL1   C22 1684   0.167   0.367   9.294  0.0703 -0.7187  0.0494
   23CHL1  H22A 1685   0.108   0.273   9.291 -0.2922 -0.5144  0.7995
   23CHL1  H22B 1686   0.093   0.449   9.311 -1.4589 -2.0020 -0.2814
   23CHL1   C23 1687   0.239   0.383   9.162 -0.0339  0.2632 -0.0545
   23CHL1  H23A 1688   0.325   0.453   9.175 -0.6977  1.2513 -0.9125
   23CHL1  H23B 1689   0.288   0.287   9.136  0.3498  0.3630  0.3059
   23CHL1   C24 1690   0.147   0.413   9.046  0.8397  0.2981  0.0017
   23CHL1  H24A 1691   0.051   0.359   9.061  1.0882  0.1828  1.1848
   23CHL1  H24B 1692   0.139   0.524   9.049  0.5083  0.2939 -0.6043
   23CHL1   C25 1693   0.203   0.372   8.910  0.2694 -0.7902 -0.0293
   23CHL1   H25 1694   0.226   0.263   8.909  1.0088 -0.6225 -1.6439
   23CHL1   C26 1695   0.088   0.373   8.806  0.1472 -0.3506  1.0424
   23CHL1  H26A 1696   0.037   0.472   8.801 -0.8765 -0.9080  0.4858
   23CHL1  H26B 1697   0.126   0.354   8.704  0.1596  0.1656  0.9480
   23CHL1  H26C 1698   0.010   0.297   8.829 -0.4705  0.0078  0.1263
   23CHL1   C27 1699   0.313   0.460   8.864  0.2836 -1.1568  0.1901
   23CHL1  H27A 1700   0.277   0.564   8.855  0.2423 -1.2962 -1.4635
   23CHL1  H27B 1701   0.396   0.460   8.938  1.1298 -1.6737 -0.7521
   23CHL1  H27C 1702   0.358   0.432   8.766  1.5975 -2.7080  1.1992
   24CHL1    C3 1703   1.906   1.533  10.219  0.0353 -0.3953 -0.0343
   24CHL1    H3 1704   1.955   1.434  10.232  0.2338  0.0939  3.6918
   24CHL1    O3 1705   1.881   1.579  10.352  0.4694  0.1487  0.2276
   24CHL1   H3' 1706   1.785   1.581  10.357  0.4519 -1.1521  0.6657
   24CHL1    C4 1707   2.013   1.626  10.150  0.4570 -0.4210  0.3677
   24CHL1   H4A 1708   1.978   1.731  10.160  0.8812 -0.1967 -0.5563
   24CHL1   H4B 1709   2.102   1.631  10.217  0.9217 -0.4781 -0.2475
   24CHL1    C5 1710   2.032   1.584  10.005  0.4852  0.3256  0.0482
   24CHL1    C6 1711   2.150   1.549   9.945 -0.2338  0.4220 -0.3327
   24CHL1    H6 1712   2.241   1.551  10.006 -0.6428  0.9966  0.2603
   24CHL1    C7 1713   2.173   1.506   9.799  0.0339  0.4560  0.4139
   24CHL1   H7A 1714   2.263   1.555   9.756  0.8353 -1.0552  0.3554
   24CHL1   H7B 1715   2.183   1.396   9.793  0.1143  0.4973 -0.3317
   24CHL1    C8 1716   2.042   1.535   9.724  0.6547 -0.5677  0.0526
   24CHL1    H8 1717   2.040   1.646   9.722 -1.7083 -0.5790 -0.1072
   24CHL1   C14 1718   2.050   1.489   9.577 -0.7710 -0.1803  0.5092
   24CHL1   H14 1719   2.050   1.378   9.587  2.1843 -0.0189  2.9964
   24CHL1   C15 1720   2.183   1.523   9.502  0.5185 -1.5168  0.5576
   24CHL1  H15A 1721   2.209   1.629   9.521 -2.0700 -0.8132  0.2748
   24CHL1  H15B 1722   2.252   1.440   9.531  0.0981 -1.7222  0.9656
   24CHL1   C16 1723   2.142   1.506   9.346  0.5494 -0.3011  0.4372
   24CHL1  H16A 1724   2.160   1.597   9.284 -1.3970 -1.6615 -2.1772
   24CHL1  H16B 1725   2.193   1.417   9.303 -1.6773 -2.3883  2.0086
   24CHL1   C17 1726   1.982   1.473   9.344 -0.1861 -0.1610  0.0252
   24CHL1   H17 1727   1.977   1.363   9.355  0.2041 -0.2845 -0.9998
   24CHL1   C13 1728   1.933   1.529   9.481  0.2571  0.0900  0.4662
   24CHL1   C18 1729   1.919   1.682   9.470  0.1044  0.5564  0.7418
   24CHL1  H18A 1730   1.916   1.726   9.571 -0.1542  1.8966  0.1621
   24CHL1  H18B 1731   2.005   1.726   9.415 -1.8417 -0.1186 -3.0124
   24CHL1  H18C 1732   1.827   1.708   9.413  1.8379  1.5982 -1.6880
   24CHL1   C12 1733   1.813   1.458   9.553  0.5156  0.0148  0.1302
   24CHL1  H12A 1734   1.720   1.471   9.493  1.1114  2.3315 -0.3557
   24CHL1  H12B 1735   1.827   1.348   9.551 -0.3860 -0.0927 -0.4514
   24CHL1   C11 1736   1.790   1.516   9.694  0.5976 -0.6066 -0.2346
   24CHL1  H11A 1737   1.764   1.623   9.680 -4.6567 -1.5734  1.0440
   24CHL1  H11B 1738   1.706   1.452   9.728  1.2423 -1.6279 -0.5626
   24CHL1    C9 1739   1.909   1.499   9.785  0.5609 -0.5195 -0.7806
   24CHL1    H9 1740   1.920   1.391   9.807  2.7828 -0.2876 -0.7033
   24CHL1   C10 1741   1.897   1.569   9.923 -0.4802  0.1435 -0.0053
   24CHL1   C19 1742   1.861   1.722   9.901  0.3499 -0.1590 -0.2657
   24CHL1  H19A 1743   1.932   1.777   9.836  4.2947 -3.0708  1.4224
   24CHL1  H19B 1744   1.756   1.721   9.864  0.1139  0.3520  0.3895
   24CHL1  H19C 1745   1.860   1.773  10.000 -2.4616 -1.2212  0.2964
   24CHL1    C1 1746   1.785   1.495   9.991  0.3676  0.4754  0.2021
   24CHL1   H1A 1747   1.686   1.510   9.944  0.0164  0.4754  0.9375
   24CHL1   H1B 1748   1.813   1.388   9.978 -1.3456  0.0796 -0.2925
   24CHL1    C2 1749   1.768   1.526  10.142  0.2290  0.7168  0.5383
   24CHL1   H2A 1750   1.697   1.451  10.183  0.6229 -0.1612 -0.3501
   24CHL1   H2B 1751   1.720   1.625  10.150 -1.0514  0.0323  1.5733
   24CHL1   C20 1752   1.918   1.533   9.221  0.2246  0.6159  0.4830
   24CHL1   H20 1753   1.910   1.643   9.236  1.8391  0.5786  1.7772
   24CHL1   C21 1754   1.772   1.480   9.208  0.4084 -0.1330 -0.3261
   24CHL1  H21A 1755   1.743   1.463   9.102 -1.6578 -1.1000  0.3719
   24CHL1  H21B 1756   1.700   1.556   9.246  2.1073  1.8948 -1.0119
   24CHL1  H21C 1757   1.768   1.380   9.255  0.7091 -0.0464 -0.1163
   24CHL1   C22 1758   1.990   1.498   9.093  0.3279  0.5758  0.0052
   24CHL1  H22A 1759   1.953   1.552   9.004 -1.7392 -0.3405  0.2987
   24CHL1  H22B 1760   2.088   1.546   9.115  0.3441  2.4356 -3.6568
   24CHL1   C23 1761   2.022   1.345   9.066  0.5921 -0.7351  0.1194
   24CHL1  H23A 1762   2.098   1.309   9.139 -0.3011  1.4643  2.1914
   24CHL1  H23B 1763   1.940   1.274   9.091  0.1546 -0.4781 -0.5944
   24CHL1   C24 1764   2.075   1.311   8.929  0.1110 -0.7714  0.1528
   24CHL1  H24A 1765   2.171   1.367   8.918  0.6599 -1.6280  0.5296
   24CHL1  H24B 1766   2.085   1.200   8.927 -0.7097 -0.8502  0.1315
   24CHL1   C25 1767   1.988   1.343   8.807  0.7403 -0.0425  0.3778
   24CHL1   H25 1768   1.950   1.448   8.801  0.9528  0.0251  0.2132
   24CHL1   C26 1769   2.070   1.317   8.681  0.0891 -0.6660  0.7425
   24CHL1  H26A 1770   2.104   1.212   8.673  2.2822  0.0669  0.1020
   24CHL1  H26B 1771   2.013   1.334   8.587 -1.5719 -1.5553  1.5714
   24CHL1  H26C 1772   2.160   1.382   8.680  0.7744 -1.6153  1.0973
   24CHL1   C27 1773   1.862   1.258   8.795 -0.6704  0.5615 -0.0428
   24CHL1  H27A 1774   1.797   1.256   8.885 -0.3310  1.7178  0.2261
   24CHL1  H27B 1775   1.793   1.293   8.716  0.8847  2.1494 -0.7349
   24CHL1  H27C 1776   1.897   1.154   8.777  0.1205  0.6791  0.7724
   25CHL1    C3 1777   3.455   3.088  10.335  0.7445  0.3772  0.3485
   25CHL1    H3 1778   3.549   3.117  10.282 -0.5288  0.5549 -1.8536
   25CHL1    O3 1779   3.492   3.078  10.473  1.2238  0.3682  0.0709
   25CHL1   H3' 1780   3.568   3.022  10.458  0.8510  0.0443 -0.6600
   25CHL1    C4 1781   3.356   3.196  10.318  0.5695  0.4811 -0.4900
   25CHL1   H4A 1782   3.266   3.169  10.376 -1.3133  1.9789 -2.6263
   25CHL1   H4B 1783   3.385   3.296  10.359  0.9695  0.4732 -0.7466
   25CHL1    C5 1784   3.301   3.215  10.179 -0.1302  0.1230 -0.2361
   25CHL1    C6 1785   3.295   3.330  10.124 -0.4395 -0.0416  0.3814
   25CHL1    H6 1786   3.336   3.417  10.177 -2.7836  2.0080 -1.0506
   25CHL1    C7 1787   3.242   3.350   9.987  0.3333  0.3688 -0.2521
   25CHL1   H7A 1788   3.172   3.435   9.976 -1.5472 -0.9990  0.8481
   25CHL1   H7B 1789   3.327   3.390   9.928 -0.7389  1.8985 -0.7964
   25CHL1    C8 1790   3.179   3.225   9.912 -0.1524 -0.5888  0.2387
   25CHL1    H8 1791   3.074   3.200   9.940 -0.0898  0.6406  1.6188
   25CHL1   C14 1792   3.196   3.243   9.765 -0.1659  0.4723 -0.2705
   25CHL1   H14 1793   3.306   3.252   9.751 -0.3381  1.2220 -1.2277
   25CHL1   C15 1794   3.131   3.368   9.702 -0.0039 -0.2794  0.1253
   25CHL1  H15A 1795   3.032   3.399   9.742  0.5045  1.2012  0.2739
   25CHL1  H15B 1796   3.186   3.462   9.724  0.5122 -0.8805  1.4037
   25CHL1   C16 1797   3.119   3.336   9.560 -0.3843  0.0246 -0.0910
   25CHL1  H16A 1798   3.012   3.332   9.529 -0.8844 -1.3326  1.7422
   25CHL1  H16B 1799   3.169   3.407   9.491  2.6001 -1.3336  0.6294
   25CHL1   C17 1800   3.174   3.190   9.537 -0.3817  0.1306 -0.1931
   25CHL1   H17 1801   3.284   3.193   9.521 -0.1992 -0.9255  0.8218
   25CHL1   C13 1802   3.158   3.122   9.676 -0.2956  0.3210  0.3559
   25CHL1   C18 1803   3.005   3.091   9.688  0.1717  0.6104 -0.4847
   25CHL1  H18A 1804   2.971   3.085   9.793  1.8774  2.7530  0.2493
   25CHL1  H18B 1805   2.948   3.176   9.646 -2.4671 -0.1346  1.4627
   25CHL1  H18C 1806   2.974   2.995   9.644  0.9070 -0.0657  0.4537
   25CHL1   C12 1807   3.236   3.004   9.714  0.2390  0.1874  0.2685
   25CHL1  H12A 1808   3.207   2.908   9.668  1.4598 -1.1988  2.2932
   25CHL1  H12B 1809   3.338   3.019   9.672  0.7586  3.3758  2.4693
   25CHL1   C11 1810   3.225   2.975   9.861  0.1222 -0.0408  1.0104
   25CHL1  H11A 1811   3.121   2.950   9.888  0.8046 -1.7306  2.0883
   25CHL1  H11B 1812   3.291   2.889   9.884 -1.8347 -1.2058  2.3845
   25CHL1    C9 1813   3.257   3.098   9.947 -0.3536  0.6176  0.1837
   25CHL1    H9 1814   3.365   3.114   9.925  0.8715 -2.7847  3.1161
   25CHL1   C10 1815   3.264   3.079  10.103  0.4881 -0.0383  0.1109
   25CHL1   C19 1816   3.125   3.035  10.150 -0.3762  0.3796 -0.7877
   25CHL1  H19A 1817   3.126   2.999  10.255  0.0194 -1.7833 -1.4935
   25CHL1  H19B 1818   3.063   3.127  10.145 -0.0860  0.4589 -4.6002
   25CHL1  H19C 1819   3.083   2.951  10.091  0.8345  0.2916 -1.5471
   25CHL1    C1 1820   3.362   2.962  10.135  0.6842  0.6263 -0.3154
   25CHL1   H1A 1821   3.308   2.869  10.108  0.6608 -0.0417  1.9252
   25CHL1   H1B 1822   3.447   2.970  10.063  1.0605 -1.1594 -0.0856
   25CHL1    C2 1823   3.407   2.955  10.286  0.1229 -0.3786 -0.5099
   25CHL1   H2A 1824   3.491   2.883  10.301 -0.7460 -1.8380 -2.3780
   25CHL1   H2B 1825   3.325   2.916  10.349  0.3176  0.4681  0.2726
   25CHL1   C20 1826   3.127   3.125   9.403  0.3292  0.0099 -0.4685
   25CHL1   H20 1827   3.015   3.129   9.405  0.3650  1.2960 -0.2489
   25CHL1   C21 1828   3.171   2.984   9.389  0.2160 -0.0650 -1.0843
   25CHL1  H21A 1829   3.152   2.924   9.481 -0.2106 -0.4983 -1.4509
   25CHL1  H21B 1830   3.279   2.972   9.367  0.7866 -0.6886  1.8607
   25CHL1  H21C 1831   3.103   2.943   9.311 -1.6266  0.0848  0.3757
   25CHL1   C22 1832   3.182   3.197   9.281 -1.1610 -0.0781 -0.8023
   25CHL1  H22A 1833   3.159   3.306   9.292  2.2062  0.3543  3.1921
   25CHL1  H22B 1834   3.293   3.202   9.278 -1.0567 -2.4955 -2.3210
   25CHL1   C23 1835   3.140   3.145   9.143  0.1140 -0.3323 -0.2845
   25CHL1  H23A 1836   3.207   3.061   9.115  0.5176 -0.3554  0.7292
   25CHL1  H23B 1837   3.030   3.131   9.145  0.1772 -0.7152  0.8924
   25CHL1   C24 1838   3.158   3.247   9.035 -0.1040 -0.2400  0.9244
   25CHL1  H24A 1839   3.075   3.321   9.033 -1.6700 -1.9599  1.0587
   25CHL1  H24B 1840   3.248   3.307   9.060  0.4047 -0.9290  0.7453
   25CHL1   C25 1841   3.180   3.196   8.891  0.4379  0.0997  0.8811
   25CHL1   H25 1842   3.268   3.128   8.893  0.6201  0.2832 -0.3111
   25CHL1   C26 1843   3.051   3.127   8.844 -0.8844  0.2973  0.9495
   25CHL1  H26A 1844   3.017   3.040   8.905  0.9143 -2.1521 -1.4538
   25CHL1  H26B 1845   2.958   3.187   8.831 -0.5516  0.6323  0.0991
   25CHL1  H26C 1846   3.083   3.070   8.755  0.4106 -1.5158  2.5437
   25CHL1   C27 1847   3.221   3.304   8.787 -0.2589  0.3274 -0.2422
   25CHL1  H27A 1848   3.257   3.251   8.696  0.2446 -2.4171  1.4963
   25CHL1  H27B 1849   3.132   3.361   8.755 -0.1867 -0.0612 -1.1599
   25CHL1  H27C 1850   3.291   3.378   8.830  1.9838 -1.2193 -1.1460
   26CHL1    C3 1851   4.755   5.901  10.120 -0.3123 -0.0943 -0.1513
   26CHL1    H3 1852   4.755   5.799  10.077 -0.7588  0.0471 -0.4967
   26CHL1    O3 1853   4.778   5.891  10.262  0.2585 -0.6811  0.4036
   26CHL1   H3' 1854   4.799   5.980  10.293 -0.5426  0.0988 -1.2569
   26CHL1    C4 1855   4.866   5.969  10.041 -0.2739 -0.4343  0.6081
   26CHL1   H4A 1856   4.871   6.071  10.084 -1.3339 -0.1113 -0.0311
   26CHL1   H4B 1857   4.969   5.929  10.056 -0.7166 -1.9951 -0.3688
   26CHL1    C5 1858   4.834   5.984   9.899 -0.1334  0.4070  0.4392
   26CHL1    C6 1859   4.925   5.935   9.814 -0.1641  0.7224 -0.0871
   26CHL1    H6 1860   5.013   5.887   9.859 -0.5898  0.1942  0.1837
   26CHL1    C7 1861   4.911   5.931   9.667  0.5691 -0.3722  0.5664
   26CHL1   H7A 1862   5.004   5.972   9.622 -0.0703  0.3972 -0.0778
   26CHL1   H7B 1863   4.907   5.820   9.662 -0.4311 -0.4453  2.6943
   26CHL1    C8 1864   4.789   6.011   9.611  0.9337 -0.5823 -0.4512
   26CHL1    H8 1865   4.804   6.121   9.601 -3.7216  0.0678 -1.0364
   26CHL1   C14 1866   4.755   5.963   9.473  0.4645  0.1609 -0.0035
   26CHL1   H14 1867   4.730   5.856   9.491 -0.1537  0.5164  1.2851
   26CHL1   C15 1868   4.859   5.958   9.365  0.1060  0.4215 -0.6550
   26CHL1  H15A 1869   4.886   6.063   9.340  0.3089  0.6788  0.5940
   26CHL1  H15B 1870   4.944   5.885   9.367 -0.6244 -0.4234  0.1391
   26CHL1   C16 1871   4.770   5.906   9.245 -0.1086  0.7670 -0.3829
   26CHL1  H16A 1872   4.806   5.953   9.151  0.2474 -2.5866 -1.9827
   26CHL1  H16B 1873   4.774   5.796   9.240 -0.1520  0.7542 -0.1610
   26CHL1   C17 1874   4.627   5.951   9.279 -0.0748  0.2507 -0.7111
   26CHL1   H17 1875   4.573   5.856   9.300 -2.3088  1.5659 -0.2441
   26CHL1   C13 1876   4.631   6.026   9.416  0.0518 -1.0256  0.2903
   26CHL1   C18 1877   4.644   6.174   9.380  0.2978  0.3772  0.2993
   26CHL1  H18A 1878   4.687   6.229   9.467 -3.2838  2.7010  0.6718
   26CHL1  H18B 1879   4.720   6.177   9.299 -0.6146 -0.0891 -0.5675
   26CHL1  H18C 1880   4.561   6.235   9.340  1.5711  1.7940 -0.2386
   26CHL1   C12 1881   4.507   6.012   9.505 -0.2090 -0.5207 -0.0884
   26CHL1  H12A 1882   4.409   6.058   9.481  0.4715  1.1781  0.3065
   26CHL1  H12B 1883   4.491   5.903   9.520  1.3595 -0.7118  0.3666
   26CHL1   C11 1884   4.540   6.063   9.649  0.1932  0.2346  0.2129
   26CHL1  H11A 1885   4.551   6.174   9.650 -0.7679  0.3257  1.5878
   26CHL1  H11B 1886   4.449   6.046   9.709  1.5170 -1.8394  1.6888
   26CHL1    C9 1887   4.664   5.992   9.710  0.0514 -0.4108 -0.2243
   26CHL1    H9 1888   4.645   5.882   9.709 -0.9196 -0.2767  1.4807
   26CHL1   C10 1889   4.694   6.041   9.849  0.1448  0.1939  1.0698
   26CHL1   C19 1890   4.693   6.195   9.855  0.3558  0.3327 -0.7935
   26CHL1  H19A 1891   4.698   6.220   9.963  2.0751 -0.0722 -0.7658
   26CHL1  H19B 1892   4.783   6.247   9.814  1.3407  0.8982  1.9682
   26CHL1  H19C 1893   4.597   6.240   9.821 -1.5322 -2.2513  0.9451
   26CHL1    C1 1894   4.590   5.976   9.942 -0.0693  0.2696  0.4776
   26CHL1   H1A 1895   4.491   6.027   9.935  0.6287  1.4779 -0.7111
   26CHL1   H1B 1896   4.584   5.868   9.915  0.5577  0.0766  1.1102
   26CHL1    C2 1897   4.615   5.966  10.094  0.0920 -0.6483 -0.0981
   26CHL1   H2A 1898   4.539   5.920  10.161 -0.1990  1.7060  1.2697
   26CHL1   H2B 1899   4.616   6.068  10.138 -1.0813  0.3647 -2.2781
   26CHL1   C20 1900   4.540   6.004   9.167 -0.2664 -0.2251  0.2068
   26CHL1   H20 1901   4.587   6.086   9.109 -2.6053 -0.1339 -1.6017
   26CHL1   C21 1902   4.393   6.038   9.205  0.2319 -0.1931 -0.1287
   26CHL1  H21A 1903   4.328   6.055   9.116 -2.3726  0.1943  1.7853
   26CHL1  H21B 1904   4.386   6.135   9.259 -1.1268  0.0536 -0.7215
   26CHL1  H21C 1905   4.354   5.958   9.272 -1.9071  0.0321 -1.0705
   26CHL1   C22 1906   4.539   5.892   9.060 -0.1085 -0.4209 -0.8731
   26CHL1  H22A 1907   4.616   5.812   9.057  0.6574  0.2340  0.7058
   26CHL1  H22B 1908   4.449   5.834   9.088  1.0513 -1.6314  0.4189
   26CHL1   C23 1909   4.516   5.938   8.913  0.3274 -0.9504 -0.4239
   26CHL1  H23A 1910   4.423   5.998   8.906  0.8007 -0.1592 -0.0844
   26CHL1  H23B 1911   4.599   6.008   8.889  0.9594 -1.7011 -0.4605
   26CHL1   C24 1912   4.511   5.821   8.814 -0.4245  0.0680 -0.3773
   26CHL1  H24A 1913   4.604   5.763   8.831 -1.1549 -1.0507 -0.1654
   26CHL1  H24B 1914   4.419   5.764   8.838 -1.7396  2.4204  0.3566
   26CHL1   C25 1915   4.496   5.870   8.668 -0.2395 -0.3136 -0.5623
   26CHL1   H25 1916   4.582   5.938   8.652 -0.9677  1.1120  1.5174
   26CHL1   C26 1917   4.512   5.747   8.573 -0.7390 -0.8919  0.3455
   26CHL1  H26A 1918   4.610   5.702   8.600 -0.5582 -1.7844 -1.6628
   26CHL1  H26B 1919   4.428   5.675   8.574  0.7930 -2.7782 -1.3417
   26CHL1  H26C 1920   4.512   5.785   8.468 -0.0363  1.7255  1.2364
   26CHL1   C27 1921   4.362   5.940   8.640  0.1604  0.0059  0.0841
   26CHL1  H27A 1922   4.368   6.040   8.688 -1.6509 -1.1042  2.6838
   26CHL1  H27B 1923   4.350   5.958   8.531 -1.4759  1.4055  0.4688
   26CHL1  H27C 1924   4.269   5.883   8.660 -0.3886  0.2969 -1.5022
   27CHL1    C3 1925   3.904   3.313  10.244  0.0006 -0.1540  0.0166
   27CHL1    H3 1926   3.972   3.400  10.240  0.7095 -0.7052  0.1017
   27CHL1    O3 1927   3.914   3.270  10.374 -0.1254  0.1926 -0.6806
   27CHL1   H3' 1928   3.844   3.206  10.386  0.7521 -0.4684  1.0826
   27CHL1    C4 1929   3.759   3.348  10.214  0.1160  0.2197  0.1922
   27CHL1   H4A 1930   3.695   3.264  10.247  0.5520 -0.0167  0.4296
   27CHL1   H4B 1931   3.735   3.430  10.285  2.0363  1.1717 -0.2461
   27CHL1    C5 1932   3.726   3.389  10.078 -0.1970 -0.2451 -0.1049
   27CHL1    C6 1933   3.658   3.503  10.051  0.4062 -0.0856 -0.1413
   27CHL1    H6 1934   3.623   3.568  10.132 -1.9571 -2.3232  0.7228
   27CHL1    C7 1935   3.625   3.537   9.906  0.3637  0.0065 -0.2080
   27CHL1   H7A 1936   3.521   3.574   9.893  0.9218  1.6053 -0.2254
   27CHL1   H7B 1937   3.687   3.624   9.874 -2.7299  1.9885 -1.0139
   27CHL1    C8 1938   3.641   3.422   9.804  0.3062 -0.0929  0.1473
   27CHL1    H8 1939   3.558   3.349   9.819 -0.0786 -0.2674 -2.5237
   27CHL1   C14 1940   3.638   3.478   9.662 -1.0593  0.6436  0.2804
   27CHL1   H14 1941   3.716   3.556   9.648 -1.0570  0.4056 -1.2045
   27CHL1   C15 1942   3.506   3.550   9.624  0.0274  0.2912  0.0196
   27CHL1  H15A 1943   3.418   3.501   9.670 -0.6835 -0.4012 -2.0418
   27CHL1  H15B 1944   3.530   3.652   9.663  3.5565 -0.0625 -1.0046
   27CHL1   C16 1945   3.491   3.559   9.478  0.4063  0.5454 -0.2393
   27CHL1  H16A 1946   3.396   3.505   9.459 -0.9968  2.7404  0.4288
   27CHL1  H16B 1947   3.477   3.657   9.428 -2.6957  0.7593  0.9452
   27CHL1   C17 1948   3.621   3.480   9.427  0.6596  0.4981 -0.4257
   27CHL1   H17 1949   3.703   3.554   9.431  0.7209  0.3780  0.8412
   27CHL1   C13 1950   3.660   3.383   9.545 -0.2242 -0.0620  0.3141
   27CHL1   C18 1951   3.559   3.267   9.550 -0.3875 -0.4837 -0.4263
   27CHL1  H18A 1952   3.562   3.222   9.651  2.2663  0.3308 -0.0841
   27CHL1  H18B 1953   3.457   3.301   9.522 -1.3590 -0.6688  2.7143
   27CHL1  H18C 1954   3.596   3.187   9.482  0.6525 -0.5988  0.2658
   27CHL1   C12 1955   3.807   3.334   9.559 -0.1717 -0.5632 -0.7160
   27CHL1  H12A 1956   3.844   3.260   9.485 -0.3643 -0.4486 -0.9274
   27CHL1  H12B 1957   3.877   3.421   9.556 -0.9729  0.0804 -0.8907
   27CHL1   C11 1958   3.824   3.273   9.692 -0.3374 -0.6418  0.1034
   27CHL1  H11A 1959   3.763   3.181   9.699  0.2784 -0.9580  1.7084
   27CHL1  H11B 1960   3.931   3.245   9.709  0.0711  1.3730  0.9897
   27CHL1    C9 1961   3.778   3.360   9.822 -0.1608 -0.0056 -0.3031
   27CHL1    H9 1962   3.855   3.441   9.825  0.1705 -0.3310 -0.0842
   27CHL1   C10 1963   3.785   3.293   9.965  0.3151  0.7497  0.2403
   27CHL1   C19 1964   3.701   3.170   9.969  0.0033  0.4001 -0.0609
   27CHL1  H19A 1965   3.594   3.197   9.957 -0.1596 -0.8863 -1.7748
   27CHL1  H19B 1966   3.726   3.091   9.894  1.7896  1.1133 -0.2422
   27CHL1  H19C 1967   3.710   3.117  10.066  2.0338 -1.4148 -1.1832
   27CHL1    C1 1968   3.932   3.256   9.996  0.3076  1.1039 -1.0828
   27CHL1   H1A 1969   3.973   3.181   9.925 -0.7579  0.1689 -0.7359
   27CHL1   H1B 1970   3.994   3.345   9.974 -0.0253  1.5480 -0.2700
   27CHL1    C2 1971   3.960   3.210  10.142 -0.1185 -1.1946  0.3215
   27CHL1   H2A 1972   4.071   3.203  10.152  0.0702  0.6970 -0.2508
   27CHL1   H2B 1973   3.923   3.107  10.159 -1.3771 -0.5821  1.3423
   27CHL1   C20 1974   3.591   3.420   9.288 -0.0219  0.1106  0.0402
   27CHL1   H20 1975   3.522   3.334   9.304  3.0907 -2.5557 -0.2679
   27CHL1   C21 1976   3.719   3.362   9.236 -0.2240  0.1163  0.5164
   27CHL1  H21A 1977   3.738   3.266   9.289  3.2127 -0.3843 -1.4223
   27CHL1  H21B 1978   3.812   3.419   9.258 -1.2029  1.8513  0.1860
   27CHL1  H21C 1979   3.723   3.341   9.127  0.0403 -1.8842  0.8929
   27CHL1   C22 1980   3.537   3.537   9.188 -0.0903  1.0191  0.2827
   27CHL1  H22A 1981   3.513   3.490   9.091  0.6020  1.3194 -0.0349
   27CHL1  H22B 1982   3.439   3.572   9.228 -0.7388  1.9010 -2.0312
   27CHL1   C23 1983   3.639   3.650   9.152  0.1925 -0.2553 -0.5425
   27CHL1  H23A 1984   3.683   3.691   9.245  0.1103 -0.2755 -0.4947
   27CHL1  H23B 1985   3.723   3.620   9.086 -0.3510 -1.8931 -0.5062
   27CHL1   C24 1986   3.581   3.776   9.089  0.2195 -0.5829 -0.4412
   27CHL1  H24A 1987   3.509   3.821   9.160  3.4417  3.5170  0.4316
   27CHL1  H24B 1988   3.662   3.852   9.083  1.1145 -1.4614  0.3126
   27CHL1   C25 1989   3.514   3.743   8.946  0.5597 -0.3200  0.2004
   27CHL1   H25 1990   3.437   3.665   8.965  0.5763 -0.3777  0.0300
   27CHL1   C26 1991   3.447   3.870   8.883 -1.1815 -0.7023 -0.1016
   27CHL1  H26A 1992   3.373   3.900   8.960 -0.9503 -0.1976 -0.0715
   27CHL1  H26B 1993   3.525   3.947   8.866 -1.4327 -1.0106 -2.7681
   27CHL1  H26C 1994   3.405   3.853   8.782 -0.1653 -2.1001 -0.2897
   27CHL1   C27 1995   3.607   3.680   8.847  0.1422  0.5145  0.3551
   27CHL1  H27A 1996   3.564   3.672   8.745 -1.3042 -0.4991  1.0360
   27CHL1  H27B 1997   3.703   3.735   8.835  0.0721  0.5885  0.1286
   27CHL1  H27C 1998   3.636   3.578   8.880  1.3244  0.6021 -0.3407
   28CHL1    C3 1999   2.908   1.972  10.074  0.6179 -0.2518 -0.1756
   28CHL1    H3 2000   3.006   1.922  10.058  1.8424  2.6955 -2.4703
   28CHL1    O3 2001   2.913   2.006  10.213 -0.3194  0.1525  0.6051
   28CHL1   H3' 2002   2.833   2.056  10.228 -1.2784 -1.8821  2.6296
   28CHL1    C4 2003   2.891   2.096   9.986  0.9504 -0.6268 -0.0420
   28CHL1   H4A 2004   2.800   2.148  10.022  0.2457 -1.1979 -0.9549
   28CHL1   H4B 2005   2.972   2.169  10.008  0.3003  0.3131 -0.7020
   28CHL1    C5 2006   2.884   2.069   9.833  0.1869 -0.1100 -0.6595
   28CHL1    C6 2007   2.965   2.121   9.745 -0.3268 -0.1310  1.0352
   28CHL1    H6 2008   3.030   2.205   9.775  0.9129 -0.5921 -0.3250
   28CHL1    C7 2009   2.955   2.085   9.595  0.4311  0.2428 -0.2293
   28CHL1   H7A 2010   2.961   2.175   9.530  2.7700  0.9903  0.9960
   28CHL1   H7B 2011   3.035   2.013   9.569 -0.1986  0.0841 -1.7502
   28CHL1    C8 2012   2.823   2.014   9.552 -0.2103  0.6791  0.2695
   28CHL1    H8 2013   2.741   2.090   9.552  1.2003  2.2368 -0.8091
   28CHL1   C14 2014   2.835   1.948   9.415  0.5564 -0.8648 -0.4657
   28CHL1   H14 2015   2.914   1.871   9.430  3.1529  1.4963 -1.6082
   28CHL1   C15 2016   2.883   2.043   9.303 -0.6547  0.1058  0.2509
   28CHL1  H15A 2017   2.829   2.140   9.304 -1.9767 -0.5985 -0.5287
   28CHL1  H15B 2018   2.990   2.070   9.311 -0.3294 -1.2147  0.4255
   28CHL1   C16 2019   2.843   1.961   9.180  0.2337 -0.3625 -0.1346
   28CHL1  H16A 2020   2.785   2.024   9.109  2.3435  1.6182 -0.1717
   28CHL1  H16B 2021   2.927   1.929   9.115 -1.3697  0.6647 -2.7812
   28CHL1   C17 2022   2.762   1.837   9.215 -0.2277  0.4941 -0.1882
   28CHL1   H17 2023   2.840   1.761   9.236 -1.1280 -0.0512  1.2241
   28CHL1   C13 2024   2.713   1.874   9.359  0.5205  0.9561  0.1882
   28CHL1   C18 2025   2.584   1.954   9.344  0.7863  0.9759  0.7622
   28CHL1  H18A 2026   2.576   2.011   9.439 -0.7833 -2.1752  2.6026
   28CHL1  H18B 2027   2.594   2.026   9.259 -0.4271  0.7487  0.4246
   28CHL1  H18C 2028   2.502   1.881   9.325  1.6365  0.1208  0.3420
   28CHL1   C12 2029   2.687   1.759   9.463 -0.0703 -0.3885  0.8064
   28CHL1  H12A 2030   2.591   1.707   9.445 -0.1136  0.5609 -2.0112
   28CHL1  H12B 2031   2.778   1.695   9.457 -1.7238 -2.7985  0.8819
   28CHL1   C11 2032   2.667   1.823   9.605 -0.2029 -0.9123  0.6386
   28CHL1  H11A 2033   2.576   1.887   9.603  1.9785  2.3187 -0.7440
   28CHL1  H11B 2034   2.645   1.737   9.671 -1.2478 -1.4509 -0.3973
   28CHL1    C9 2035   2.784   1.909   9.650  0.2610 -0.0241 -0.8714
   28CHL1    H9 2036   2.874   1.844   9.644 -0.1449 -0.7049  0.3387
   28CHL1   C10 2037   2.775   1.961   9.798  0.2115 -0.6232  0.6889
   28CHL1   C19 2038   2.638   2.015   9.821  0.5655  0.4079  0.5220
   28CHL1  H19A 2039   2.627   2.086   9.906  1.0932  0.6077  0.4236
   28CHL1  H19B 2040   2.604   2.081   9.738 -3.0535  1.2558  2.5695
   28CHL1  H19C 2041   2.561   1.937   9.835  1.1589 -0.1229  0.8250
   28CHL1    C1 2042   2.787   1.840   9.897  0.2933 -0.4170 -1.3457
   28CHL1   H1A 2043   2.706   1.767   9.874 -1.2421  0.5629  0.8160
   28CHL1   H1B 2044   2.881   1.789   9.868  0.7511 -0.3246 -0.0267
   28CHL1    C2 2045   2.794   1.879  10.047 -0.4633  0.0250 -0.6039
   28CHL1   H2A 2046   2.807   1.781  10.098  1.0483  0.6669  0.2589
   28CHL1   H2B 2047   2.699   1.920  10.087  0.1418  0.4256  0.4294
   28CHL1   C20 2048   2.659   1.789   9.124  0.8449  0.2374  0.0778
   28CHL1   H20 2049   2.590   1.875   9.117 -1.6103 -1.6860  0.0563
   28CHL1   C21 2050   2.596   1.659   9.185  0.3011  0.2855 -0.2706
   28CHL1  H21A 2051   2.513   1.693   9.250 -0.9288  0.9819 -2.1772
   28CHL1  H21B 2052   2.674   1.607   9.245 -1.8423 -1.9242  0.6940
   28CHL1  H21C 2053   2.553   1.593   9.108  2.4752  0.4884 -1.7185
   28CHL1   C22 2054   2.708   1.748   8.983 -0.9889  0.1451  0.2228
   28CHL1  H22A 2055   2.613   1.718   8.934 -0.0050 -1.3179 -0.8201
   28CHL1  H22B 2056   2.751   1.841   8.938 -1.0480 -0.8660 -2.0019
   28CHL1   C23 2057   2.827   1.640   8.976  0.0185  0.6136 -0.2580
   28CHL1  H23A 2058   2.912   1.674   9.039 -0.8024  0.7954  0.7563
   28CHL1  H23B 2059   2.789   1.547   9.023  0.4712  1.1839  1.2588
   28CHL1   C24 2060   2.862   1.604   8.832 -0.2885  0.4118  0.1515
   28CHL1  H24A 2061   2.772   1.550   8.794  0.6795 -1.5566  0.6014
   28CHL1  H24B 2062   2.884   1.690   8.766  4.6050 -0.1154  0.9036
   28CHL1   C25 2063   2.979   1.513   8.817 -0.1097  1.2105 -0.0304
   28CHL1   H25 2064   2.955   1.426   8.881  0.0301  1.6662  0.6413
   28CHL1   C26 2065   2.982   1.464   8.670  0.1359 -0.4056 -0.8835
   28CHL1  H26A 2066   3.007   1.539   8.592  3.1458 -0.3562  0.0760
   28CHL1  H26B 2067   3.062   1.387   8.663  3.6523  2.6660  2.8991
   28CHL1  H26C 2068   2.892   1.410   8.634  0.1372  0.7331 -2.6788
   28CHL1   C27 2069   3.112   1.577   8.854  0.0163  0.1840 -0.0684
   28CHL1  H27A 2070   3.119   1.672   8.797  1.7982 -0.4308 -0.9173
   28CHL1  H27B 2071   3.123   1.614   8.958  0.0452 -0.6351  0.2258
   28CHL1  H27C 2072   3.200   1.510   8.836 -0.1915 -0.3372  0.8190
   29CHL1    C3 2073   4.390   6.175   6.689  0.0073 -0.2177  0.6377
   29CHL1    H3 2074   4.292   6.123   6.676  0.6160 -1.5790  1.4265
   29CHL1    O3 2075   4.471   6.164   6.572 -0.2726  0.2492  0.6040
   29CHL1   H3' 2076   4.437   6.225   6.507  1.3143  0.4742 -0.0327
   29CHL1    C4 2077   4.373   6.328   6.729 -0.2930 -0.5672 -0.2135
   29CHL1   H4A 2078   4.469   6.384   6.725  0.0858 -1.2186 -0.4644
   29CHL1   H4B 2079   4.302   6.379   6.661  2.6778  2.8844 -0.8940
   29CHL1    C5 2080   4.324   6.346   6.871 -1.0991 -0.1624  0.4008
   29CHL1    C6 2081   4.227   6.437   6.905  0.2614  0.2845  0.0890
   29CHL1    H6 2082   4.179   6.490   6.821 -1.4181 -2.2092 -0.5945
   29CHL1    C7 2083   4.167   6.462   7.039  0.1036  0.2077 -0.3846
   29CHL1   H7A 2084   4.148   6.571   7.048 -0.4738 -0.0047  1.0990
   29CHL1   H7B 2085   4.068   6.413   7.050  1.8763 -3.5210 -0.2719
   29CHL1    C8 2086   4.268   6.411   7.145 -0.2061  0.4340  0.4856
   29CHL1    H8 2087   4.360   6.472   7.145  0.0967 -0.0151 -0.8055
   29CHL1   C14 2088   4.199   6.409   7.281 -0.5348 -0.5127 -0.3131
   29CHL1   H14 2089   4.114   6.339   7.270 -2.2737  1.6064 -0.6625
   29CHL1   C15 2090   4.133   6.529   7.333  0.1480  0.3463 -0.6334
   29CHL1  H15A 2091   4.196   6.620   7.322  0.8594  0.1200  1.5049
   29CHL1  H15B 2092   4.034   6.545   7.283  0.1485 -1.3394 -1.2156
   29CHL1   C16 2093   4.106   6.502   7.485 -0.1796 -0.3015 -0.0170
   29CHL1  H16A 2094   4.132   6.596   7.538 -1.5110 -0.2182  0.5281
   29CHL1  H16B 2095   3.998   6.480   7.499 -0.6241  1.0532 -1.2525
   29CHL1   C17 2096   4.206   6.386   7.522 -0.3203  0.7921  0.2744
   29CHL1   H17 2097   4.138   6.298   7.523  0.7217 -0.0465 -0.8698
   29CHL1   C13 2098   4.284   6.355   7.393 -0.3986 -0.1967 -0.1135
   29CHL1   C18 2099   4.417   6.440   7.402  0.0759  0.0315  0.0926
   29CHL1  H18A 2100   4.473   6.429   7.307  0.2144  1.1005  0.0460
   29CHL1  H18B 2101   4.409   6.550   7.413 -0.8147  0.1832 -1.8262
   29CHL1  H18C 2102   4.484   6.397   7.480 -0.1649  1.4306  1.0930
   29CHL1   C12 2103   4.312   6.203   7.359 -0.0270  0.3615  0.1806
   29CHL1  H12A 2104   4.392   6.166   7.427 -0.0285 -0.8879 -0.4781
   29CHL1  H12B 2105   4.224   6.138   7.376  0.9146  0.0199  4.0688
   29CHL1   C11 2106   4.371   6.187   7.220 -0.3676 -0.4407 -0.1846
   29CHL1  H11A 2107   4.479   6.212   7.229 -0.7293  1.0240  0.2469
   29CHL1  H11B 2108   4.368   6.080   7.189 -0.6155 -0.3121 -0.6123
   29CHL1    C9 2109   4.306   6.263   7.105  0.1685 -0.0841 -0.0219
   29CHL1    H9 2110   4.216   6.204   7.074 -2.0055  2.9621  0.3126
   29CHL1   C10 2111   4.391   6.262   6.978  0.7113  0.4437 -0.2782
   29CHL1   C19 2112   4.534   6.312   6.999  0.4621 -0.2281  0.5763
   29CHL1  H19A 2113   4.539   6.408   7.053 -1.4541 -1.4261  3.0082
   29CHL1  H19B 2114   4.588   6.236   7.060  0.8387 -0.7148 -0.3559
   29CHL1  H19C 2115   4.592   6.317   6.905  1.2015 -0.3609  1.0185
   29CHL1    C1 2116   4.405   6.113   6.930  0.0481  0.4053 -0.2650
   29CHL1   H1A 2117   4.459   6.048   7.002  0.4180  1.2355  0.2158
   29CHL1   H1B 2118   4.302   6.072   6.924  1.3032 -2.9020 -0.2301
   29CHL1    C2 2119   4.465   6.098   6.792 -0.4013  0.5105 -0.6830
   29CHL1   H2A 2120   4.469   5.993   6.755 -0.4262  1.1395 -2.4868
   29CHL1   H2B 2121   4.565   6.146   6.793 -1.0983  2.0146 -1.3918
   29CHL1   C20 2122   4.271   6.397   7.661 -0.6591 -0.1653  0.5466
   29CHL1   H20 2123   4.362   6.460   7.655 -1.5451  1.1415  0.3615
   29CHL1   C21 2124   4.307   6.254   7.707  0.1035 -0.3366 -0.1487
   29CHL1  H21A 2125   4.350   6.265   7.809  0.6707 -0.4442 -0.3711
   29CHL1  H21B 2126   4.386   6.207   7.644  0.7461  0.4345  0.0716
   29CHL1  H21C 2127   4.218   6.188   7.708 -0.7503  0.8061 -0.2649
   29CHL1   C22 2128   4.184   6.464   7.772 -0.6091  0.4868 -0.2004
   29CHL1  H22A 2129   4.153   6.563   7.733 -0.6174  1.0088  1.1041
   29CHL1  H22B 2130   4.087   6.413   7.784 -0.0930 -1.0223 -2.1101
   29CHL1   C23 2131   4.247   6.490   7.911  0.7216 -0.4698 -0.5189
   29CHL1  H23A 2132   4.171   6.533   7.979  1.5356  1.8559 -1.0237
   29CHL1  H23B 2133   4.286   6.392   7.948  0.0833 -0.6075 -0.2176
   29CHL1   C24 2134   4.368   6.587   7.905  0.7028 -0.7316 -0.3910
   29CHL1  H24A 2135   4.397   6.621   8.006 -0.2830  0.9958 -0.6703
   29CHL1  H24B 2136   4.452   6.538   7.852  0.9811 -1.0930  0.3820
   29CHL1   C25 2137   4.345   6.713   7.822 -0.0746  0.1387  0.6401
   29CHL1   H25 2138   4.332   6.684   7.715 -1.8481 -0.7052  1.0684
   29CHL1   C26 2139   4.228   6.806   7.869 -0.7082  0.3975 -0.2583
   29CHL1  H26A 2140   4.211   6.896   7.807 -0.8830  1.9109  1.9557
   29CHL1  H26B 2141   4.133   6.749   7.862  1.9772 -4.1913 -1.6155
   29CHL1  H26C 2142   4.250   6.827   7.976 -0.4435 -2.0953  0.2111
   29CHL1   C27 2143   4.474   6.795   7.821 -0.4738  0.2866 -0.3464
   29CHL1  H27A 2144   4.474   6.885   7.756 -1.2940  0.4174 -0.1761
   29CHL1  H27B 2145   4.498   6.833   7.922  0.4974 -2.7815  0.6332
   29CHL1  H27C 2146   4.557   6.726   7.797 -1.3861 -0.7845 -0.4840
   30CHL1    C3 2147   2.778   5.295   7.261  0.4710  0.3435 -0.9335
   30CHL1    H3 2148   2.845   5.206   7.256  1.6158  0.9997  1.9953
   30CHL1    O3 2149   2.753   5.322   7.118  0.4229  0.2275  0.4581
   30CHL1   H3' 2150   2.694   5.398   7.118  2.2912  1.7268  0.1772
   30CHL1    C4 2151   2.655   5.255   7.341 -0.1379  0.3410 -0.4243
   30CHL1   H4A 2152   2.576   5.334   7.345 -0.6462 -0.2232  0.9202
   30CHL1   H4B 2153   2.595   5.177   7.289  1.5121 -0.4513 -1.1608
   30CHL1    C5 2154   2.697   5.221   7.485 -0.3192 -0.2010  0.4982
   30CHL1    C6 2155   2.691   5.093   7.537  0.1715 -0.1828 -0.4334
   30CHL1    H6 2156   2.651   5.008   7.479 -1.7466 -1.5583  2.7629
   30CHL1    C7 2157   2.735   5.075   7.681 -0.5140 -0.3501 -0.6553
   30CHL1   H7A 2158   2.666   5.001   7.728 -0.4635  0.0331  0.0326
   30CHL1   H7B 2159   2.838   5.033   7.677  0.6702  2.4034 -0.2348
   30CHL1    C8 2160   2.729   5.202   7.766 -0.1817 -0.5630 -0.7611
   30CHL1    H8 2161   2.622   5.234   7.762  0.5779  2.3726  0.8583
   30CHL1   C14 2162   2.775   5.176   7.908  0.1118  0.4788 -0.2634
   30CHL1   H14 2163   2.881   5.148   7.891 -0.2526 -1.9832  1.3585
   30CHL1   C15 2164   2.704   5.058   7.980  0.6750 -0.4161  0.1522
   30CHL1  H15A 2165   2.595   5.072   7.965  0.8416  2.1966  1.0688
   30CHL1  H15B 2166   2.747   4.962   7.945  1.2445 -0.0091 -0.2716
   30CHL1   C16 2167   2.744   5.083   8.126  0.1257  0.8026 -0.1800
   30CHL1  H16A 2168   2.655   5.071   8.191 -2.2585 -0.7097 -3.6216
   30CHL1  H16B 2169   2.805   4.996   8.159 -1.6160 -0.6393 -0.6797
   30CHL1   C17 2170   2.822   5.213   8.133 -0.5001  0.4017  0.1318
   30CHL1   H17 2171   2.930   5.192   8.122 -0.6127  0.2983 -0.8562
   30CHL1   C13 2172   2.781   5.291   8.007  0.8220  0.3647  0.6824
   30CHL1   C18 2173   2.633   5.348   8.022  0.2265  0.5427  0.5498
   30CHL1  H18A 2174   2.602   5.384   7.923 -1.1070 -0.0830  0.7327
   30CHL1  H18B 2175   2.555   5.278   8.059  0.7877 -0.5362 -0.2727
   30CHL1  H18C 2176   2.635   5.437   8.089  0.3249  1.8351 -1.1505
   30CHL1   C12 2177   2.881   5.394   7.947  0.4456  0.4151 -0.1974
   30CHL1  H12A 2178   2.904   5.476   8.017 -0.3375 -0.3132  0.9326
   30CHL1  H12B 2179   2.975   5.336   7.934  1.1899  1.7370 -0.7759
   30CHL1   C11 2180   2.841   5.429   7.798  0.6103  0.3284 -0.8697
   30CHL1  H11A 2181   2.752   5.495   7.803 -1.4160 -2.3092 -1.0429
   30CHL1  H11B 2182   2.924   5.489   7.755  1.9890 -1.0313 -0.1279
   30CHL1    C9 2183   2.815   5.313   7.704 -0.1186 -0.1593  0.1349
   30CHL1    H9 2184   2.914   5.264   7.693  0.1687  0.6589 -0.9749
   30CHL1   C10 2185   2.756   5.348   7.560 -0.1355 -0.6731 -0.4816
   30CHL1   C19 2186   2.646   5.450   7.575  0.4310  0.0110  0.0429
   30CHL1  H19A 2187   2.590   5.472   7.482  0.5212 -2.4119 -0.6357
   30CHL1  H19B 2188   2.576   5.421   7.656 -1.7456  1.0138 -1.4318
   30CHL1  H19C 2189   2.693   5.548   7.596  0.3517 -0.7248  4.2045
   30CHL1    C1 2190   2.869   5.401   7.467 -0.1655  0.3936 -0.8313
   30CHL1   H1A 2191   2.901   5.501   7.504  2.3192 -0.3273 -0.9041
   30CHL1   H1B 2192   2.958   5.337   7.489 -0.8154  0.2885  1.5914
   30CHL1    C2 2193   2.841   5.416   7.318  0.1999 -0.6679 -0.4469
   30CHL1   H2A 2194   2.930   5.442   7.257 -0.8309  1.9907 -0.8850
   30CHL1   H2B 2195   2.775   5.505   7.309  0.9279 -0.1155 -0.3646
   30CHL1   C20 2196   2.816   5.288   8.272 -0.2903 -0.5026 -0.2484
   30CHL1   H20 2197   2.708   5.304   8.290 -0.1904 -0.5360  0.4062
   30CHL1   C21 2198   2.887   5.427   8.282 -0.1829  0.1335  0.3326
   30CHL1  H21A 2199   2.892   5.474   8.382  1.2837 -0.8759  0.7477
   30CHL1  H21B 2200   2.846   5.506   8.215  0.6881  0.2067 -0.1211
   30CHL1  H21C 2201   2.995   5.426   8.255 -0.4149  2.1699 -0.7943
   30CHL1   C22 2202   2.868   5.196   8.386 -0.1207  0.1204 -0.3935
   30CHL1  H22A 2203   2.837   5.246   8.481  0.4090  0.5007 -0.4201
   30CHL1  H22B 2204   2.817   5.098   8.390  0.3954 -0.1368 -0.0055
   30CHL1   C23 2205   3.018   5.163   8.395 -0.2971 -0.2632 -0.9929
   30CHL1  H23A 2206   3.054   5.157   8.290  2.2670  0.3340 -0.1791
   30CHL1  H23B 2207   3.069   5.247   8.447 -2.2019 -0.2091  0.8604
   30CHL1   C24 2208   3.049   5.032   8.472 -0.6860  0.1878  0.1054
   30CHL1  H24A 2209   3.159   5.021   8.465 -0.9565 -3.4452  0.5774
   30CHL1  H24B 2210   3.013   5.048   8.576 -1.2944 -0.3314 -0.0216
   30CHL1   C25 2211   3.001   4.890   8.417  0.0043 -0.1145 -0.4760
   30CHL1   H25 2212   2.891   4.894   8.399 -0.1502 -1.7109  0.0488
   30CHL1   C26 2213   3.085   4.847   8.294  0.4637 -0.4435 -0.3435
   30CHL1  H26A 2214   3.186   4.843   8.340 -0.3286 -3.3360  1.2614
   30CHL1  H26B 2215   3.057   4.756   8.237  0.4288  0.6054 -2.0379
   30CHL1  H26C 2216   3.076   4.926   8.216 -0.4968 -0.1415  0.0661
   30CHL1   C27 2217   3.020   4.783   8.526 -0.3003 -0.4620  0.6296
   30CHL1  H27A 2218   2.966   4.688   8.506  1.1653 -1.0222 -0.7786
   30CHL1  H27B 2219   3.128   4.756   8.528 -0.1636  0.2200  2.3838
   30CHL1  H27C 2220   2.973   4.814   8.621  0.3088 -1.8816  1.4215
   31CHL1    C3 2221   1.972   0.538   6.681 -0.1460  0.3489  0.0147
   31CHL1    H3 2222   2.073   0.493   6.692  0.1880  0.2486 -2.9019
   31CHL1    O3 2223   1.943   0.549   6.540  0.9289 -0.2828  0.1679
   31CHL1   H3' 2224   1.848   0.560   6.536  0.8936 -0.7329 -0.1829
   31CHL1    C4 2225   1.874   0.446   6.754 -1.0130 -0.4395  0.3922
   31CHL1   H4A 2226   1.779   0.501   6.734  0.7055  2.5091  0.0732
   31CHL1   H4B 2227   1.872   0.356   6.690 -0.8710  2.6966 -4.2892
   31CHL1    C5 2228   1.894   0.426   6.897  0.3303  0.6862 -0.3404
   31CHL1    C6 2229   1.914   0.307   6.955 -0.2997  0.4577  0.3376
   31CHL1    H6 2230   1.919   0.214   6.896 -2.3692 -0.1276  1.0508
   31CHL1    C7 2231   1.913   0.293   7.107 -0.1372  0.0309  0.0567
   31CHL1   H7A 2232   1.834   0.223   7.141 -2.9080  2.8899 -0.2726
   31CHL1   H7B 2233   2.013   0.252   7.134  0.0131  0.9759  0.9928
   31CHL1    C8 2234   1.878   0.416   7.189 -0.8633  0.0258 -0.1832
   31CHL1    H8 2235   1.768   0.432   7.188 -0.8970 -0.0873  1.0043
   31CHL1   C14 2236   1.938   0.408   7.338 -0.4158 -0.7697  0.9858
   31CHL1   H14 2237   2.048   0.394   7.330 -0.5764 -1.0687 -0.7662
   31CHL1   C15 2238   1.877   0.290   7.419  0.1989  0.0433  0.2078
   31CHL1  H15A 2239   1.768   0.284   7.397 -0.2150  3.6416  0.9205
   31CHL1  H15B 2240   1.925   0.194   7.391  0.3692 -0.1052  1.0068
   31CHL1   C16 2241   1.904   0.332   7.564 -0.4271 -0.9340 -0.4164
   31CHL1  H16A 2242   1.810   0.328   7.622 -0.4581 -0.1833 -0.4071
   31CHL1  H16B 2243   1.967   0.256   7.614  2.2151  0.4444 -1.5487
   31CHL1   C17 2244   1.963   0.482   7.561  0.0515 -0.4819 -0.0136
   31CHL1   H17 2245   2.074   0.473   7.560  0.0139 -0.8982 -0.7787
   31CHL1   C13 2246   1.915   0.535   7.422  0.4046 -0.1362  0.0083
   31CHL1   C18 2247   1.765   0.575   7.437 -0.4152 -0.3185  0.6359
   31CHL1  H18A 2248   1.704   0.506   7.500 -1.3961  1.3259  1.5438
   31CHL1  H18B 2249   1.759   0.679   7.475  0.3783  0.9195 -2.5152
   31CHL1  H18C 2250   1.711   0.585   7.341 -2.1981  0.4606  1.6982
   31CHL1   C12 2251   1.999   0.640   7.355 -0.7345 -0.0650  0.1060
   31CHL1  H12A 2252   2.002   0.740   7.403 -0.5866  0.4503 -0.9637
   31CHL1  H12B 2253   2.105   0.613   7.335 -0.5235 -0.7008  2.0415
   31CHL1   C11 2254   1.947   0.669   7.210  0.3544 -0.5194  0.3006
   31CHL1  H11A 2255   1.847   0.715   7.224  1.0378  0.9522  0.4395
   31CHL1  H11B 2256   2.018   0.742   7.165 -0.1117 -0.4455 -0.3144
   31CHL1    C9 2257   1.943   0.540   7.123  0.0245 -0.1391  0.6120
   31CHL1    H9 2258   2.051   0.514   7.113  0.7125  3.0534 -0.8276
   31CHL1   C10 2259   1.902   0.561   6.974 -0.5351 -0.3373  0.3323
   31CHL1   C19 2260   1.757   0.625   6.970  0.4526 -0.0425  0.4769
   31CHL1  H19A 2261   1.764   0.734   6.989  0.0045  0.0314  0.2340
   31CHL1  H19B 2262   1.706   0.628   6.871 -0.1538 -3.1131  0.6369
   31CHL1  H19C 2263   1.691   0.571   7.041 -3.2672  1.8782 -1.3470
   31CHL1    C1 2264   2.002   0.647   6.906  0.3813  0.1947  0.3887
   31CHL1   H1A 2265   1.993   0.751   6.945 -2.4403 -0.0770  0.5866
   31CHL1   H1B 2266   2.103   0.601   6.916  0.8946  1.4178  0.9296
   31CHL1    C2 2267   1.978   0.670   6.752  0.6805  0.0967  0.1064
   31CHL1   H2A 2268   2.052   0.730   6.695  1.0959 -0.6311 -0.1277
   31CHL1   H2B 2269   1.881   0.720   6.734  0.3973 -0.9084 -1.2554
   31CHL1   C20 2270   1.952   0.571   7.689  0.3261  0.4731 -0.6633
   31CHL1   H20 2271   1.842   0.577   7.709 -0.2883 -4.0415 -2.2060
   31CHL1   C21 2272   1.997   0.708   7.675  0.4642 -0.3148 -0.1952
   31CHL1  H21A 2273   1.935   0.762   7.600  0.2297  0.4839  0.5693
   31CHL1  H21B 2274   2.104   0.727   7.651  0.2496  3.2633  1.4041
   31CHL1  H21C 2275   1.982   0.768   7.767 -2.1800 -3.1713  1.3284
   31CHL1   C22 2276   2.027   0.500   7.808  0.2205  0.3471 -0.3752
   31CHL1  H22A 2277   1.980   0.402   7.830 -0.9815  1.1876  0.9217
   31CHL1  H22B 2278   2.133   0.476   7.785 -0.3809 -1.7636 -1.0113
   31CHL1   C23 2279   2.026   0.573   7.946 -0.2408  0.3075  0.2721
   31CHL1  H23A 2280   2.078   0.670   7.934  0.7993 -0.4589 -1.7525
   31CHL1  H23B 2281   1.920   0.587   7.976  0.0926 -0.7021  2.0046
   31CHL1   C24 2282   2.103   0.495   8.056 -0.4272 -0.0451 -0.5543
   31CHL1  H24A 2283   2.057   0.393   8.054  0.1125 -0.2698 -2.1326
   31CHL1  H24B 2284   2.209   0.479   8.026 -0.0724 -0.3225  0.8211
   31CHL1   C25 2285   2.087   0.552   8.201  0.3973 -0.1349  0.4977
   31CHL1   H25 2286   2.116   0.660   8.203 -0.6505  0.1785 -0.8483
   31CHL1   C26 2287   1.940   0.546   8.260 -0.3678 -0.1092  0.1871
   31CHL1  H26A 2288   1.927   0.587   8.362  1.1678 -0.9960  0.7429
   31CHL1  H26B 2289   1.877   0.600   8.185 -1.2286 -1.8023 -0.3302
   31CHL1  H26C 2290   1.915   0.438   8.268  1.5132 -0.4863  1.2416
   31CHL1   C27 2291   2.179   0.482   8.302  0.3584  0.1505  0.0052
   31CHL1  H27A 2292   2.131   0.386   8.330  0.0450  0.4951  0.6756
   31CHL1  H27B 2293   2.207   0.546   8.389  0.8437 -0.4217  0.2762
   31CHL1  H27C 2294   2.273   0.456   8.249  0.9291 -1.5248  1.7634
   32CHL1    C3 2295   3.270   5.115   6.997  0.2346  0.1236  0.2687
   32CHL1    H3 2296   3.313   5.013   6.996 -1.6324 -0.6938 -0.1180
   32CHL1    O3 2297   3.236   5.149   6.864  0.4662 -0.2320 -0.6389
   32CHL1   H3' 2298   3.285   5.230   6.850 -1.2897  1.2976  1.6804
   32CHL1    C4 2299   3.144   5.112   7.089 -0.1192 -0.7065  0.2978
   32CHL1   H4A 2300   3.089   5.205   7.065  2.8171  1.0374  0.0938
   32CHL1   H4B 2301   3.083   5.028   7.048  1.5840 -1.9763  0.3002
   32CHL1    C5 2302   3.181   5.097   7.237  0.8692 -0.1601  0.2629
   32CHL1    C6 2303   3.128   4.999   7.315 -0.3318  0.2406  0.9459
   32CHL1    H6 2304   3.057   4.930   7.267 -1.2251  2.1881 -0.6364
   32CHL1    C7 2305   3.154   4.990   7.461 -1.1794  0.4215  0.3466
   32CHL1   H7A 2306   3.054   4.977   7.507 -0.5719  1.3131  1.9659
   32CHL1   H7B 2307   3.226   4.906   7.476 -1.2709  0.0890 -1.0480
   32CHL1    C8 2308   3.211   5.117   7.528 -0.3227  0.2069  0.2891
   32CHL1    H8 2309   3.125   5.186   7.526  0.3785  1.0805  0.2515
   32CHL1   C14 2310   3.253   5.094   7.668 -0.2781 -0.2804 -0.8119
   32CHL1   H14 2311   3.329   5.013   7.672  1.0170  0.9392 -0.1287
   32CHL1   C15 2312   3.149   5.051   7.768 -0.3041  0.2342 -0.4410
   32CHL1  H15A 2313   3.058   5.115   7.765 -0.1266  0.4827 -0.5071
   32CHL1  H15B 2314   3.106   4.950   7.755 -3.2224  1.3894 -0.3135
   32CHL1   C16 2315   3.216   5.069   7.902 -0.9882 -0.2901 -1.1166
   32CHL1  H16A 2316   3.145   5.113   7.976 -1.1248 -0.6453 -1.0385
   32CHL1  H16B 2317   3.251   4.974   7.946 -2.8323 -1.2532 -1.6697
   32CHL1   C17 2318   3.338   5.169   7.885 -0.1614 -0.9059  0.9372
   32CHL1   H17 2319   3.428   5.104   7.888  2.1652  2.2470  1.6341
   32CHL1   C13 2320   3.319   5.216   7.736 -0.5858  0.2086  0.4298
   32CHL1   C18 2321   3.227   5.335   7.741 -0.8209  0.1576 -0.7048
   32CHL1  H18A 2322   3.277   5.412   7.804 -0.0261 -3.2191  2.9768
   32CHL1  H18B 2323   3.212   5.374   7.638  1.4885 -2.3106 -2.0668
   32CHL1  H18C 2324   3.123   5.326   7.777 -0.1676  2.4585  1.9189
   32CHL1   C12 2325   3.447   5.252   7.663 -0.3108 -0.1811  0.1611
   32CHL1  H12A 2326   3.490   5.347   7.701 -1.5270 -0.1392  1.4401
   32CHL1  H12B 2327   3.515   5.166   7.683 -0.6475 -0.8062 -1.2928
   32CHL1   C11 2328   3.420   5.263   7.507 -0.2752 -0.2636 -0.2090
   32CHL1  H11A 2329   3.379   5.365   7.496 -2.1531 -0.8696  0.8938
   32CHL1  H11B 2330   3.521   5.263   7.459  0.3948  0.1795  1.1611
   32CHL1    C9 2331   3.329   5.158   7.439  0.3616  0.3192  0.0613
   32CHL1    H9 2332   3.394   5.068   7.434  0.7827  0.5314  1.4320
   32CHL1   C10 2333   3.281   5.194   7.294 -0.2447 -0.1161  0.0966
   32CHL1   C19 2334   3.221   5.332   7.282 -0.4848 -0.0485 -0.1748
   32CHL1  H19A 2335   3.294   5.414   7.263  0.1289  0.0656  2.5852
   32CHL1  H19B 2336   3.138   5.335   7.208 -0.6566 -1.2082 -0.0289
   32CHL1  H19C 2337   3.170   5.361   7.376  1.5621  0.1141  0.9212
   32CHL1    C1 2338   3.407   5.169   7.201  0.0720  0.9451 -0.4534
   32CHL1   H1A 2339   3.491   5.231   7.240  1.0686 -1.0202  0.6073
   32CHL1   H1B 2340   3.438   5.064   7.219  0.3167  1.6327  3.5528
   32CHL1    C2 2341   3.378   5.207   7.049 -0.1022 -0.6499  0.3198
   32CHL1   H2A 2342   3.469   5.200   6.985 -1.1989  1.8564 -1.6147
   32CHL1   H2B 2343   3.368   5.317   7.052 -0.5202 -0.6551 -0.5741
   32CHL1   C20 2344   3.358   5.277   7.997 -0.0204  0.0130  0.6828
   32CHL1   H20 2345   3.281   5.356   8.011 -0.0703  0.3473 -1.3019
   32CHL1   C21 2346   3.493   5.353   7.965 -0.0600  0.2182  0.0532
   32CHL1  H21A 2347   3.536   5.396   8.058 -0.5734 -0.2721  0.5189
   32CHL1  H21B 2348   3.483   5.428   7.884  0.0454 -0.0113 -0.1750
   32CHL1  H21C 2349   3.556   5.277   7.913 -0.7926 -0.2004 -0.2203
   32CHL1   C22 2350   3.366   5.213   8.135 -0.2516 -0.5737 -0.2276
   32CHL1  H22A 2351   3.279   5.146   8.152 -2.0511  1.6502 -0.4452
   32CHL1  H22B 2352   3.461   5.157   8.121  0.4217  0.2969  0.7565
   32CHL1   C23 2353   3.355   5.314   8.256 -0.0850  0.0538 -0.1217
   32CHL1  H23A 2354   3.417   5.406   8.248  0.1090  0.3694  4.0723
   32CHL1  H23B 2355   3.249   5.347   8.256  0.5173  2.1937 -2.0998
   32CHL1   C24 2356   3.395   5.262   8.394 -0.2531 -0.0619 -0.6299
   32CHL1  H24A 2357   3.347   5.165   8.419 -0.6339 -0.1433 -1.6644
   32CHL1  H24B 2358   3.504   5.238   8.393 -0.2457 -0.0702 -0.0307
   32CHL1   C25 2359   3.362   5.363   8.507  0.9077 -0.1153  0.3399
   32CHL1   H25 2360   3.251   5.368   8.515  1.0446  1.8017  1.4549
   32CHL1   C26 2361   3.415   5.319   8.639  0.1563  0.1954  0.0508
   32CHL1  H26A 2362   3.405   5.392   8.722  1.3174 -1.0445  1.3271
   32CHL1  H26B 2363   3.357   5.230   8.674 -0.5560 -0.3498 -2.3969
   32CHL1  H26C 2364   3.522   5.289   8.643  0.1008  0.1811  2.2858
   32CHL1   C27 2365   3.403   5.509   8.480 -0.2894 -0.4725 -0.5245
   32CHL1  H27A 2366   3.373   5.554   8.383 -0.1864  1.1059  0.1675
   32CHL1  H27B 2367   3.348   5.568   8.556  0.7767 -1.2461  0.8781
   32CHL1  H27C 2368   3.511   5.525   8.500 -0.3159 -0.4924 -0.3658
   33CHL1    C3 2369   4.419   5.525   6.748  0.1036 -0.1226 -0.2940
   33CHL1    H3 2370   4.489   5.457   6.800 -0.8887  0.3068  1.6741
   33CHL1    O3 2371   4.450   5.512   6.609  0.0323  0.0521  0.4017
   33CHL1   H3' 2372   4.365   5.518   6.567  0.9420  0.0299 -1.4686
   33CHL1    C4 2373   4.275   5.490   6.782 -0.4021  0.1309  0.2834
   33CHL1   H4A 2374   4.205   5.560   6.732 -0.3148  1.3775  1.8385
   33CHL1   H4B 2375   4.251   5.386   6.751  1.1875 -0.7482  1.9272
   33CHL1    C5 2376   4.262   5.511   6.933  0.4404 -0.7745  0.1020
   33CHL1    C6 2377   4.224   5.410   7.012 -0.7950  0.1460 -0.0897
   33CHL1    H6 2378   4.193   5.318   6.960 -0.9739  0.2828 -0.2285
   33CHL1    C7 2379   4.187   5.429   7.154 -0.6448  0.2845  0.0237
   33CHL1   H7A 2380   4.086   5.391   7.179 -0.6759  0.0835 -0.4150
   33CHL1   H7B 2381   4.257   5.365   7.213 -1.6667 -0.6653  0.2199
   33CHL1    C8 2382   4.191   5.574   7.201  0.2553  0.8171 -0.2753
   33CHL1    H8 2383   4.095   5.624   7.178  0.4879  0.9793 -0.9048
   33CHL1   C14 2384   4.200   5.586   7.356 -0.1032  0.4000  0.7861
   33CHL1   H14 2385   4.299   5.539   7.377  0.6731  1.7306  0.1635
   33CHL1   C15 2386   4.112   5.497   7.435 -0.2024 -0.1730  0.4164
   33CHL1  H15A 2387   4.008   5.527   7.411 -0.3272 -1.3688 -0.6099
   33CHL1  H15B 2388   4.118   5.390   7.405 -0.6480  0.0020 -0.2864
   33CHL1   C16 2389   4.137   5.543   7.577 -0.2910 -0.2454 -0.0582
   33CHL1  H16A 2390   4.039   5.558   7.627 -0.2463 -1.2563  0.3375
   33CHL1  H16B 2391   4.185   5.460   7.634 -2.0910  0.0257  1.9210
   33CHL1   C17 2392   4.233   5.676   7.569 -0.3783 -0.7513 -0.2799
   33CHL1   H17 2393   4.339   5.643   7.571  0.0935  0.7443 -0.3685
   33CHL1   C13 2394   4.215   5.724   7.424 -0.0304  0.3680 -0.2359
   33CHL1   C18 2395   4.079   5.787   7.417  0.3901 -0.3538  0.1695
   33CHL1  H18A 2396   4.007   5.750   7.494  1.1897 -2.0748  0.1055
   33CHL1  H18B 2397   4.102   5.894   7.438  1.7410 -0.5036 -0.4724
   33CHL1  H18C 2398   4.037   5.772   7.316 -0.2505  1.7320  0.0972
   33CHL1   C12 2399   4.337   5.794   7.364 -0.0513  0.1266  0.9889
   33CHL1  H12A 2400   4.350   5.898   7.400  1.4347  0.6626 -0.9251
   33CHL1  H12B 2401   4.428   5.732   7.380  0.4945  0.3603 -0.9637
   33CHL1   C11 2402   4.307   5.803   7.210 -0.4461 -1.0277 -0.5133
   33CHL1  H11A 2403   4.210   5.849   7.179 -0.2593 -0.5350 -0.3669
   33CHL1  H11B 2404   4.383   5.865   7.157 -0.4077 -0.4927  0.1643
   33CHL1    C9 2405   4.302   5.661   7.139  0.3471  0.0141 -0.1021
   33CHL1    H9 2406   4.394   5.613   7.177 -0.0174 -1.2268 -0.7559
   33CHL1   C10 2407   4.298   5.656   6.985 -0.4970  0.1188  0.2094
   33CHL1   C19 2408   4.191   5.756   6.938 -0.2936 -0.1818  0.4289
   33CHL1  H19A 2409   4.089   5.731   6.976 -0.3482  1.9378  1.7154
   33CHL1  H19B 2410   4.211   5.862   6.962 -1.3329  0.1051  0.0719
   33CHL1  H19C 2411   4.184   5.753   6.827  1.5805  2.1658  0.2193
   33CHL1    C1 2412   4.437   5.695   6.933  0.5102 -0.5302 -0.0959
   33CHL1   H1A 2413   4.463   5.801   6.953  0.7482 -0.6235  0.0908
   33CHL1   H1B 2414   4.508   5.628   6.986  2.4046  0.6358 -1.0860
   33CHL1    C2 2415   4.455   5.669   6.783  0.6154  0.0726 -0.0066
   33CHL1   H2A 2416   4.552   5.703   6.739 -1.0934  1.5054 -2.8050
   33CHL1   H2B 2417   4.397   5.741   6.721  1.7885  0.4720 -0.6619
   33CHL1   C20 2418   4.206   5.777   7.682  0.4682  0.2732  0.1298
   33CHL1   H20 2419   4.100   5.810   7.688 -0.6674 -3.0659 -0.0812
   33CHL1   C21 2420   4.284   5.912   7.671  0.6406 -0.8344  0.5376
   33CHL1  H21A 2421   4.390   5.880   7.657 -0.0017 -1.9648 -2.0519
   33CHL1  H21B 2422   4.272   5.977   7.761  1.1901 -0.2732  0.2119
   33CHL1  H21C 2423   4.247   5.968   7.583  1.4327  0.1388  0.8084
   33CHL1   C22 2424   4.241   5.708   7.819 -0.5569 -0.2043 -0.2293
   33CHL1  H22A 2425   4.177   5.617   7.826 -0.1118 -0.4593  0.6731
   33CHL1  H22B 2426   4.347   5.677   7.825 -0.6785 -0.3708  1.5211
   33CHL1   C23 2427   4.210   5.790   7.942  0.4675  0.4451  0.7232
   33CHL1  H23A 2428   4.273   5.882   7.944  1.0314  0.0489  1.6722
   33CHL1  H23B 2429   4.105   5.826   7.934  0.4758  0.0842 -1.2510
   33CHL1   C24 2430   4.221   5.699   8.068 -0.2140  0.2609  0.0297
   33CHL1  H24A 2431   4.159   5.608   8.062 -1.3503  1.0132  0.1647
   33CHL1  H24B 2432   4.329   5.675   8.069 -0.5731 -1.5210 -1.4885
   33CHL1   C25 2433   4.184   5.765   8.202  0.7008  0.4705 -0.1929
   33CHL1   H25 2434   4.086   5.818   8.194 -0.0006 -0.2322  3.0546
   33CHL1   C26 2435   4.165   5.665   8.324  0.4265 -0.1889 -0.5172
   33CHL1  H26A 2436   4.259   5.617   8.360  1.0803  1.1876 -0.3739
   33CHL1  H26B 2437   4.121   5.713   8.413  2.0546 -1.2072  0.8586
   33CHL1  H26C 2438   4.087   5.591   8.297 -1.2999  1.9998 -1.7261
   33CHL1   C27 2439   4.281   5.868   8.235 -0.2729  0.7046 -0.4942
   33CHL1  H27A 2440   4.370   5.829   8.290 -0.0761  0.4511 -0.9923
   33CHL1  H27B 2441   4.321   5.934   8.154 -0.9536  2.9484  0.9427
   33CHL1  H27C 2442   4.239   5.951   8.296 -1.9545 -1.4167  1.2892
   34CHL1    C3 2443   5.111   3.513   7.068 -0.1717 -0.1157 -1.0089
   34CHL1    H3 2444   5.008   3.526   7.108 -0.7273 -0.9076 -2.1672
   34CHL1    O3 2445   5.092   3.563   6.939  0.6138  0.3594 -0.0740
   34CHL1   H3' 2446   5.124   3.496   6.878 -0.6259  0.3739 -0.7400
   34CHL1    C4 2447   5.201   3.610   7.142  0.8020 -0.2146  0.0502
   34CHL1   H4A 2448   5.301   3.593   7.097  1.3791 -0.0272  1.2266
   34CHL1   H4B 2449   5.153   3.708   7.124 -2.4222 -1.6444  0.4462
   34CHL1    C5 2450   5.203   3.559   7.282 -0.0419 -0.4710  0.3892
   34CHL1    C6 2451   5.147   3.643   7.379  0.3725 -0.2515 -0.6248
   34CHL1    H6 2452   5.109   3.742   7.349 -0.0671 -0.1294  0.3052
   34CHL1    C7 2453   5.153   3.603   7.524  0.1428  0.2386 -0.8740
   34CHL1   H7A 2454   5.168   3.694   7.585  1.3659  1.0817 -2.4122
   34CHL1   H7B 2455   5.054   3.569   7.561  0.3832  1.0443  0.5545
   34CHL1    C8 2456   5.257   3.490   7.552  0.4007 -0.2536 -0.0624
   34CHL1    H8 2457   5.352   3.542   7.525 -1.1641  2.1703 -1.1078
   34CHL1   C14 2458   5.244   3.431   7.695 -0.3469 -0.1086  0.0631
   34CHL1   H14 2459   5.147   3.377   7.700 -0.9177  0.8802 -0.1744
   34CHL1   C15 2460   5.253   3.533   7.811  0.4975 -0.1885  0.5603
   34CHL1  H15A 2461   5.335   3.603   7.789  1.2380 -0.8520  1.1713
   34CHL1  H15B 2462   5.158   3.587   7.831  1.7622  1.7121  1.5904
   34CHL1   C16 2463   5.292   3.443   7.931 -0.6493  0.7390 -0.2059
   34CHL1  H16A 2464   5.384   3.487   7.975 -2.1218  2.7253  1.0008
   34CHL1  H16B 2465   5.210   3.443   8.006 -0.4616 -0.9277  0.0017
   34CHL1   C17 2466   5.314   3.301   7.876 -0.2731 -0.4957  0.1622
   34CHL1   H17 2467   5.217   3.247   7.884  0.0171 -0.7544  1.9959
   34CHL1   C13 2468   5.342   3.321   7.723 -0.2485 -0.7161 -0.4316
   34CHL1   C18 2469   5.487   3.367   7.711  0.2122 -0.3301  0.1255
   34CHL1  H18A 2470   5.510   3.400   7.607  2.0296  2.6040  1.3979
   34CHL1  H18B 2471   5.511   3.463   7.762  1.5119 -0.5390 -0.0794
   34CHL1  H18C 2472   5.554   3.289   7.752  1.2418  1.8451  2.6675
   34CHL1   C12 2473   5.306   3.205   7.629  0.2024 -0.4764 -0.4910
   34CHL1  H12A 2474   5.384   3.128   7.646  0.8267  0.2034 -0.2458
   34CHL1  H12B 2475   5.208   3.165   7.660  0.7582 -2.2381 -0.9777
   34CHL1   C11 2476   5.310   3.245   7.483 -0.1641 -0.1030  0.0245
   34CHL1  H11A 2477   5.417   3.242   7.452 -0.4293 -1.5874 -0.7653
   34CHL1  H11B 2478   5.256   3.164   7.429  0.2678 -0.8851  0.7356
   34CHL1    C9 2479   5.236   3.375   7.447 -0.9843  0.3312  0.3129
   34CHL1    H9 2480   5.129   3.351   7.459 -0.1340 -3.1432  1.5702
   34CHL1   C10 2481   5.253   3.418   7.307 -0.1394 -0.7582  0.4286
   34CHL1   C19 2482   5.407   3.424   7.269 -0.3622 -0.7166 -0.2876
   34CHL1  H19A 2483   5.477   3.465   7.345 -1.3748  0.2196  0.1555
   34CHL1  H19B 2484   5.442   3.320   7.248 -1.8789 -1.1128 -0.9384
   34CHL1  H19C 2485   5.436   3.477   7.175  1.6292 -1.9818 -0.4247
   34CHL1    C1 2486   5.183   3.319   7.211 -0.2837 -0.0217  0.1484
   34CHL1   H1A 2487   5.232   3.219   7.216  0.7500  0.4390 -0.5782
   34CHL1   H1B 2488   5.076   3.305   7.237 -0.5975  1.0179 -0.5613
   34CHL1    C2 2489   5.170   3.370   7.067 -0.0902 -0.0759  0.3152
   34CHL1   H2A 2490   5.092   3.316   7.009 -1.4350  0.8399  1.2523
   34CHL1   H2B 2491   5.265   3.357   7.010  0.2347 -1.7836  1.1853
   34CHL1   C20 2492   5.401   3.211   7.964 -0.2331 -0.3202  0.6940
   34CHL1   H20 2493   5.502   3.256   7.974  1.1369 -2.8602 -1.0960
   34CHL1   C21 2494   5.414   3.070   7.903 -0.1084 -1.0220 -0.5095
   34CHL1  H21A 2495   5.313   3.032   7.879 -1.0654  0.8792  0.4321
   34CHL1  H21B 2496   5.452   2.994   7.975 -1.2635 -1.3395 -0.2274
   34CHL1  H21C 2497   5.485   3.072   7.817  1.3780  2.6651  0.7238
   34CHL1   C22 2498   5.349   3.199   8.108  0.3196  0.4714  0.0005
   34CHL1  H22A 2499   5.255   3.259   8.116  1.6100  2.7484 -1.6247
   34CHL1  H22B 2500   5.317   3.101   8.149  0.5288  0.6663  0.6390
   34CHL1   C23 2501   5.441   3.258   8.209 -0.6381  0.1732 -0.2356
   34CHL1  H23A 2502   5.527   3.188   8.208 -0.5792  0.2405  0.1089
   34CHL1  H23B 2503   5.467   3.358   8.167 -1.1495 -0.2164 -1.4881
   34CHL1   C24 2504   5.373   3.287   8.340 -0.5460 -0.3916  0.0868
   34CHL1  H24A 2505   5.292   3.360   8.316 -0.4073 -0.6349 -1.1621
   34CHL1  H24B 2506   5.318   3.200   8.382 -0.3207 -0.8549 -0.5841
   34CHL1   C25 2507   5.466   3.350   8.448 -0.0157  0.3191  0.0885
   34CHL1   H25 2508   5.505   3.444   8.403  0.3107 -0.2417 -0.8215
   34CHL1   C26 2509   5.380   3.384   8.571  0.3699 -0.0662 -0.1245
   34CHL1  H26A 2510   5.352   3.292   8.627 -1.1907 -1.4045 -2.9734
   34CHL1  H26B 2511   5.449   3.452   8.625  1.5520 -1.4857  0.1888
   34CHL1  H26C 2512   5.289   3.439   8.540  0.1168 -0.7516 -0.5992
   34CHL1   C27 2513   5.581   3.260   8.491 -0.1613 -0.8196 -0.0150
   34CHL1  H27A 2514   5.532   3.165   8.522 -0.4185 -0.5958  0.2642
   34CHL1  H27B 2515   5.638   3.240   8.398 -1.3649 -0.2131 -0.8816
   34CHL1  H27C 2516   5.640   3.296   8.578 -0.2023  0.4408 -0.5005
   35CHL1    C3 2517   1.288   5.425   7.270  0.6762 -0.0485  0.7995
   35CHL1    H3 2518   1.389   5.468   7.288  0.9515 -0.0654 -0.6448
   35CHL1    O3 2519   1.257   5.441   7.133  0.7935 -0.1391 -0.0451
   35CHL1   H3' 2520   1.341   5.430   7.088 -0.1061  0.8362 -2.0035
   35CHL1    C4 2521   1.287   5.282   7.313 -0.2969 -0.3012 -0.7724
   35CHL1   H4A 2522   1.186   5.242   7.288 -0.0291 -0.7070 -1.2352
   35CHL1   H4B 2523   1.371   5.235   7.256  0.7024  0.9339 -0.3361
   35CHL1    C5 2524   1.321   5.262   7.461  0.3970 -0.0598  0.2267
   35CHL1    C6 2525   1.437   5.202   7.498  0.3906  0.2972 -0.2406
   35CHL1    H6 2526   1.517   5.172   7.429  0.6029  0.5514 -0.1044
   35CHL1    C7 2527   1.466   5.188   7.643  0.3102  0.2739  0.2792
   35CHL1   H7A 2528   1.484   5.080   7.663 -1.7514 -0.8343 -3.3265
   35CHL1   H7B 2529   1.559   5.245   7.659 -0.4329  1.6546 -0.2683
   35CHL1    C8 2530   1.355   5.236   7.741  0.3636  0.1485 -0.1800
   35CHL1    H8 2531   1.278   5.158   7.753 -0.1502  0.6178 -0.4148
   35CHL1   C14 2532   1.408   5.258   7.880  0.4474  0.1094 -0.2672
   35CHL1   H14 2533   1.479   5.343   7.870  2.5244 -1.2866  2.1102
   35CHL1   C15 2534   1.491   5.139   7.941  0.3828  0.1952  0.2427
   35CHL1  H15A 2535   1.445   5.041   7.915 -2.5110  1.8258 -1.0874
   35CHL1  H15B 2536   1.598   5.138   7.913  0.1600 -2.0088 -0.6857
   35CHL1   C16 2537   1.494   5.162   8.092  0.3698  0.0238  0.2631
   35CHL1  H16A 2538   1.442   5.084   8.154  0.3437  0.8348  1.2809
   35CHL1  H16B 2539   1.594   5.180   8.136  1.7905  0.1138 -2.9541
   35CHL1   C17 2540   1.408   5.293   8.109 -0.0059 -0.1965  0.1275
   35CHL1   H17 2541   1.471   5.381   8.084 -0.2512 -0.8803 -3.0090
   35CHL1   C13 2542   1.305   5.300   7.990 -0.5223 -0.0289  0.4420
   35CHL1   C18 2543   1.193   5.191   8.023 -0.2690  0.5030 -0.3643
   35CHL1  H18A 2544   1.239   5.096   8.059  0.2375  0.2485 -1.6890
   35CHL1  H18B 2545   1.128   5.232   8.103  1.5219 -0.6409  1.7496
   35CHL1  H18C 2546   1.120   5.176   7.941 -1.4754  0.4382  0.6972
   35CHL1   C12 2547   1.256   5.437   7.947  0.5486  0.1254  0.2161
   35CHL1  H12A 2548   1.169   5.456   8.013 -1.3718 -0.0981 -2.1771
   35CHL1  H12B 2549   1.333   5.517   7.954  1.7185 -0.8784 -0.7895
   35CHL1   C11 2550   1.192   5.425   7.803 -0.0876  0.1793  0.8976
   35CHL1  H11A 2551   1.095   5.370   7.799  1.7777 -3.1899 -0.8761
   35CHL1  H11B 2552   1.163   5.528   7.776 -0.9022 -0.2310  0.1752
   35CHL1    C9 2553   1.288   5.368   7.694  0.5290 -0.8442  0.0381
   35CHL1    H9 2554   1.376   5.435   7.677  1.6158 -2.8578 -2.7561
   35CHL1   C10 2555   1.230   5.345   7.549  0.5512  0.7003 -0.3412
   35CHL1   C19 2556   1.096   5.271   7.549  1.1084 -0.5439  0.0952
   35CHL1  H19A 2557   1.022   5.331   7.606  3.2671  1.6070  0.7222
   35CHL1  H19B 2558   1.052   5.255   7.449  0.1278  2.2661  0.0437
   35CHL1  H19C 2559   1.097   5.167   7.590 -0.5187 -0.3643  0.6291
   35CHL1    C1 2560   1.205   5.487   7.502  0.1297 -0.0183  0.0091
   35CHL1   H1A 2561   1.127   5.548   7.554 -0.8436 -2.0191  0.9397
   35CHL1   H1B 2562   1.303   5.537   7.520  1.2681 -1.9130 -0.8489
   35CHL1    C2 2563   1.187   5.503   7.351  0.0817 -0.1844 -0.1701
   35CHL1   H2A 2564   1.210   5.610   7.331  2.3415 -0.6248  0.0103
   35CHL1   H2B 2565   1.078   5.488   7.333  0.1697 -0.7675 -0.2291
   35CHL1   C20 2566   1.361   5.307   8.252  0.7027 -0.1264  0.0727
   35CHL1   H20 2567   1.292   5.221   8.267  2.1008 -1.4751 -1.1539
   35CHL1   C21 2568   1.283   5.435   8.270  0.2860  0.9763  0.6361
   35CHL1  H21A 2569   1.181   5.423   8.227 -0.3552  2.5997  1.6480
   35CHL1  H21B 2570   1.337   5.519   8.220  0.7452 -0.6714 -1.6801
   35CHL1  H21C 2571   1.291   5.442   8.381  0.9964 -1.9442  0.8054
   35CHL1   C22 2572   1.481   5.293   8.355  0.7676 -0.8195  0.1066
   35CHL1  H22A 2573   1.434   5.281   8.455  0.7480 -1.3243  0.0383
   35CHL1  H22B 2574   1.520   5.190   8.343  2.0377 -0.1601 -1.7230
   35CHL1   C23 2575   1.586   5.408   8.345 -0.0475  0.1174 -0.4426
   35CHL1  H23A 2576   1.632   5.394   8.245  0.3254 -1.4261 -0.0685
   35CHL1  H23B 2577   1.540   5.509   8.355  1.2510  0.6712  0.0221
   35CHL1   C24 2578   1.694   5.409   8.452 -0.3227  0.1999  0.6812
   35CHL1  H24A 2579   1.652   5.436   8.551  0.6569 -2.5412  1.8791
   35CHL1  H24B 2580   1.731   5.306   8.471  1.0679  0.6944  0.6504
   35CHL1   C25 2581   1.817   5.490   8.421  0.4447  0.2388 -0.5731
   35CHL1   H25 2582   1.779   5.589   8.389 -0.1806 -0.5294 -2.2146
   35CHL1   C26 2583   1.911   5.512   8.543  0.3724  0.2408  0.3050
   35CHL1  H26A 2584   1.995   5.581   8.523  0.1614  1.2228  2.6541
   35CHL1  H26B 2585   1.851   5.554   8.626  0.0174  0.6680 -0.1603
   35CHL1  H26C 2586   1.956   5.421   8.589  2.3600  0.4778 -1.1147
   35CHL1   C27 2587   1.900   5.414   8.320 -0.1744  0.6438 -0.3256
   35CHL1  H27A 2588   1.969   5.492   8.281  1.1209  0.2507  1.1514
   35CHL1  H27B 2589   1.838   5.375   8.236  0.2789 -3.4441  1.1106
   35CHL1  H27C 2590   1.961   5.328   8.355  0.8593  1.7086  0.5275
   36CHL1    C3 2591   1.760   4.851   7.206  0.4457 -0.7772 -0.2428
   36CHL1    H3 2592   1.845   4.921   7.223  0.6044 -0.7707 -1.0266
   36CHL1    O3 2593   1.720   4.842   7.070 -0.5708 -0.6253 -0.1334
   36CHL1   H3' 2594   1.642   4.785   7.064 -0.4116 -0.7686 -0.8546
   36CHL1    C4 2595   1.781   4.703   7.254 -0.1223  0.2235  0.1746
   36CHL1   H4A 2596   1.690   4.642   7.236 -0.4021  0.1368  1.7953
   36CHL1   H4B 2597   1.864   4.674   7.187 -0.9372 -2.5353  0.2642
   36CHL1    C5 2598   1.805   4.690   7.408  0.0464  0.2198  0.1534
   36CHL1    C6 2599   1.920   4.637   7.449 -0.4389  0.2404 -0.3136
   36CHL1    H6 2600   1.989   4.596   7.374  0.9913  0.1814  1.0069
   36CHL1    C7 2601   1.967   4.618   7.592  0.1703 -0.1164  0.4066
   36CHL1   H7A 2602   1.997   4.512   7.610  0.6515  0.3472  2.5237
   36CHL1   H7B 2603   2.058   4.675   7.620 -0.0905  0.3688  0.2603
   36CHL1    C8 2604   1.859   4.664   7.697  0.1098  0.4217  0.5318
   36CHL1    H8 2605   1.796   4.573   7.706  1.9507 -0.9116  0.0865
   36CHL1   C14 2606   1.927   4.687   7.830  0.3895  0.7181 -0.8339
   36CHL1   H14 2607   1.980   4.783   7.811  3.2212 -0.4823  0.6757
   36CHL1   C15 2608   2.034   4.589   7.890 -0.0287  0.3148 -0.0143
   36CHL1  H15A 2609   1.998   4.484   7.884 -0.2229  0.4597 -1.6334
   36CHL1  H15B 2610   2.140   4.607   7.861  0.5558 -2.1564  0.4584
   36CHL1   C16 2611   2.038   4.636   8.037 -0.2320 -0.5525 -0.0533
   36CHL1  H16A 2612   2.030   4.547   8.103 -2.6788  0.7584  1.5227
   36CHL1  H16B 2613   2.143   4.669   8.052 -1.0472  1.0380  2.3835
   36CHL1   C17 2614   1.925   4.743   8.063 -0.9911  0.6273  0.0299
   36CHL1   H17 2615   1.984   4.834   8.039  2.7172 -1.3752  1.0754
   36CHL1   C13 2616   1.831   4.716   7.946  0.3012  0.0368 -0.4647
   36CHL1   C18 2617   1.751   4.589   7.973  0.0857  0.2277  0.0667
   36CHL1  H18A 2618   1.801   4.506   8.027 -0.7621 -0.5120 -0.2656
   36CHL1  H18B 2619   1.671   4.605   8.049  2.1261  0.4254  2.2435
   36CHL1  H18C 2620   1.712   4.535   7.884  1.2739 -0.9293  0.2289
   36CHL1   C12 2621   1.741   4.832   7.901  0.2039  0.4309 -0.0360
   36CHL1  H12A 2622   1.659   4.848   7.975  2.8385  0.0349  3.0755
   36CHL1  H12B 2623   1.804   4.924   7.900 -1.5870  1.6903 -1.5070
   36CHL1   C11 2624   1.670   4.815   7.772  0.4772 -0.5269 -0.1986
   36CHL1  H11A 2625   1.587   4.742   7.776 -0.3113  0.4466  1.6043
   36CHL1  H11B 2626   1.637   4.918   7.749  0.3194 -0.6507 -0.5403
   36CHL1    C9 2627   1.766   4.777   7.652 -0.1954  0.8270  0.1586
   36CHL1    H9 2628   1.830   4.866   7.640  0.3226  0.3176 -0.8992
   36CHL1   C10 2629   1.703   4.755   7.505 -0.4884 -0.4292 -0.4390
   36CHL1   C19 2630   1.578   4.655   7.511  0.4781  0.0463 -0.3741
   36CHL1  H19A 2631   1.494   4.697   7.571 -0.8545 -1.2412 -1.2980
   36CHL1  H19B 2632   1.541   4.635   7.408  0.6830  3.4357 -1.1609
   36CHL1  H19C 2633   1.600   4.555   7.555 -0.8402 -1.1758 -2.4050
   36CHL1    C1 2634   1.662   4.892   7.441 -0.2296  0.6980  0.0094
   36CHL1   H1A 2635   1.561   4.923   7.476 -0.8362 -0.7846 -0.3757
   36CHL1   H1B 2636   1.742   4.965   7.465 -0.7575  1.6422 -1.0830
   36CHL1    C2 2637   1.639   4.905   7.286 -0.1144  0.0995  0.0673
   36CHL1   H2A 2638   1.611   5.006   7.250  3.2335  1.1543  0.2010
   36CHL1   H2B 2639   1.550   4.841   7.267  0.8759 -1.4791  0.6205
   36CHL1   C20 2640   1.868   4.753   8.206 -0.3016  0.0777  0.7219
   36CHL1   H20 2641   1.776   4.692   8.203  0.6406 -1.3253 -0.1115
   36CHL1   C21 2642   1.838   4.896   8.237 -0.3089 -0.0044 -0.0629
   36CHL1  H21A 2643   1.748   4.933   8.184 -0.2670  0.3900  0.1393
   36CHL1  H21B 2644   1.923   4.962   8.209 -0.6160  1.0067  1.3524
   36CHL1  H21C 2645   1.813   4.911   8.344  3.0568  1.2960  0.5897
   36CHL1   C22 2646   1.959   4.696   8.311 -0.2609  0.2325 -0.3101
   36CHL1  H22A 2647   1.901   4.682   8.404 -0.0309 -0.3467 -0.2532
   36CHL1  H22B 2648   2.000   4.594   8.297 -1.8687 -0.4419 -0.1316
   36CHL1   C23 2649   2.076   4.779   8.344 -0.2521  0.0006 -0.1146
   36CHL1  H23A 2650   2.135   4.793   8.250  0.1406 -0.9356 -0.0054
   36CHL1  H23B 2651   2.048   4.881   8.378  2.1092 -0.2036  2.5714
   36CHL1   C24 2652   2.170   4.716   8.452  0.0214  0.6093  0.5294
   36CHL1  H24A 2653   2.122   4.699   8.551  0.1753  1.9578  0.8517
   36CHL1  H24B 2654   2.208   4.621   8.410  0.1181  0.1998  1.5262
   36CHL1   C25 2655   2.286   4.804   8.483 -0.3719  0.1538 -0.3516
   36CHL1   H25 2656   2.234   4.897   8.515 -1.2801 -0.2221 -0.7006
   36CHL1   C26 2657   2.366   4.745   8.600  0.2604  0.6462 -0.1573
   36CHL1  H26A 2658   2.432   4.665   8.559  1.4010  1.7645 -0.5561
   36CHL1  H26B 2659   2.434   4.825   8.636  0.0078  0.9624 -0.3809
   36CHL1  H26C 2660   2.306   4.710   8.687  0.1908 -0.8718 -0.7888
   36CHL1   C27 2661   2.370   4.831   8.359 -0.7789  0.2483 -0.3879
   36CHL1  H27A 2662   2.334   4.926   8.315 -0.4229  0.5835  0.0352
   36CHL1  H27B 2663   2.471   4.854   8.400 -0.2207 -0.0609 -1.5679
   36CHL1  H27C 2664   2.371   4.743   8.292  2.6557 -0.0095 -0.0874
   37CHL1    C3 2665   5.036   6.382   6.958 -0.4938  0.1133 -0.9807
   37CHL1    H3 2666   5.104   6.301   6.994 -1.2703  0.5617  1.6188
   37CHL1    O3 2667   5.047   6.389   6.820  0.1374  0.0522  0.1236
   37CHL1   H3' 2668   5.006   6.473   6.799 -0.1673  0.3877  1.9995
   37CHL1    C4 2669   4.893   6.349   6.996 -0.3759  0.8234 -0.1920
   37CHL1   H4A 2670   4.827   6.423   6.945 -1.1606  0.3793  0.1684
   37CHL1   H4B 2671   4.873   6.251   6.948  1.8170  0.4743 -0.4668
   37CHL1    C5 2672   4.884   6.337   7.147 -0.3435 -0.4296 -0.8521
   37CHL1    C6 2673   4.840   6.229   7.212  0.5049  0.0980 -0.1158
   37CHL1    H6 2674   4.799   6.140   7.162 -0.6644  2.4391 -3.5112
   37CHL1    C7 2675   4.828   6.232   7.361 -0.6969 -0.3214 -0.6103
   37CHL1   H7A 2676   4.738   6.173   7.389  0.0338 -1.9569 -1.6960
   37CHL1   H7B 2677   4.916   6.183   7.408 -0.5905  1.4492  1.1416
   37CHL1    C8 2678   4.824   6.375   7.421 -0.3105  0.5963 -0.1136
   37CHL1    H8 2679   4.735   6.429   7.384 -1.7410 -0.8190  1.2049
   37CHL1   C14 2680   4.826   6.363   7.570  0.2313  0.5028 -0.8314
   37CHL1   H14 2681   4.921   6.311   7.592 -0.1859  0.3731  0.7959
   37CHL1   C15 2682   4.705   6.297   7.645  0.4193  0.0556 -0.0591
   37CHL1  H15A 2683   4.615   6.325   7.587  0.0304  0.6995  0.8375
   37CHL1  H15B 2684   4.701   6.186   7.648 -1.2053  0.0613 -1.6475
   37CHL1   C16 2685   4.704   6.360   7.791 -0.1178 -0.4420 -0.2797
   37CHL1  H16A 2686   4.612   6.418   7.813 -1.4342 -2.0616 -1.3693
   37CHL1  H16B 2687   4.709   6.278   7.865 -3.5315 -0.4014  0.0603
   37CHL1   C17 2688   4.837   6.455   7.789  0.7358  1.1592  0.5263
   37CHL1   H17 2689   4.919   6.381   7.803 -0.4717 -0.5456 -1.1138
   37CHL1   C13 2690   4.850   6.499   7.643  0.3669  0.3091  0.1348
   37CHL1   C18 2691   4.734   6.591   7.600 -0.0989 -0.3296  0.4432
   37CHL1  H18A 2692   4.733   6.611   7.491 -1.3556  0.3483  0.5683
   37CHL1  H18B 2693   4.633   6.553   7.628 -0.8035 -0.3385 -1.9756
   37CHL1  H18C 2694   4.738   6.690   7.651 -0.6155  1.1431 -2.2910
   37CHL1   C12 2695   4.979   6.560   7.604 -0.0362  0.3649 -0.3289
   37CHL1  H12A 2696   5.002   6.660   7.648 -0.1604 -0.2030  1.0218
   37CHL1  H12B 2697   5.058   6.492   7.641  0.2169  0.9878  0.2737
   37CHL1   C11 2698   4.995   6.577   7.452 -0.4070 -0.1633  0.6387
   37CHL1  H11A 2699   4.949   6.665   7.402 -0.6386 -0.1159  0.9356
   37CHL1  H11B 2700   5.100   6.603   7.430 -0.3604 -1.4718 -0.7083
   37CHL1    C9 2701   4.949   6.453   7.370  0.1888  0.2614 -0.0209
   37CHL1    H9 2702   5.034   6.382   7.384  0.7446  0.7543 -0.8903
   37CHL1   C10 2703   4.935   6.471   7.219  0.3196 -0.7495  0.2793
   37CHL1   C19 2704   4.839   6.581   7.181 -0.0450  0.1453  0.0735
   37CHL1  H19A 2705   4.861   6.685   7.214  1.3848  0.5062 -1.9527
   37CHL1  H19B 2706   4.839   6.585   7.070  0.3062 -1.3106  0.0093
   37CHL1  H19C 2707   4.734   6.559   7.211 -0.0659  1.9618  1.4269
   37CHL1    C1 2708   5.077   6.514   7.161  0.4749 -0.1940  0.8057
   37CHL1   H1A 2709   5.104   6.616   7.193 -2.0348 -0.2021  3.1386
   37CHL1   H1B 2710   5.146   6.435   7.198  1.8117  0.7117  0.2905
   37CHL1    C2 2711   5.077   6.515   7.007  0.4217  0.1973  0.1225
   37CHL1   H2A 2712   5.179   6.550   6.979  1.7516 -1.9580  2.0650
   37CHL1   H2B 2713   5.016   6.597   6.963  0.6248  0.8387  1.0059
   37CHL1   C20 2714   4.844   6.567   7.895  0.0671 -0.2018  0.1856
   37CHL1   H20 2715   4.821   6.667   7.852 -3.0067  0.6144  3.4901
   37CHL1   C21 2716   4.998   6.588   7.932 -0.0095 -0.0282 -0.3357
   37CHL1  H21A 2717   5.047   6.493   7.962 -0.9548 -0.0662  1.1256
   37CHL1  H21B 2718   5.007   6.663   8.013 -2.0654 -0.6517  0.5015
   37CHL1  H21C 2719   5.069   6.620   7.852  0.9294  1.5267  1.0717
   37CHL1   C22 2720   4.752   6.548   8.019 -0.1165 -1.1530 -0.7139
   37CHL1  H22A 2721   4.646   6.558   7.990 -0.1839 -1.1703 -0.4757
   37CHL1  H22B 2722   4.778   6.443   8.046  0.5574 -0.2920  2.1628
   37CHL1   C23 2723   4.780   6.644   8.129  0.2646 -0.2709 -1.8000
   37CHL1  H23A 2724   4.883   6.618   8.161  1.1760 -0.1751 -4.5110
   37CHL1  H23B 2725   4.779   6.748   8.091 -0.4428  0.4573  0.1321
   37CHL1   C24 2726   4.670   6.623   8.241  0.0160 -0.0200  0.5079
   37CHL1  H24A 2727   4.567   6.616   8.199  0.2187  0.3729 -0.0546
   37CHL1  H24B 2728   4.677   6.527   8.297  2.1786  0.1787  0.5848
   37CHL1   C25 2729   4.664   6.738   8.337 -0.1151 -0.4519 -0.3820
   37CHL1   H25 2730   4.760   6.758   8.388  1.0073 -1.0300 -2.2267
   37CHL1   C26 2731   4.630   6.878   8.266 -0.1203  0.1421 -0.1139
   37CHL1  H26A 2732   4.714   6.918   8.205  0.7313  0.2182  1.0890
   37CHL1  H26B 2733   4.544   6.866   8.196 -0.4977 -0.2253  0.4088
   37CHL1  H26C 2734   4.592   6.948   8.344 -0.5419 -1.3040  0.9924
   37CHL1   C27 2735   4.567   6.706   8.458 -0.5037 -0.0708  0.2276
   37CHL1  H27A 2736   4.577   6.781   8.539 -4.4117  1.8608 -0.9241
   37CHL1  H27B 2737   4.458   6.709   8.434 -0.1487 -0.9294 -1.5380
   37CHL1  H27C 2738   4.590   6.603   8.493  0.6846 -0.0829 -0.5714
   38CHL1    C3 2739   1.902   1.204   6.643 -0.0574 -0.0850 -0.0164
   38CHL1    H3 2740   1.983   1.279   6.640 -0.1181 -0.0358 -0.4406
   38CHL1    O3 2741   1.876   1.163   6.512 -0.1104 -0.1930 -0.1302
   38CHL1   H3' 2742   1.818   1.087   6.518 -0.9172  0.4241  0.0185
   38CHL1    C4 2743   1.944   1.076   6.718 -0.0336  0.2664  0.1640
   38CHL1   H4A 2744   1.877   0.989   6.700 -0.5774  0.0228  3.0085
   38CHL1   H4B 2745   2.046   1.056   6.681  0.3709  1.5871  0.5313
   38CHL1    C5 2746   1.951   1.096   6.867 -0.2963 -0.1966 -0.5172
   38CHL1    C6 2747   2.070   1.077   6.930 -0.2042  0.0330 -0.0824
   38CHL1    H6 2748   2.155   1.046   6.866  0.4008  0.1074  0.6834
   38CHL1    C7 2749   2.088   1.102   7.078 -0.1974  0.1036 -0.4588
   38CHL1   H7A 2750   2.159   1.026   7.116  3.0493  2.2707 -1.9649
   38CHL1   H7B 2751   2.136   1.202   7.084  1.7188 -0.6896 -1.9141
   38CHL1    C8 2752   1.950   1.094   7.149 -0.5252 -0.1813  0.8458
   38CHL1    H8 2753   1.924   0.987   7.138 -0.0000 -0.1009 -1.2741
   38CHL1   C14 2754   1.958   1.112   7.301  0.7424 -0.2607  0.1308
   38CHL1   H14 2755   1.986   1.218   7.317 -0.0238 -0.1565  0.7882
   38CHL1   C15 2756   2.062   1.043   7.380 -0.1853 -0.6494  0.1211
   38CHL1  H15A 2757   2.072   0.938   7.344 -0.4761 -0.5639 -0.2088
   38CHL1  H15B 2758   2.162   1.086   7.364 -0.3615  0.1263  1.0357
   38CHL1   C16 2759   2.003   1.052   7.518 -0.0629 -0.3465 -0.5999
   38CHL1  H16A 2760   2.011   0.951   7.565 -1.3754  0.5474  1.6362
   38CHL1  H16B 2761   2.069   1.106   7.590 -1.4449 -0.3046  0.6760
   38CHL1   C17 2762   1.860   1.110   7.522 -0.7523  0.0522  0.5895
   38CHL1   H17 2763   1.880   1.218   7.538 -0.0592 -0.0439  0.4038
   38CHL1   C13 2764   1.818   1.092   7.375  0.2640 -0.3366  0.0081
   38CHL1   C18 2765   1.764   0.956   7.347 -0.4888 -0.0457  0.1503
   38CHL1  H18A 2766   1.822   0.877   7.398  1.9222  2.0003  0.6596
   38CHL1  H18B 2767   1.658   0.938   7.376 -0.0217  0.5367  2.2747
   38CHL1  H18C 2768   1.750   0.940   7.238 -1.8546  2.0387 -0.0122
   38CHL1   C12 2769   1.729   1.206   7.324  0.6632 -0.1225  0.2391
   38CHL1  H12A 2770   1.626   1.220   7.364  1.0713  2.0515  0.5805
   38CHL1  H12B 2771   1.784   1.302   7.336 -1.1858  0.9434  0.4114
   38CHL1   C11 2772   1.715   1.193   7.172 -0.1138 -0.1676  0.5474
   38CHL1  H11A 2773   1.651   1.104   7.154  1.7153 -1.6941  1.4479
   38CHL1  H11B 2774   1.656   1.284   7.148 -1.1137 -0.5258  1.5578
   38CHL1    C9 2775   1.840   1.177   7.087  0.0174 -0.1366 -0.2996
   38CHL1    H9 2776   1.888   1.278   7.084  1.3639 -0.7868 -1.2449
   38CHL1   C10 2777   1.818   1.142   6.938  0.2895  0.7430  0.0062
   38CHL1   C19 2778   1.707   1.035   6.922 -0.2988  0.4058  0.7466
   38CHL1  H19A 2779   1.608   1.084   6.931 -0.4425  0.3433 -0.3807
   38CHL1  H19B 2780   1.707   0.983   6.824  3.5258 -1.2631  1.5537
   38CHL1  H19C 2781   1.714   0.951   6.993 -1.2615 -0.3161  0.0006
   38CHL1    C1 2782   1.768   1.265   6.865 -0.5278 -0.1510  0.0008
   38CHL1   H1A 2783   1.660   1.284   6.886 -0.4310  0.1172  0.2639
   38CHL1   H1B 2784   1.835   1.347   6.899  0.0907 -0.8583  0.5066
   38CHL1    C2 2785   1.768   1.249   6.712  0.8353  0.6635  0.4800
   38CHL1   H2A 2786   1.732   1.343   6.664 -0.3351  0.2138  0.4408
   38CHL1   H2B 2787   1.684   1.177   6.696  1.0929 -0.3987  3.6415
   38CHL1   C20 2788   1.780   1.054   7.639 -0.6677 -0.0897  0.4542
   38CHL1   H20 2789   1.764   0.946   7.618 -1.3212 -0.1079  1.0453
   38CHL1   C21 2790   1.645   1.129   7.640 -0.2757  0.0509  0.9156
   38CHL1  H21A 2791   1.581   1.120   7.731  0.1235 -0.7325  1.1195
   38CHL1  H21B 2792   1.580   1.100   7.556 -1.7738 -0.1739  2.1339
   38CHL1  H21C 2793   1.669   1.236   7.622  0.5277 -0.5339 -1.7206
   38CHL1   C22 2794   1.838   1.069   7.786 -0.1191  0.7277 -0.0576
   38CHL1  H22A 2795   1.942   1.031   7.789 -0.1636  0.7457  2.5656
   38CHL1  H22B 2796   1.833   1.178   7.810 -1.2625  1.0913 -1.8130
   38CHL1   C23 2797   1.763   0.998   7.901 -0.5173  0.6985 -0.3300
   38CHL1  H23A 2798   1.663   1.041   7.924 -0.2878  2.2959 -2.2401
   38CHL1  H23B 2799   1.745   0.893   7.867  0.0340  0.7718 -0.8509
   38CHL1   C24 2800   1.833   0.988   8.045 -0.3560  0.3217  0.0868
   38CHL1  H24A 2801   1.919   0.919   8.052 -0.5822 -0.0676 -0.8103
   38CHL1  H24B 2802   1.866   1.093   8.060 -1.4190  0.7235 -0.2946
   38CHL1   C25 2803   1.725   0.970   8.154  0.7247 -0.0598 -0.5221
   38CHL1   H25 2804   1.660   1.059   8.140  0.5678 -0.1608 -0.4321
   38CHL1   C26 2805   1.628   0.849   8.130  0.3576  0.6484 -0.2488
   38CHL1  H26A 2806   1.684   0.754   8.122 -0.6579 -0.0300  0.6052
   38CHL1  H26B 2807   1.550   0.849   8.210  1.3741 -1.3718  0.7678
   38CHL1  H26C 2808   1.573   0.859   8.033 -1.9264 -1.3998  0.7810
   38CHL1   C27 2809   1.783   0.982   8.303  0.8762  0.7145  1.1347
   38CHL1  H27A 2810   1.829   1.080   8.330  0.5300  0.8999  1.0485
   38CHL1  H27B 2811   1.704   0.958   8.377  1.2062  1.1888  1.6453
   38CHL1  H27C 2812   1.870   0.914   8.314  1.1114  1.0328  1.2872
   39CHL1    C3 2813   1.466   0.112   6.824  0.0010  0.4693  0.4783
   39CHL1    H3 2814   1.375   0.176   6.820 -0.5426 -0.3371 -0.5930
   39CHL1    O3 2815   1.525   0.091   6.698  0.3483 -0.0054  0.6170
   39CHL1   H3' 2816   1.464   0.043   6.641 -0.6760  2.3931 -0.3613
   39CHL1    C4 2817   1.567   0.188   6.908  0.5142  0.1600 -0.3384
   39CHL1   H4A 2818   1.660   0.127   6.910  0.1569 -0.3590  0.8060
   39CHL1   H4B 2819   1.582   0.286   6.857 -1.0628 -0.3589 -1.8470
   39CHL1    C5 2820   1.514   0.202   7.052  0.0587  0.4678 -0.5762
   39CHL1    C6 2821   1.504   0.319   7.116 -0.2716 -0.0445  0.0213
   39CHL1    H6 2822   1.528   0.414   7.067  1.6082 -0.1439  0.7369
   39CHL1    C7 2823   1.466   0.324   7.262  0.1988  0.5978 -0.5194
   39CHL1   H7A 2824   1.522   0.409   7.304 -0.4168  1.8367 -2.1657
   39CHL1   H7B 2825   1.359   0.353   7.259 -0.5074 -2.0254 -2.6210
   39CHL1    C8 2826   1.474   0.190   7.341  0.0955  0.3800 -0.5886
   39CHL1    H8 2827   1.580   0.158   7.349  0.2370  1.0230  0.1416
   39CHL1   C14 2828   1.408   0.205   7.478 -0.4619  0.0816 -0.5530
   39CHL1   H14 2829   1.307   0.247   7.456  0.0860  1.5464 -0.3499
   39CHL1   C15 2830   1.471   0.310   7.573  0.0727 -0.0242  0.6663
   39CHL1  H15A 2831   1.578   0.299   7.600  0.2166  0.4334  0.2904
   39CHL1  H15B 2832   1.447   0.417   7.555 -0.7155 -0.1649  0.8473
   39CHL1   C16 2833   1.398   0.261   7.703 -0.5590 -0.4510 -0.1264
   39CHL1  H16A 2834   1.482   0.253   7.775  0.1266 -1.2658 -1.0170
   39CHL1  H16B 2835   1.320   0.332   7.740 -0.4246 -0.2365 -0.2590
   39CHL1   C17 2836   1.332   0.129   7.677 -0.0434  0.5218  0.4869
   39CHL1   H17 2837   1.229   0.153   7.644  0.7864  1.2896 -1.6008
   39CHL1   C13 2838   1.400   0.073   7.554  0.0871  0.6316 -0.1013
   39CHL1   C18 2839   1.540   0.014   7.585  0.3600 -0.3109 -0.2251
   39CHL1  H18A 2840   1.596   0.084   7.649  0.6153 -0.0648 -0.7132
   39CHL1  H18B 2841   1.542  -0.084   7.637 -0.7860  0.2184  0.8277
   39CHL1  H18C 2842   1.611   0.000   7.501 -0.3007  2.5892 -1.3076
   39CHL1   C12 2843   1.318  -0.029   7.473  0.1330  0.1742  0.3660
   39CHL1  H12A 2844   1.316  -0.128   7.524  0.4858 -0.5924 -1.0885
   39CHL1  H12B 2845   1.215   0.010   7.458  0.2058  0.6138  1.0139
   39CHL1   C11 2846   1.375  -0.048   7.334 -0.2313  0.5099 -0.6997
   39CHL1  H11A 2847   1.472  -0.101   7.348  0.1996  1.0531 -1.6033
   39CHL1  H11B 2848   1.305  -0.111   7.274  1.3647 -2.7723  0.7673
   39CHL1    C9 2849   1.406   0.082   7.259  0.2611 -0.1215  0.5154
   39CHL1    H9 2850   1.309   0.126   7.229  0.8038 -0.8236 -2.4036
   39CHL1   C10 2851   1.479   0.063   7.119  0.6233 -0.4143 -0.0910
   39CHL1   C19 2852   1.610  -0.022   7.127  1.1181 -0.1820  0.4257
   39CHL1  H19A 2853   1.663  -0.031   7.030  0.0343 -0.1625 -0.1712
   39CHL1  H19B 2854   1.685   0.028   7.192  2.6462 -1.0721 -0.6434
   39CHL1  H19C 2855   1.574  -0.121   7.163  1.0354 -0.8000 -1.3142
   39CHL1    C1 2856   1.371  -0.006   7.026  0.2333 -0.3334  0.1305
   39CHL1   H1A 2857   1.345  -0.109   7.060 -1.9660 -0.4487 -1.7662
   39CHL1   H1B 2858   1.279   0.055   7.035 -0.3295 -1.0799 -0.4991
   39CHL1    C2 2859   1.426  -0.018   6.878 -0.0904 -0.0974 -0.5328
   39CHL1   H2A 2860   1.339  -0.055   6.820  2.1121 -1.2053 -3.2349
   39CHL1   H2B 2861   1.502  -0.099   6.868 -0.7382 -0.5683 -1.6203
   39CHL1   C20 2862   1.322   0.033   7.800  0.2559 -1.2485  0.1545
   39CHL1   H20 2863   1.366  -0.064   7.770  0.7138 -1.9591  2.9627
   39CHL1   C21 2864   1.172   0.004   7.816  0.0273 -0.0513 -0.2814
   39CHL1  H21A 2865   1.133  -0.031   7.718 -1.0380  1.9403 -0.5734
   39CHL1  H21B 2866   1.112   0.091   7.850 -1.7781 -0.6909 -1.7182
   39CHL1  H21C 2867   1.163  -0.076   7.893 -2.3681  0.9408  0.4844
   39CHL1   C22 2868   1.383   0.083   7.939  0.2755 -0.3842 -0.0731
   39CHL1  H22A 2869   1.492   0.106   7.932  0.3803  0.0543  2.3197
   39CHL1  H22B 2870   1.332   0.176   7.973  2.0586  2.3169 -4.3062
   39CHL1   C23 2871   1.377  -0.014   8.060  0.1358  0.0374  0.2252
   39CHL1  H23A 2872   1.274  -0.043   8.090  0.1613  0.3732  0.6493
   39CHL1  H23B 2873   1.421  -0.107   8.019  0.2797  0.3731 -0.3837
   39CHL1   C24 2874   1.452   0.037   8.177 -0.0675 -0.3238  0.5486
   39CHL1  H24A 2875   1.546   0.089   8.148  0.5509 -1.0742  1.1926
   39CHL1  H24B 2876   1.394   0.111   8.236  0.8336 -0.6785  1.9079
   39CHL1   C25 2877   1.493  -0.078   8.271  0.1785 -0.4018 -0.1103
   39CHL1   H25 2878   1.551  -0.024   8.349  0.1679  3.1716 -2.4556
   39CHL1   C26 2879   1.374  -0.132   8.341  0.1744 -0.4057 -0.0585
   39CHL1  H26A 2880   1.301  -0.187   8.278  0.3510 -1.7745  0.9187
   39CHL1  H26B 2881   1.404  -0.179   8.437 -2.5656  0.2413  1.1910
   39CHL1  H26C 2882   1.315  -0.045   8.378  0.8007  0.3991 -0.9306
   39CHL1   C27 2883   1.582  -0.183   8.206  0.5066 -0.1903 -0.6248
   39CHL1  H27A 2884   1.624  -0.254   8.280  1.4171 -0.8115 -1.7220
   39CHL1  H27B 2885   1.528  -0.249   8.134 -0.3373 -0.3099  0.1046
   39CHL1  H27C 2886   1.649  -0.126   8.138  1.0715 -0.8674 -0.6389
   40CHL1    C3 2887   4.329   4.874   6.891 -0.3122 -0.4819 -0.2537
   40CHL1    H3 2888   4.233   4.831   6.926 -0.4585  0.7293  0.8681
   40CHL1    O3 2889   4.334   4.885   6.749  0.1441 -0.6252  0.4037
   40CHL1   H3' 2890   4.378   4.967   6.728 -1.0534 -0.5120 -1.8700
   40CHL1    C4 2891   4.346   5.017   6.953  0.9984 -0.2020 -0.7951
   40CHL1   H4A 2892   4.435   5.071   6.913 -0.0017  1.5370 -0.7411
   40CHL1   H4B 2893   4.258   5.079   6.925  0.4845  0.2127  1.5922
   40CHL1    C5 2894   4.347   5.007   7.107  0.2420 -0.1608 -0.2023
   40CHL1    C6 2895   4.263   5.071   7.190 -0.2245  0.3229 -0.3937
   40CHL1    H6 2896   4.175   5.124   7.151 -0.6567 -1.4405 -1.8958
   40CHL1    C7 2897   4.272   5.067   7.339 -0.4095 -0.2169  0.1805
   40CHL1   H7A 2898   4.255   5.168   7.382 -0.9190 -0.4543  0.5337
   40CHL1   H7B 2899   4.188   5.005   7.376 -1.4572  1.1604  0.1474
   40CHL1    C8 2900   4.405   5.010   7.393  0.3352 -0.7033 -0.0040
   40CHL1    H8 2901   4.480   5.092   7.393  0.0399 -0.4322 -0.2870
   40CHL1   C14 2902   4.397   4.972   7.542  0.0960 -0.8791 -0.3086
   40CHL1   H14 2903   4.332   4.883   7.548 -1.9202  0.5866  0.0935
   40CHL1   C15 2904   4.332   5.070   7.643  0.4496 -1.1434  0.2040
   40CHL1  H15A 2905   4.374   5.173   7.640 -0.2265 -0.8388  1.2042
   40CHL1  H15B 2906   4.221   5.066   7.644  0.4514 -1.1633  0.2504
   40CHL1   C16 2907   4.375   5.023   7.786 -0.0042  0.0822  0.7877
   40CHL1  H16A 2908   4.438   5.105   7.827 -2.3402  1.2980  2.0746
   40CHL1  H16B 2909   4.293   4.994   7.855 -1.0521  1.8829  0.3315
   40CHL1   C17 2910   4.464   4.893   7.759  0.0256 -0.7333 -0.5735
   40CHL1   H17 2911   4.401   4.802   7.749 -1.6795  0.3245  0.3036
   40CHL1   C13 2912   4.522   4.913   7.616  0.3385  0.5361 -0.2103
   40CHL1   C18 2913   4.638   5.018   7.624  0.1846 -0.1560 -0.2349
   40CHL1  H18A 2914   4.598   5.113   7.664 -1.9958 -0.6236 -1.2217
   40CHL1  H18B 2915   4.728   4.983   7.678  0.5953 -0.4026 -1.0567
   40CHL1  H18C 2916   4.681   5.042   7.524 -0.3419  0.3238 -0.3508
   40CHL1   C12 2917   4.563   4.788   7.535  0.2545  0.2534  0.5093
   40CHL1  H12A 2918   4.663   4.760   7.575 -1.0268 -1.1211  2.8867
   40CHL1  H12B 2919   4.489   4.707   7.553  1.5495 -1.1787 -0.5488
   40CHL1   C11 2920   4.571   4.812   7.383  0.7594 -0.5408 -0.0479
   40CHL1  H11A 2921   4.661   4.876   7.372  0.6533 -0.3864 -0.0207
   40CHL1  H11B 2922   4.598   4.714   7.340 -0.0549 -1.3845  1.3310
   40CHL1    C9 2923   4.448   4.886   7.320 -0.5998  0.4082  1.2412
   40CHL1    H9 2924   4.358   4.824   7.341 -0.6934  0.0374 -0.2117
   40CHL1   C10 2925   4.459   4.910   7.164  0.5786  0.3832  0.0792
   40CHL1   C19 2926   4.585   4.999   7.126 -0.2780  0.8944 -0.3530
   40CHL1  H19A 2927   4.598   5.000   7.016 -2.3052 -0.1060 -0.6330
   40CHL1  H19B 2928   4.572   5.099   7.172  1.0797  0.8951  0.0408
   40CHL1  H19C 2929   4.676   4.944   7.157 -0.8888  0.0724  0.0013
   40CHL1    C1 2930   4.457   4.774   7.096  0.3916  0.3034  1.0742
   40CHL1   H1A 2931   4.556   4.723   7.099 -1.4273 -3.2891  2.0206
   40CHL1   H1B 2932   4.383   4.701   7.134 -3.3891  3.1493 -0.5146
   40CHL1    C2 2933   4.443   4.784   6.935  1.0074 -0.2194 -0.4221
   40CHL1   H2A 2934   4.440   4.679   6.899 -0.5615 -0.2030 -0.3754
   40CHL1   H2B 2935   4.541   4.826   6.904  0.3464  0.2781 -1.8624
   40CHL1   C20 2936   4.566   4.851   7.872 -0.4738  0.6184  0.1637
   40CHL1   H20 2937   4.646   4.927   7.886  0.6779 -0.4867 -0.2906
   40CHL1   C21 2938   4.621   4.715   7.843 -0.6220  0.1875  1.2567
   40CHL1  H21A 2939   4.548   4.632   7.825 -0.0160  0.2632 -1.7477
   40CHL1  H21B 2940   4.680   4.684   7.932  0.7623  0.5926  0.4741
   40CHL1  H21C 2941   4.699   4.708   7.765 -1.9736  1.1034 -0.2149
   40CHL1   C22 2942   4.497   4.845   8.010 -0.2852 -0.6507  1.2436
   40CHL1  H22A 2943   4.575   4.829   8.087  0.0400 -2.8218  0.5025
   40CHL1  H22B 2944   4.470   4.952   8.025  1.5279  0.3215 -1.9336
   40CHL1   C23 2945   4.371   4.750   8.038  0.6878  0.2041  0.9416
   40CHL1  H23A 2946   4.292   4.763   7.960  2.5570  4.0160 -0.4586
   40CHL1  H23B 2947   4.397   4.643   8.045 -0.0349 -0.0520 -0.1549
   40CHL1   C24 2948   4.314   4.778   8.177  0.0499  0.0105 -0.4114
   40CHL1  H24A 2949   4.406   4.771   8.238 -0.7009 -1.7658  0.5662
   40CHL1  H24B 2950   4.273   4.881   8.177 -1.1202 -0.4475 -0.3508
   40CHL1   C25 2951   4.206   4.678   8.226  0.5434 -0.0448 -0.1844
   40CHL1   H25 2952   4.121   4.690   8.156  0.2235 -2.0798 -0.2042
   40CHL1   C26 2953   4.249   4.529   8.205 -0.4971  0.0553 -0.0475
   40CHL1  H26A 2954   4.247   4.514   8.095  0.1302 -0.2699 -0.0137
   40CHL1  H26B 2955   4.348   4.504   8.247 -0.2119 -2.3359 -2.0179
   40CHL1  H26C 2956   4.176   4.453   8.241 -0.2375 -1.3965 -2.4545
   40CHL1   C27 2957   4.164   4.718   8.373  0.1332  0.0721 -0.2710
   40CHL1  H27A 2958   4.063   4.678   8.394  0.4050 -1.6349 -2.0707
   40CHL1  H27B 2959   4.231   4.671   8.447  1.7754 -0.6841 -2.1698
   40CHL1  H27C 2960   4.167   4.829   8.369  2.4145  0.0351 -0.3196
   41CHL1    C3 2961   5.138   4.956   7.118  0.2113 -0.1121 -0.4608
   41CHL1    H3 2962   5.205   4.867   7.114 -1.3189 -1.2024 -3.2414
   41CHL1    O3 2963   5.105   4.983   6.985  0.4387 -0.2344  0.1119
   41CHL1   H3' 2964   5.181   4.979   6.927  0.4228 -1.5484  0.1820
   41CHL1    C4 2965   5.018   4.934   7.210  0.5212  0.0760  0.1276
   41CHL1   H4A 2966   4.956   5.026   7.195 -0.6622 -1.0306 -2.0805
   41CHL1   H4B 2967   4.952   4.856   7.166  1.8413 -0.7682 -0.3660
   41CHL1    C5 2968   5.045   4.915   7.356  0.1042  0.5102 -0.8590
   41CHL1    C6 2969   5.008   4.806   7.418 -0.3264  0.0605  0.2814
   41CHL1    H6 2970   4.935   4.741   7.369  1.0475  0.1183 -1.8933
   41CHL1    C7 2971   5.021   4.796   7.567 -0.3006  0.1848 -0.2372
   41CHL1   H7A 2972   4.922   4.766   7.608 -0.8452  1.7306 -0.3877
   41CHL1   H7B 2973   5.095   4.718   7.594  0.9685  0.6606 -2.2434
   41CHL1    C8 2974   5.069   4.925   7.640  0.6656  0.8549  0.3426
   41CHL1    H8 2975   4.989   4.996   7.671 -0.6567 -1.4048  2.2620
   41CHL1   C14 2976   5.115   4.886   7.775  0.2264 -0.5758  0.3886
   41CHL1   H14 2977   5.191   4.805   7.772  4.0059  2.7858 -0.5076
   41CHL1   C15 2978   5.028   4.832   7.893  0.0550 -0.3294  0.2102
   41CHL1  H15A 2979   4.928   4.880   7.887 -0.0845 -0.5115  0.9549
   41CHL1  H15B 2980   5.016   4.722   7.883 -0.4041 -0.3438  0.8922
   41CHL1   C16 2981   5.099   4.861   8.032 -0.5605  0.0484  0.8075
   41CHL1  H16A 2982   5.017   4.904   8.092 -1.3389 -0.1539 -0.0914
   41CHL1  H16B 2983   5.145   4.773   8.082  0.9376  0.3868  0.0687
   41CHL1   C17 2984   5.218   4.952   7.987 -0.1900  0.4900  0.2320
   41CHL1   H17 2985   5.299   4.881   7.963 -0.3367  0.8697 -1.4287
   41CHL1   C13 2986   5.182   5.007   7.845 -0.2386  0.1368 -0.0072
   41CHL1   C18 2987   5.085   5.129   7.873  0.3204 -0.2122  0.7238
   41CHL1  H18A 2988   5.037   5.160   7.779  2.5624 -1.7325 -0.9773
   41CHL1  H18B 2989   5.007   5.093   7.943 -0.3077  2.1917  1.3113
   41CHL1  H18C 2990   5.152   5.210   7.911 -1.0588  1.5739 -0.5747
   41CHL1   C12 2991   5.304   5.053   7.767  0.6702  0.9894  0.5908
   41CHL1  H12A 2992   5.353   5.132   7.828  0.8073 -0.1657  1.9907
   41CHL1  H12B 2993   5.379   4.972   7.752 -1.3324 -0.5488 -1.6018
   41CHL1   C11 2994   5.263   5.102   7.625  0.0295 -0.9450 -0.7321
   41CHL1  H11A 2995   5.211   5.199   7.639  0.2308 -1.0541  0.8142
   41CHL1  H11B 2996   5.352   5.120   7.562  1.4009  0.2634  1.5167
   41CHL1    C9 2997   5.177   4.990   7.552 -0.0097 -0.7032 -0.5612
   41CHL1    H9 2998   5.252   4.908   7.543 -0.8046 -1.2728 -2.2032
   41CHL1   C10 2999   5.126   5.023   7.415 -0.3710  0.3999  0.1207
   41CHL1   C19 3000   5.033   5.147   7.430 -0.4203 -0.2694 -0.3254
   41CHL1  H19A 3001   4.967   5.170   7.343  0.2404 -1.1573 -1.0669
   41CHL1  H19B 3002   4.953   5.113   7.500  0.1555  1.1383  1.0485
   41CHL1  H19C 3003   5.076   5.246   7.456  1.1629 -0.5029 -1.9433
   41CHL1    C1 3004   5.250   5.062   7.322 -0.6300  0.5772 -0.3450
   41CHL1   H1A 3005   5.288   5.164   7.343 -0.6267  0.9845 -2.2359
   41CHL1   H1B 3006   5.323   4.979   7.334  1.0820  1.7474 -2.3247
   41CHL1    C2 3007   5.225   5.082   7.173 -0.2414  0.2809 -0.3125
   41CHL1   H2A 3008   5.320   5.091   7.118 -0.8185 -0.1285 -1.3918
   41CHL1   H2B 3009   5.154   5.168   7.166  0.1154  0.5945 -0.0769
   41CHL1   C20 3010   5.276   5.051   8.094 -0.3702  0.1011  0.5515
   41CHL1   H20 3011   5.317   5.134   8.032  2.4731 -1.8879 -0.3642
   41CHL1   C21 3012   5.376   4.971   8.175  0.0623 -0.4026 -0.2600
   41CHL1  H21A 3013   5.336   4.918   8.265 -0.5454 -3.4834 -2.2569
   41CHL1  H21B 3014   5.447   5.048   8.212 -1.6108  1.5338 -0.9972
   41CHL1  H21C 3015   5.431   4.890   8.121 -0.6158 -2.1155  1.5533
   41CHL1   C22 3016   5.167   5.112   8.184  0.3998  0.0103 -0.4306
   41CHL1  H22A 3017   5.084   5.167   8.135  0.1121  0.3599  0.4362
   41CHL1  H22B 3018   5.115   5.023   8.224  1.1377  0.2008  0.9894
   41CHL1   C23 3019   5.228   5.210   8.286  0.1442  0.2156  0.1680
   41CHL1  H23A 3020   5.298   5.152   8.351  2.2293  2.4993  0.0131
   41CHL1  H23B 3021   5.286   5.287   8.231 -1.4678  0.9980 -0.4621
   41CHL1   C24 3022   5.129   5.259   8.386  0.0632 -0.4547  0.4446
   41CHL1  H24A 3023   5.042   5.296   8.328  0.9866  1.6091  0.3360
   41CHL1  H24B 3024   5.102   5.176   8.456 -0.9444  0.5778  1.2920
   41CHL1   C25 3025   5.173   5.377   8.482  0.0986  0.2156 -0.2828
   41CHL1   H25 3026   5.086   5.422   8.535  0.6078 -0.4243  1.1050
   41CHL1   C26 3027   5.279   5.336   8.589  0.2968 -0.2490 -0.4802
   41CHL1  H26A 3028   5.301   5.429   8.648  0.0070  1.1050 -2.4675
   41CHL1  H26B 3029   5.248   5.250   8.652  1.1730 -0.8940 -0.9301
   41CHL1  H26C 3030   5.380   5.314   8.549  0.6678 -1.0827  0.8921
   41CHL1   C27 3031   5.227   5.496   8.398 -0.5473 -0.0297 -1.0639
   41CHL1  H27A 3032   5.156   5.518   8.316  0.7252  2.5261 -1.5227
   41CHL1  H27B 3033   5.243   5.586   8.460 -1.4068 -1.3578  1.1329
   41CHL1  H27C 3034   5.322   5.455   8.356  0.4893  1.7740 -0.5034
   42CHL1    C3 3035   6.477   3.183   7.150 -0.3595 -0.2463  0.3577
   42CHL1    H3 3036   6.545   3.097   7.167  0.1123 -0.8905 -4.2014
   42CHL1    O3 3037   6.451   3.181   7.009  0.0136 -0.4450  0.1681
   42CHL1   H3' 3038   6.358   3.161   6.999  0.1043 -0.6875 -0.2136
   42CHL1    C4 3039   6.343   3.171   7.223 -0.1217 -0.4256 -0.2263
   42CHL1   H4A 3040   6.280   3.260   7.200  2.9889  1.7898 -0.4131
   42CHL1   H4B 3041   6.297   3.078   7.183 -1.8580  0.7939 -1.1316
   42CHL1    C5 3042   6.371   3.168   7.372 -0.4573  0.9940  0.0641
   42CHL1    C6 3043   6.351   3.054   7.440 -0.1614 -0.6515 -0.1796
   42CHL1    H6 3044   6.303   2.971   7.386 -1.3268  0.8435 -1.4539
   42CHL1    C7 3045   6.373   3.046   7.587  0.0145  0.1547 -0.6680
   42CHL1   H7A 3046   6.281   3.007   7.635  0.1029  2.2340  1.2972
   42CHL1   H7B 3047   6.455   2.973   7.599  0.0199  0.9127  5.8712
   42CHL1    C8 3048   6.416   3.177   7.658  0.0863  0.1930  0.1019
   42CHL1    H8 3049   6.324   3.236   7.680 -0.3476  0.3503 -2.0765
   42CHL1   C14 3050   6.491   3.161   7.794  0.0710  0.0110 -0.0227
   42CHL1   H14 3051   6.587   3.106   7.780  0.2649  0.1733  0.6525
   42CHL1   C15 3052   6.417   3.069   7.894 -0.1559 -0.2230  0.1292
   42CHL1  H15A 3053   6.310   3.097   7.885 -0.2503 -0.8429 -0.6842
   42CHL1  H15B 3054   6.410   2.963   7.862  0.4346 -0.2561  0.1082
   42CHL1   C16 3055   6.488   3.100   8.031  0.2889 -0.3236 -0.1924
   42CHL1  H16A 3056   6.409   3.114   8.108  3.1149  0.8238  2.6475
   42CHL1  H16B 3057   6.541   3.006   8.058 -1.3913 -1.2523 -0.0230
   42CHL1   C17 3058   6.584   3.224   7.998 -0.4234  0.1557  0.0259
   42CHL1   H17 3059   6.681   3.182   7.965 -1.5944 -1.9130 -0.8788
   42CHL1   C13 3060   6.522   3.288   7.874 -0.3986 -0.0793 -0.0050
   42CHL1   C18 3061   6.393   3.368   7.903  0.3211 -0.0884 -0.0049
   42CHL1  H18A 3062   6.339   3.393   7.810  3.0819  0.7648 -1.4307
   42CHL1  H18B 3063   6.319   3.301   7.952  1.8498 -1.2999  0.7172
   42CHL1  H18C 3064   6.402   3.455   7.971  1.4594  0.7634 -1.2275
   42CHL1   C12 3065   6.619   3.368   7.784  0.5256  0.4488 -0.7384
   42CHL1  H12A 3066   6.655   3.466   7.823  1.1167 -0.2112  0.3991
   42CHL1  H12B 3067   6.709   3.304   7.779 -0.9210 -1.9151  1.9539
   42CHL1   C11 3068   6.564   3.388   7.634 -0.7829  0.1339  0.5952
   42CHL1  H11A 3069   6.480   3.459   7.645 -0.4342  1.3628 -3.6769
   42CHL1  H11B 3070   6.650   3.422   7.573 -0.2029 -0.5651  1.0084
   42CHL1    C9 3071   6.506   3.260   7.564  0.1901  0.7423 -0.6115
   42CHL1    H9 3072   6.589   3.188   7.543  1.8607  2.4571  0.0297
   42CHL1   C10 3073   6.444   3.295   7.422  0.3993 -0.3590 -0.5365
   42CHL1   C19 3074   6.334   3.405   7.440 -0.3606 -0.7615  0.2885
   42CHL1  H19A 3075   6.246   3.372   7.500 -0.5021 -0.2838  0.3408
   42CHL1  H19B 3076   6.375   3.499   7.484 -0.8728  0.0042 -0.8465
   42CHL1  H19C 3077   6.308   3.428   7.335 -1.7225 -1.2563  0.5157
   42CHL1    C1 3078   6.563   3.333   7.331  0.3637 -0.4507 -0.4416
   42CHL1   H1A 3079   6.602   3.435   7.348 -0.2670 -0.1810 -0.5876
   42CHL1   H1B 3080   6.650   3.267   7.353  0.8909  0.8291  1.4065
   42CHL1    C2 3081   6.529   3.323   7.188  0.2319 -0.1705 -0.5955
   42CHL1   H2A 3082   6.622   3.341   7.130  1.7397  0.3460  1.9020
   42CHL1   H2B 3083   6.456   3.406   7.171  1.9488  1.5255  0.1345
   42CHL1   C20 3084   6.584   3.319   8.121 -0.3956  0.3508  0.0285
   42CHL1   H20 3085   6.477   3.339   8.144  0.0936  3.8422 -0.5323
   42CHL1   C21 3086   6.653   3.457   8.093  0.2408  0.8641  0.6022
   42CHL1  H21A 3087   6.755   3.445   8.051  1.1532  0.7157  2.8230
   42CHL1  H21B 3088   6.656   3.516   8.187 -0.1292  1.1668  0.4269
   42CHL1  H21C 3089   6.599   3.523   8.021  0.2677 -1.1495 -1.3432
   42CHL1   C22 3090   6.639   3.259   8.253 -0.0916  0.0552  0.2118
   42CHL1  H22A 3091   6.590   3.161   8.272 -2.3673  0.8542 -1.3769
   42CHL1  H22B 3092   6.745   3.230   8.236  0.1885  1.7397 -0.9257
   42CHL1   C23 3093   6.608   3.342   8.381 -0.7228 -0.2946  1.3339
   42CHL1  H23A 3094   6.669   3.435   8.379  1.9865 -2.0235  1.0644
   42CHL1  H23B 3095   6.505   3.383   8.373 -0.8001 -1.0966 -2.7959
   42CHL1   C24 3096   6.638   3.260   8.509  0.2837 -0.4337  0.2136
   42CHL1  H24A 3097   6.569   3.174   8.518  0.9659 -0.9420  0.6524
   42CHL1  H24B 3098   6.744   3.228   8.500  0.5897 -0.2924  2.9229
   42CHL1   C25 3099   6.622   3.347   8.631  0.0010  0.7293 -0.0896
   42CHL1   H25 3100   6.665   3.449   8.619 -0.8117  1.1987  0.8852
   42CHL1   C26 3101   6.473   3.373   8.656  0.1165  0.0815  0.0433
   42CHL1  H26A 3102   6.430   3.368   8.554  2.2534 -0.9831 -0.8360
   42CHL1  H26B 3103   6.426   3.294   8.719  1.3005 -0.5172  0.1812
   42CHL1  H26C 3104   6.469   3.476   8.700  1.8402 -0.1018  0.6744
   42CHL1   C27 3105   6.680   3.280   8.749  0.1676  0.3991 -0.1655
   42CHL1  H27A 3106   6.691   3.355   8.830  1.4790 -0.0401  0.0666
   42CHL1  H27B 3107   6.771   3.219   8.731  0.0566 -0.2298  1.2873
   42CHL1  H27C 3108   6.609   3.201   8.784  1.0980 -0.6066 -0.5229
   43CHL1    C3 3109   5.804   6.283   6.896  0.2675 -0.2562  0.5419
   43CHL1    H3 3110   5.761   6.183   6.922 -0.0412  0.2649  2.0974
   43CHL1    O3 3111   5.849   6.284   6.757 -0.6172 -0.1246  1.0323
   43CHL1   H3' 3112   5.910   6.357   6.757  0.1435 -0.7541  1.3664
   43CHL1    C4 3113   5.683   6.385   6.927  0.0964 -0.2563  0.7556
   43CHL1   H4A 3114   5.722   6.486   6.902  0.3437 -0.1641  1.5221
   43CHL1   H4B 3115   5.610   6.373   6.844  0.8498 -1.2284  0.2134
   43CHL1    C5 3116   5.644   6.395   7.070  0.8439 -0.2827 -0.4008
   43CHL1    C6 3117   5.516   6.398   7.106  0.6425  0.1237  0.2129
   43CHL1    H6 3118   5.439   6.410   7.029 -0.1571 -1.0772  0.8052
   43CHL1    C7 3119   5.453   6.413   7.243 -0.2218  0.3187  0.1640
   43CHL1   H7A 3120   5.372   6.486   7.264 -0.8559 -1.0490  2.7061
   43CHL1   H7B 3121   5.414   6.312   7.270 -0.7471  0.5395  0.2208
   43CHL1    C8 3122   5.567   6.444   7.344 -0.3226  0.1410 -0.0685
   43CHL1    H8 3123   5.568   6.555   7.336  2.4365  0.2022  0.6971
   43CHL1   C14 3124   5.531   6.413   7.485  0.5146 -0.0423  0.7076
   43CHL1   H14 3125   5.528   6.302   7.492 -0.1790 -0.1956 -1.7781
   43CHL1   C15 3126   5.388   6.448   7.539 -0.5420  0.0848 -0.5659
   43CHL1  H15A 3127   5.357   6.539   7.482 -1.2902  0.0522 -0.2085
   43CHL1  H15B 3128   5.309   6.371   7.533 -1.4449  0.6499  2.8961
   43CHL1   C16 3129   5.405   6.493   7.687 -0.0671 -0.8602  0.6888
   43CHL1  H16A 3130   5.406   6.603   7.696 -0.5474 -0.9372  1.7511
   43CHL1  H16B 3131   5.332   6.446   7.756 -0.5371  1.7544  2.0309
   43CHL1   C17 3132   5.551   6.454   7.722  0.4217 -0.3605  0.5820
   43CHL1   H17 3133   5.545   6.346   7.746 -2.4536 -0.6933 -1.4401
   43CHL1   C13 3134   5.633   6.468   7.588  0.0128  0.6285 -0.3200
   43CHL1   C18 3135   5.668   6.618   7.566 -0.4419  1.1831  0.6264
   43CHL1  H18A 3136   5.580   6.685   7.573 -1.8945 -0.6869  0.6801
   43CHL1  H18B 3137   5.746   6.649   7.639  0.2868 -1.4464  1.0099
   43CHL1  H18C 3138   5.718   6.640   7.469 -1.1510  0.5557  0.1095
   43CHL1   C12 3139   5.762   6.386   7.573 -0.2822  0.0788 -0.3442
   43CHL1  H12A 3140   5.828   6.420   7.655  0.6356 -1.5544 -0.3874
   43CHL1  H12B 3141   5.740   6.282   7.605  1.6497 -0.4672 -0.7100
   43CHL1   C11 3142   5.809   6.394   7.428  0.4290 -0.3310 -0.3667
   43CHL1  H11A 3143   5.856   6.495   7.425  0.6566 -0.3826  1.1977
   43CHL1  H11B 3144   5.895   6.326   7.406  0.2489 -0.0313 -2.0473
   43CHL1    C9 3145   5.708   6.376   7.309 -0.7074  0.2609  0.5767
   43CHL1    H9 3146   5.687   6.268   7.323  1.8030 -0.5631 -1.7603
   43CHL1   C10 3147   5.760   6.398   7.163  0.2341  0.2399  0.0660
   43CHL1   C19 3148   5.818   6.542   7.156 -0.0738  0.0550  0.1669
   43CHL1  H19A 3149   5.853   6.559   7.052 -0.5874 -2.7765 -0.5189
   43CHL1  H19B 3150   5.741   6.619   7.178 -1.5597 -0.9261 -1.5899
   43CHL1  H19C 3151   5.906   6.562   7.222  0.8110  0.2736 -1.0508
   43CHL1    C1 3152   5.874   6.300   7.144  0.0837 -0.2605 -0.2537
   43CHL1   H1A 3153   5.952   6.328   7.217 -1.3631  3.2356  0.0595
   43CHL1   H1B 3154   5.843   6.198   7.174 -1.0513  0.4443  1.0840
   43CHL1    C2 3155   5.922   6.307   6.995 -0.0562  0.3455 -0.1232
   43CHL1   H2A 3156   6.007   6.236   6.989 -0.1927  0.2956 -1.7425
   43CHL1   H2B 3157   5.962   6.410   6.983 -1.0710  0.8602  0.7280
   43CHL1   C20 3158   5.599   6.537   7.844 -0.8976  0.2857  0.1176
   43CHL1   H20 3159   5.610   6.646   7.824  2.0155 -0.2209 -1.4345
   43CHL1   C21 3160   5.732   6.491   7.907  0.6561  0.0930 -0.8998
   43CHL1  H21A 3161   5.735   6.382   7.932  1.0508  0.4860  0.8517
   43CHL1  H21B 3162   5.748   6.551   7.999  0.8977  0.3789 -1.1326
   43CHL1  H21C 3163   5.809   6.512   7.830  0.2256  0.3164 -1.2748
   43CHL1   C22 3164   5.490   6.536   7.962 -0.2330 -0.3781 -0.1495
   43CHL1  H22A 3165   5.533   6.600   8.042 -0.4274 -0.5587  0.1036
   43CHL1  H22B 3166   5.397   6.591   7.937 -0.3226  0.3353  1.6456
   43CHL1   C23 3167   5.457   6.402   8.025  0.0145  0.1533 -0.7278
   43CHL1  H23A 3168   5.443   6.330   7.942  0.4824 -3.1868  1.9951
   43CHL1  H23B 3169   5.548   6.382   8.084  0.9969  0.6602 -2.0447
   43CHL1   C24 3170   5.347   6.422   8.127  0.7692  0.7466  0.0376
   43CHL1  H24A 3171   5.258   6.459   8.072 -0.4621 -1.2494  0.6655
   43CHL1  H24B 3172   5.328   6.324   8.174 -0.5925 -0.0426 -2.0794
   43CHL1   C25 3173   5.385   6.527   8.239 -0.7610  0.2576 -0.8748
   43CHL1   H25 3174   5.396   6.631   8.201 -0.5031  0.2548 -0.8056
   43CHL1   C26 3175   5.268   6.525   8.336 -0.6691  0.2172  0.4739
   43CHL1  H26A 3176   5.173   6.553   8.284 -1.2659 -1.8325  0.4052
   43CHL1  H26B 3177   5.255   6.429   8.391 -3.1951  0.3388  0.1670
   43CHL1  H26C 3178   5.293   6.606   8.406  0.3785  0.2138  0.1072
   43CHL1   C27 3179   5.517   6.492   8.314 -0.2004  0.3058 -0.5096
   43CHL1  H27A 3180   5.504   6.392   8.362  1.6664  0.0948 -0.4187
   43CHL1  H27B 3181   5.597   6.499   8.237  1.1334  1.8654  0.9907
   43CHL1  H27C 3182   5.546   6.559   8.398  0.7574  0.7280 -1.1743
   44CHL1    C3 3183   5.736   5.397   6.743  0.4821  0.1302  0.3230
   44CHL1    H3 3184   5.647   5.462   6.732  0.3042 -0.5799 -2.8255
   44CHL1    O3 3185   5.788   5.369   6.614  0.2306 -0.5470  0.0104
   44CHL1   H3' 3186   5.796   5.461   6.586 -1.1108 -0.1983  0.7091
   44CHL1    C4 3187   5.852   5.456   6.836  0.4042  0.6804  0.0294
   44CHL1   H4A 3188   5.933   5.380   6.843 -0.1357 -0.0014 -0.9725
   44CHL1   H4B 3189   5.896   5.545   6.787 -0.0098  0.7341 -0.2513
   44CHL1    C5 3190   5.793   5.477   6.973  0.3057  1.0289 -0.4124
   44CHL1    C6 3191   5.787   5.595   7.030 -0.1012 -0.6652  0.4010
   44CHL1    H6 3192   5.817   5.684   6.972 -1.4045 -1.0762 -0.9475
   44CHL1    C7 3193   5.741   5.638   7.165 -0.1442  0.5758  0.1708
   44CHL1   H7A 3194   5.815   5.702   7.219 -0.3440 -0.9357  2.2956
   44CHL1   H7B 3195   5.646   5.694   7.154 -1.0056 -1.2658 -2.0854
   44CHL1    C8 3196   5.717   5.500   7.248 -0.0951 -0.3382  0.7580
   44CHL1    H8 3197   5.824   5.480   7.275 -0.2826  0.8382  2.4981
   44CHL1   C14 3198   5.623   5.531   7.368  0.0348 -0.3424  0.4344
   44CHL1   H14 3199   5.519   5.563   7.343  0.3630  0.6591  0.3438
   44CHL1   C15 3200   5.666   5.648   7.460  0.5112  0.2353 -0.1054
   44CHL1  H15A 3201   5.777   5.649   7.468  0.3601  1.6707  2.4107
   44CHL1  H15B 3202   5.636   5.750   7.427  1.3846  0.4086 -0.3908
   44CHL1   C16 3203   5.607   5.609   7.595 -0.3810 -0.1674 -0.1897
   44CHL1  H16A 3204   5.690   5.605   7.670  0.3010  3.0674 -0.6727
   44CHL1  H16B 3205   5.529   5.678   7.634  0.1266 -0.1965  0.9264
   44CHL1   C17 3206   5.550   5.463   7.584 -0.1116 -0.2680  0.9097
   44CHL1   H17 3207   5.446   5.481   7.550  0.1390  1.1083  0.8258
   44CHL1   C13 3208   5.617   5.401   7.452  0.0794  0.4993 -0.2069
   44CHL1   C18 3209   5.749   5.341   7.500 -0.3355  0.1323  0.2822
   44CHL1  H18A 3210   5.818   5.315   7.418  0.2674  1.8166  0.2232
   44CHL1  H18B 3211   5.801   5.421   7.557  1.1463 -0.6462  0.0182
   44CHL1  H18C 3212   5.738   5.246   7.556 -4.0759  0.1467 -0.2984
   44CHL1   C12 3213   5.531   5.299   7.369 -0.4372 -0.6736  0.2459
   44CHL1  H12A 3214   5.509   5.206   7.425  1.0661 -0.6634  0.8854
   44CHL1  H12B 3215   5.431   5.345   7.363 -0.5479 -1.0792 -1.1623
   44CHL1   C11 3216   5.602   5.271   7.240  0.0387  0.1943  0.5697
   44CHL1  H11A 3217   5.690   5.208   7.262  0.7857  1.2635  0.7042
   44CHL1  H11B 3218   5.534   5.208   7.179  2.2495 -3.0678  1.3864
   44CHL1    C9 3219   5.650   5.389   7.164  0.0008  0.3323 -0.0359
   44CHL1    H9 3220   5.557   5.434   7.124  0.8087 -0.8560 -3.3505
   44CHL1   C10 3221   5.740   5.350   7.041  0.4065  0.1937  0.3664
   44CHL1   C19 3222   5.867   5.267   7.083  0.2309 -0.1299 -0.3112
   44CHL1  H19A 3223   5.939   5.251   7.000  2.1144  2.7977  0.6791
   44CHL1  H19B 3224   5.917   5.321   7.167  0.7358 -1.3239  0.1666
   44CHL1  H19C 3225   5.841   5.167   7.124 -2.3766  0.5109 -0.3376
   44CHL1    C1 3226   5.654   5.270   6.940 -0.5207  0.4143  0.6146
   44CHL1   H1A 3227   5.627   5.167   6.973  1.4076 -1.4445 -3.1460
   44CHL1   H1B 3228   5.556   5.319   6.925  0.6448  1.8596 -2.8852
   44CHL1    C2 3229   5.700   5.257   6.792  0.1888 -0.2875  0.3669
   44CHL1   H2A 3230   5.622   5.198   6.738  1.7850 -0.6943 -1.5307
   44CHL1   H2B 3231   5.791   5.194   6.794  0.9396  0.7847  0.3228
   44CHL1   C20 3232   5.539   5.379   7.709 -0.4783 -0.4554 -0.2063
   44CHL1   H20 3233   5.505   5.280   7.673 -1.1917 -0.0343 -0.6958
   44CHL1   C21 3234   5.412   5.426   7.794 -1.2277  0.4218 -0.5095
   44CHL1  H21A 3235   5.424   5.533   7.821 -2.0070  0.2863  0.3627
   44CHL1  H21B 3236   5.389   5.367   7.885 -2.9461 -0.6624 -1.6088
   44CHL1  H21C 3237   5.325   5.427   7.725  1.4382  0.5144 -4.0440
   44CHL1   C22 3238   5.655   5.380   7.806  0.2563  0.0624 -0.2193
   44CHL1  H22A 3239   5.748   5.418   7.758 -1.1493 -0.8492 -3.8268
   44CHL1  H22B 3240   5.643   5.425   7.907  1.5333 -2.0872  0.9400
   44CHL1   C23 3241   5.698   5.234   7.851 -0.5727  0.3352 -0.1533
   44CHL1  H23A 3242   5.611   5.180   7.893 -0.5714 -0.3084 -0.9621
   44CHL1  H23B 3243   5.714   5.174   7.758 -0.5767 -0.4177  0.3330
   44CHL1   C24 3244   5.821   5.214   7.948 -0.0111  0.1333 -0.0697
   44CHL1  H24A 3245   5.840   5.105   7.939 -1.2378 -0.0393 -0.7801
   44CHL1  H24B 3246   5.909   5.270   7.910 -0.2791  1.0763  0.6973
   44CHL1   C25 3247   5.800   5.262   8.097 -0.2612 -0.0698  0.0725
   44CHL1   H25 3248   5.772   5.369   8.094  0.4768  0.0863 -1.4049
   44CHL1   C26 3249   5.679   5.196   8.155  0.8828  0.7854 -0.2965
   44CHL1  H26A 3250   5.590   5.227   8.096  0.9372 -1.0946 -1.4396
   44CHL1  H26B 3251   5.688   5.085   8.148 -0.4700  0.7281 -1.3117
   44CHL1  H26C 3252   5.673   5.215   8.264 -0.0062  1.6491 -0.4986
   44CHL1   C27 3253   5.921   5.225   8.177  0.7726 -0.0957  0.3445
   44CHL1  H27A 3254   5.897   5.247   8.284 -1.2923 -0.9130  0.0847
   44CHL1  H27B 3255   5.938   5.116   8.165  0.1048 -0.2394  0.6374
   44CHL1  H27C 3256   6.012   5.283   8.154  0.3830  0.1448 -0.6340
   45CHL1    C3 3257   0.671   4.028   6.809 -0.4167  0.4030  0.7318
   45CHL1    H3 3258   0.695   3.921   6.825 -1.5075  0.4297  2.6138
   45CHL1    O3 3259   0.699   4.074   6.675 -0.2278  0.6662 -0.0252
   45CHL1   H3' 3260   0.653   4.157   6.658 -1.7803 -0.2489 -0.4397
   45CHL1    C4 3261   0.530   4.051   6.844 -0.0883  0.0420  0.1906
   45CHL1   H4A 3262   0.497   4.155   6.822 -0.1235 -0.0309 -0.0903
   45CHL1   H4B 3263   0.460   3.982   6.793 -0.6571  0.7986 -0.0779
   45CHL1    C5 3264   0.507   4.029   6.999  0.1689  0.5720 -0.6425
   45CHL1    C6 3265   0.414   3.942   7.036 -0.0227  0.2845 -0.0810
   45CHL1    H6 3266   0.354   3.894   6.957 -1.1876 -0.5224  1.2695
   45CHL1    C7 3267   0.370   3.925   7.184 -0.2105  0.0949  0.2835
   45CHL1   H7A 3268   0.260   3.924   7.176 -0.1037 -0.9418 -1.3817
   45CHL1   H7B 3269   0.404   3.829   7.231 -3.5208 -2.1398 -1.7020
   45CHL1    C8 3270   0.430   4.033   7.274 -1.1079 -0.0075 -0.1001
   45CHL1    H8 3271   0.367   4.123   7.259 -1.2140 -0.2225 -1.0045
   45CHL1   C14 3272   0.423   3.985   7.423  0.4756 -0.2094 -0.7511
   45CHL1   H14 3273   0.481   3.891   7.431  0.8459  0.1159  0.5742
   45CHL1   C15 3274   0.288   3.942   7.484 -0.9549 -0.4194 -0.6981
   45CHL1  H15A 3275   0.215   4.023   7.459  0.9363  1.5069 -0.1472
   45CHL1  H15B 3276   0.249   3.850   7.437 -0.4433 -2.7973  3.3166
   45CHL1   C16 3277   0.319   3.940   7.641 -0.5460 -0.4022 -0.0242
   45CHL1  H16A 3278   0.236   3.988   7.697  0.3337  0.4545  0.5677
   45CHL1  H16B 3279   0.340   3.841   7.685 -0.1596  0.4821  1.8221
   45CHL1   C17 3280   0.453   4.015   7.652  0.2725 -0.8145  0.0256
   45CHL1   H17 3281   0.529   3.934   7.649  0.6972 -0.5089  1.6571
   45CHL1   C13 3282   0.478   4.082   7.516 -0.5425 -0.7445 -0.6045
   45CHL1   C18 3283   0.400   4.213   7.514 -0.2523 -0.6860 -0.2844
   45CHL1  H18A 3284   0.394   4.256   7.412  1.6139 -0.1817 -0.1996
   45CHL1  H18B 3285   0.293   4.201   7.542 -0.3792  1.7262  0.4231
   45CHL1  H18C 3286   0.439   4.284   7.591 -1.3628  0.5471 -0.8257
   45CHL1   C12 3287   0.628   4.099   7.484  0.8721 -0.5264  0.0917
   45CHL1  H12A 3288   0.681   4.157   7.562  0.8838  0.4911 -0.6723
   45CHL1  H12B 3289   0.676   3.998   7.484  0.5527 -0.6823 -0.4418
   45CHL1   C11 3290   0.644   4.157   7.344  0.0721  0.1157 -1.2062
   45CHL1  H11A 3291   0.604   4.260   7.350 -2.8754 -1.0790  0.5770
   45CHL1  H11B 3292   0.751   4.162   7.316  0.1409  0.7016 -0.8353
   45CHL1    C9 3293   0.579   4.065   7.238  0.1136  0.2610  0.2325
   45CHL1    H9 3294   0.625   3.964   7.244 -2.1984 -0.9441 -1.4044
   45CHL1   C10 3295   0.595   4.109   7.092 -0.1413  0.4550 -0.5829
   45CHL1   C19 3296   0.554   4.259   7.088  0.2097 -0.0818 -0.1680
   45CHL1  H19A 3297   0.548   4.297   6.984  2.7500 -2.3312 -1.1996
   45CHL1  H19B 3298   0.470   4.280   7.157 -0.9410  0.9421 -1.8431
   45CHL1  H19C 3299   0.644   4.314   7.123 -0.5150  0.8551  0.2539
   45CHL1    C1 3300   0.744   4.084   7.050  0.1669 -0.3015 -0.1575
   45CHL1   H1A 3301   0.809   4.160   7.098 -0.2868  0.7347 -1.1460
   45CHL1   H1B 3302   0.770   3.983   7.087 -2.9405 -0.8277  0.7911
   45CHL1    C2 3303   0.762   4.107   6.896 -0.1822 -0.6651 -1.1392
   45CHL1   H2A 3304   0.867   4.091   6.862  1.2968  1.8321  2.0288
   45CHL1   H2B 3305   0.749   4.218   6.894 -0.8603 -0.7182 -0.0135
   45CHL1   C20 3306   0.481   4.105   7.783  0.1532  0.2923 -0.0563
   45CHL1   H20 3307   0.549   4.191   7.763 -1.4034  1.9751  1.7037
   45CHL1   C21 3308   0.553   4.014   7.888 -0.4899  0.4660  0.3364
   45CHL1  H21A 3309   0.585   4.084   7.969 -1.6342  1.7313 -0.2816
   45CHL1  H21B 3310   0.648   3.975   7.847 -0.5486  0.1852  0.4646
   45CHL1  H21C 3311   0.484   3.931   7.915 -1.6025  1.0729 -0.6229
   45CHL1   C22 3312   0.350   4.161   7.854 -0.3881 -0.8582  0.4013
   45CHL1  H22A 3313   0.275   4.199   7.782  2.9448  0.7952 -2.3823
   45CHL1  H22B 3314   0.296   4.075   7.899 -2.0945 -0.4664 -0.8436
   45CHL1   C23 3315   0.398   4.270   7.944 -0.0880 -0.2313  0.0488
   45CHL1  H23A 3316   0.486   4.242   8.005  0.4377 -1.7121 -1.3340
   45CHL1  H23B 3317   0.438   4.358   7.889 -0.5647  0.8235  1.3551
   45CHL1   C24 3318   0.275   4.322   8.024 -0.6454 -0.2850 -0.3470
   45CHL1  H24A 3319   0.201   4.385   7.970  1.2355  0.8660 -1.6556
   45CHL1  H24B 3320   0.212   4.238   8.062 -0.2702 -0.8610 -0.9705
   45CHL1   C25 3321   0.317   4.392   8.157 -0.8562 -0.3501  0.6297
   45CHL1   H25 3322   0.387   4.476   8.137 -3.5132  2.4612  2.6263
   45CHL1   C26 3323   0.189   4.453   8.214  0.5377 -1.1089 -0.4585
   45CHL1  H26A 3324   0.135   4.514   8.139 -0.1346 -1.8175 -0.5615
   45CHL1  H26B 3325   0.115   4.375   8.242  0.5535 -0.6673  0.8216
   45CHL1  H26C 3326   0.206   4.504   8.311 -1.3897 -0.4734 -0.4518
   45CHL1   C27 3327   0.377   4.298   8.268  0.8039  0.7377 -0.2239
   45CHL1  H27A 3328   0.301   4.221   8.292  1.1039  0.1359 -1.1398
   45CHL1  H27B 3329   0.474   4.255   8.234  1.4804  1.3365  0.9148
   45CHL1  H27C 3330   0.406   4.350   8.361  0.4324 -2.3089  1.6816
   46CHL1    C3 3331   0.358   5.200   7.022 -0.5525 -0.0993  0.0788
   46CHL1    H3 3332   0.378   5.093   7.043 -0.2026 -0.3278 -1.3585
   46CHL1    O3 3333   0.364   5.221   6.884  0.3618 -0.1684 -0.1966
   46CHL1   H3' 3334   0.344   5.136   6.844 -1.1482  0.6404 -1.1730
   46CHL1    C4 3335   0.209   5.222   7.060  0.4903 -0.3331  1.1478
   46CHL1   H4A 3336   0.175   5.320   7.023 -1.6128 -2.0493 -1.6857
   46CHL1   H4B 3337   0.134   5.154   7.014  1.3363 -0.2784 -0.3449
   46CHL1    C5 3338   0.188   5.214   7.211  0.7737  0.2188 -0.1866
   46CHL1    C6 3339   0.104   5.126   7.263 -0.2584  0.1445 -0.3988
   46CHL1    H6 3340   0.041   5.065   7.197 -2.8951  3.3361 -0.9360
   46CHL1    C7 3341   0.078   5.106   7.411  0.4597 -0.9409  0.1002
   46CHL1   H7A 3342  -0.030   5.091   7.434  0.6287 -0.1000  1.4931
   46CHL1   H7B 3343   0.143   5.023   7.445  0.9003 -1.3815 -1.7736
   46CHL1    C8 3344   0.136   5.232   7.487  0.4710  0.0649  0.4561
   46CHL1    H8 3345   0.065   5.316   7.473 -0.4649 -0.8867 -0.5286
   46CHL1   C14 3346   0.138   5.204   7.637 -0.2344 -0.4704  0.7804
   46CHL1   H14 3347   0.213   5.123   7.645  0.9628  0.4844 -0.5635
   46CHL1   C15 3348   0.010   5.142   7.709 -1.0628  0.3425 -0.1682
   46CHL1  H15A 3349  -0.079   5.201   7.679 -1.7643 -0.7543 -0.2763
   46CHL1  H15B 3350  -0.022   5.038   7.685 -2.9937  1.1226 -1.0303
   46CHL1   C16 3351   0.036   5.168   7.857 -0.2761  0.0693 -0.1961
   46CHL1  H16A 3352  -0.041   5.229   7.909  1.1286  1.5610  0.1812
   46CHL1  H16B 3353   0.049   5.075   7.917 -0.0130  0.2060 -0.0428
   46CHL1   C17 3354   0.171   5.238   7.865 -0.2484  0.0688 -0.0807
   46CHL1   H17 3355   0.242   5.153   7.867 -0.5104 -0.1409  0.6541
   46CHL1   C13 3356   0.184   5.314   7.734  0.1395  0.1581  0.1826
   46CHL1   C18 3357   0.089   5.441   7.729 -0.2607 -0.0453  0.4548
   46CHL1  H18A 3358   0.087   5.493   7.631  0.9664  1.2198  1.0856
   46CHL1  H18B 3359  -0.014   5.412   7.758 -0.0569 -0.4767  0.7484
   46CHL1  H18C 3360   0.119   5.516   7.805  0.5110 -1.0421  1.1336
   46CHL1   C12 3361   0.319   5.354   7.688 -0.0691  0.2083  0.0589
   46CHL1  H12A 3362   0.361   5.442   7.743  0.9635 -0.8730  1.0338
   46CHL1  H12B 3363   0.387   5.268   7.705 -2.6668 -1.3312  3.0778
   46CHL1   C11 3364   0.319   5.386   7.534 -0.2517  0.7813 -0.6614
   46CHL1  H11A 3365   0.269   5.483   7.514  0.9227  1.2001 -1.6377
   46CHL1  H11B 3366   0.428   5.391   7.513  0.1238 -0.4761  0.8526
   46CHL1    C9 3367   0.270   5.273   7.448 -0.5624  0.0981  0.9644
   46CHL1    H9 3368   0.330   5.181   7.464  1.2372  0.9713 -0.5738
   46CHL1   C10 3369   0.284   5.306   7.293  0.5029 -0.2739 -0.3888
   46CHL1   C19 3370   0.239   5.449   7.261  0.2388 -0.3628 -0.4516
   46CHL1  H19A 3371   0.138   5.471   7.301  0.5753 -2.0505  1.4135
   46CHL1  H19B 3372   0.319   5.518   7.294  1.0446 -1.7421  0.5402
   46CHL1  H19C 3373   0.238   5.472   7.152  3.8806 -3.0917 -1.1909
   46CHL1    C1 3374   0.433   5.282   7.249  0.6160 -0.3312 -0.0784
   46CHL1   H1A 3375   0.493   5.358   7.304  0.7352 -0.3704 -0.1540
   46CHL1   H1B 3376   0.469   5.184   7.286  0.6455 -0.1627  0.3454
   46CHL1    C2 3377   0.446   5.300   7.098 -0.3432 -0.1430  0.0939
   46CHL1   H2A 3378   0.555   5.289   7.080 -0.1126  0.8184  0.9051
   46CHL1   H2B 3379   0.417   5.406   7.080 -0.0287  0.4464  2.8781
   46CHL1   C20 3380   0.184   5.309   7.995 -0.2906  0.5222 -0.1828
   46CHL1   H20 3381   0.134   5.407   7.988 -2.3068 -0.4123  0.7851
   46CHL1   C21 3382   0.342   5.335   8.015 -0.1945  0.1949 -0.2110
   46CHL1  H21A 3383   0.361   5.348   8.124 -2.0446  0.6133  0.0715
   46CHL1  H21B 3384   0.376   5.430   7.968 -0.4076  0.3523 -0.0446
   46CHL1  H21C 3385   0.414   5.255   7.986 -2.0694 -1.4473 -0.3633
   46CHL1   C22 3386   0.125   5.240   8.122 -0.4017  0.2333  0.7323
   46CHL1  H22A 3387   0.020   5.210   8.101  0.7849 -1.6161 -3.0457
   46CHL1  H22B 3388   0.169   5.140   8.139 -2.1997 -0.6020  0.5457
   46CHL1   C23 3389   0.131   5.315   8.254  0.0371 -0.5443  0.3505
   46CHL1  H23A 3390   0.236   5.317   8.289 -0.1013 -3.2576  1.0467
   46CHL1  H23B 3391   0.110   5.424   8.249  1.5406 -0.2520  0.4067
   46CHL1   C24 3392   0.042   5.243   8.353 -0.6518  0.1901  0.5994
   46CHL1  H24A 3393  -0.060   5.229   8.310 -0.9835  0.6770  1.2298
   46CHL1  H24B 3394   0.075   5.137   8.360  0.6642  0.6598  1.5701
   46CHL1   C25 3395   0.042   5.296   8.495  0.0228 -0.1022 -0.3658
   46CHL1   H25 3396  -0.025   5.224   8.546 -0.8456  0.1978 -1.0718
   46CHL1   C26 3397   0.181   5.284   8.571  0.5163 -0.1346 -0.2045
   46CHL1  H26A 3398   0.222   5.387   8.580 -0.9096  0.5233 -1.0677
   46CHL1  H26B 3399   0.165   5.245   8.674  1.5436  0.6736  0.2738
   46CHL1  H26C 3400   0.254   5.227   8.511 -0.5089 -2.1277  0.4078
   46CHL1   C27 3401  -0.021   5.442   8.501 -0.1310  0.2099 -0.2473
   46CHL1  H27A 3402   0.055   5.516   8.467  1.0483 -1.6039 -1.6243
   46CHL1  H27B 3403  -0.111   5.454   8.437 -0.8631  0.2663  0.7900
   46CHL1  H27C 3404  -0.050   5.463   8.606  1.4031  1.0084  0.0353
   47CHL1    C3 3405   6.275   5.150   6.616  0.6491  0.5333 -0.8919
   47CHL1    H3 3406   6.265   5.258   6.641  1.2261 -0.1020  2.4022
   47CHL1    O3 3407   6.293   5.107   6.484  0.0244  0.3449 -0.1021
   47CHL1   H3' 3408   6.360   5.038   6.487  0.7996  1.1413  1.4095
   47CHL1    C4 3409   6.391   5.096   6.705  0.4773 -0.8403  0.0936
   47CHL1   H4A 3410   6.396   4.986   6.691  1.6451 -0.7604 -0.2275
   47CHL1   H4B 3411   6.485   5.133   6.658 -0.7101  2.5869  0.2989
   47CHL1    C5 3412   6.382   5.134   6.850  0.0375  0.4901  0.3131
   47CHL1    C6 3413   6.478   5.204   6.905  0.1144  0.4271  0.0164
   47CHL1    H6 3414   6.562   5.239   6.844  0.0802 -0.3543 -0.4861
   47CHL1    C7 3415   6.479   5.239   7.050  0.2823 -0.1012  1.2580
   47CHL1   H7A 3416   6.579   5.221   7.093 -0.1127 -2.8037  1.1227
   47CHL1   H7B 3417   6.458   5.346   7.068 -1.4160  0.5321 -3.6544
   47CHL1    C8 3418   6.382   5.154   7.127 -0.2413 -0.2360 -0.5800
   47CHL1    H8 3419   6.421   5.050   7.138  0.6447  0.2315  0.7579
   47CHL1   C14 3420   6.377   5.202   7.271  0.1396  0.5746 -0.5768
   47CHL1   H14 3421   6.330   5.302   7.258 -0.3030  0.8171  2.4762
   47CHL1   C15 3422   6.492   5.244   7.348 -0.3827 -0.5479  0.2835
   47CHL1  H15A 3423   6.569   5.164   7.343  0.4136  0.3093 -1.2836
   47CHL1  H15B 3424   6.535   5.336   7.304  0.8357 -1.0959  0.3138
   47CHL1   C16 3425   6.438   5.273   7.488 -0.2544  0.1902  0.0162
   47CHL1  H16A 3426   6.504   5.231   7.566  1.1176 -2.6762 -2.5937
   47CHL1  H16B 3427   6.445   5.382   7.507 -0.5382 -0.1344  2.1034
   47CHL1   C17 3428   6.289   5.222   7.495  0.9655  0.1782  0.2058
   47CHL1   H17 3429   6.223   5.311   7.487  1.7388  0.6322 -1.3831
   47CHL1   C13 3430   6.276   5.132   7.365  0.6931  0.5649 -0.3844
   47CHL1   C18 3431   6.324   4.981   7.380 -0.2979  0.7646  0.4019
   47CHL1  H18A 3432   6.245   4.916   7.425 -0.3037  0.8357  0.4966
   47CHL1  H18B 3433   6.349   4.932   7.283  0.8648  0.6894  0.7440
   47CHL1  H18C 3434   6.415   4.970   7.442 -0.3802 -1.4995  0.1786
   47CHL1   C12 3435   6.141   5.145   7.293 -0.1024 -0.6958 -0.4421
   47CHL1  H12A 3436   6.078   5.086   7.362  2.5929 -1.1812  1.7188
   47CHL1  H12B 3437   6.109   5.250   7.283 -2.5986 -1.3635  0.2879
   47CHL1   C11 3438   6.140   5.080   7.154 -0.0794 -0.3942  0.0187
   47CHL1  H11A 3439   6.166   4.973   7.167  2.3574 -0.2401 -2.9320
   47CHL1  H11B 3440   6.038   5.073   7.112  0.0586  0.5451 -0.5007
   47CHL1    C9 3441   6.245   5.144   7.063 -0.3854 -0.2981 -0.3474
   47CHL1    H9 3442   6.221   5.250   7.039  2.1172  0.5807  0.8866
   47CHL1   C10 3443   6.255   5.088   6.922  0.8875  0.2425  0.0482
   47CHL1   C19 3444   6.252   4.932   6.935 -0.2385  0.5955  0.3972
   47CHL1  H19A 3445   6.247   4.886   6.834 -0.2501  0.6364  0.3792
   47CHL1  H19B 3446   6.341   4.891   6.987 -0.7491  0.5915  1.2798
   47CHL1  H19C 3447   6.160   4.895   6.985 -0.9124  0.1187 -1.1535
   47CHL1    C1 3448   6.131   5.130   6.834 -0.0863 -0.6193  0.5203
   47CHL1   H1A 3449   6.028   5.093   6.849 -0.5616  0.2807 -0.4572
   47CHL1   H1B 3450   6.111   5.238   6.844  0.8404 -0.5751  2.1202
   47CHL1    C2 3451   6.146   5.090   6.680 -0.1673  0.1808 -0.4720
   47CHL1   H2A 3452   6.059   5.122   6.620  1.1510 -1.6883 -3.5088
   47CHL1   H2B 3453   6.137   4.981   6.664 -1.8866  0.2841 -0.2196
   47CHL1   C20 3454   6.264   5.147   7.631 -0.0398 -0.1753  0.4763
   47CHL1   H20 3455   6.333   5.061   7.649  1.1135  1.1116  2.3855
   47CHL1   C21 3456   6.120   5.089   7.629  0.5030 -1.0786  0.4179
   47CHL1  H21A 3457   6.053   5.172   7.598 -0.7716 -1.9610  0.7726
   47CHL1  H21B 3458   6.081   5.045   7.724 -2.1152 -0.2059 -0.2135
   47CHL1  H21C 3459   6.118   5.010   7.552 -0.3963 -1.5926  0.9497
   47CHL1   C22 3460   6.280   5.234   7.762 -0.6391  0.3780  0.1243
   47CHL1  H22A 3461   6.382   5.278   7.770 -0.9436  1.0975 -0.0011
   47CHL1  H22B 3462   6.198   5.308   7.754 -1.3151 -0.5822 -2.0214
   47CHL1   C23 3463   6.262   5.156   7.899  0.2289  0.0211 -0.0736
   47CHL1  H23A 3464   6.158   5.118   7.893  0.4191 -0.5323  0.1142
   47CHL1  H23B 3465   6.336   5.074   7.887 -1.5385 -1.3329 -2.1352
   47CHL1   C24 3466   6.301   5.258   8.005  0.4569  0.2170  0.1339
   47CHL1  H24A 3467   6.400   5.301   7.981 -0.1605  2.4205  1.3809
   47CHL1  H24B 3468   6.227   5.340   8.015 -1.0136 -0.8541 -1.6141
   47CHL1   C25 3469   6.332   5.201   8.143 -0.2005  0.3132 -0.1442
   47CHL1   H25 3470   6.248   5.132   8.166  0.4830 -0.2807  0.5867
   47CHL1   C26 3471   6.456   5.117   8.134  0.3440 -0.5854  0.8445
   47CHL1  H26A 3472   6.461   5.035   8.058  0.2507 -0.7175  0.9787
   47CHL1  H26B 3473   6.542   5.186   8.122 -2.4787  2.6498 -2.2620
   47CHL1  H26C 3474   6.459   5.065   8.232 -1.1366 -1.6928  0.3177
   47CHL1   C27 3475   6.333   5.305   8.262 -0.6139  0.2473 -0.0429
   47CHL1  H27A 3476   6.413   5.380   8.245  0.7341 -1.2007 -0.3108
   47CHL1  H27B 3477   6.241   5.365   8.249 -1.2080 -0.7273 -0.3995
   47CHL1  H27C 3478   6.336   5.260   8.364 -0.7744  0.2164 -0.0530
   48CHL1    C3 3479   3.019   0.344   6.410  0.2601  0.1794  0.0343
   48CHL1    H3 3480   3.059   0.444   6.436  1.8360 -0.2731 -0.6155
   48CHL1    O3 3481   3.035   0.317   6.275 -0.2277  0.1686  0.1184
   48CHL1   H3' 3482   2.968   0.257   6.242 -2.1026  1.7825  0.9129
   48CHL1    C4 3483   3.092   0.232   6.488  0.9242 -0.4359 -0.3244
   48CHL1   H4A 3484   3.062   0.130   6.455 -0.2209  0.7327 -3.0083
   48CHL1   H4B 3485   3.195   0.241   6.447  0.9069  3.6560  0.3017
   48CHL1    C5 3486   3.075   0.241   6.642  0.1212 -0.6638  0.2605
   48CHL1    C6 3487   3.188   0.251   6.710  0.5807  0.8305  0.9585
   48CHL1    H6 3488   3.287   0.243   6.663 -0.1204  1.7065 -0.6833
   48CHL1    C7 3489   3.192   0.286   6.856 -0.3911 -0.5927 -0.2298
   48CHL1   H7A 3490   3.269   0.228   6.911  0.1748 -1.1171 -1.5697
   48CHL1   H7B 3491   3.224   0.392   6.866  2.5322 -1.4007 -0.4672
   48CHL1    C8 3492   3.049   0.273   6.916  0.6833 -1.0325  0.4266
   48CHL1    H8 3493   3.027   0.165   6.925 -0.3951 -0.4954  5.4589
   48CHL1   C14 3494   3.042   0.329   7.055 -1.0075 -0.3534  0.0890
   48CHL1   H14 3495   3.058   0.439   7.056 -2.3499 -0.1159  3.2542
   48CHL1   C15 3496   3.161   0.298   7.154  0.4401 -0.1833  0.1907
   48CHL1  H15A 3497   3.179   0.189   7.151  0.9127 -0.2101  3.3209
   48CHL1  H15B 3498   3.259   0.345   7.128  0.8415 -1.1390 -0.0318
   48CHL1   C16 3499   3.106   0.332   7.291  0.5379  0.6831 -0.3812
   48CHL1  H16A 3500   3.092   0.240   7.351  1.6286  1.0209  0.3848
   48CHL1  H16B 3501   3.159   0.396   7.364 -0.6925 -1.5843  2.5936
   48CHL1   C17 3502   2.959   0.386   7.264 -0.5878  0.5283 -0.3442
   48CHL1   H17 3503   2.975   0.496   7.255 -2.2576  0.7950 -0.2903
   48CHL1   C13 3504   2.915   0.319   7.134 -0.3007 -0.4349  0.8263
   48CHL1   C18 3505   2.880   0.169   7.151 -0.0991 -0.5524 -0.3084
   48CHL1  H18A 3506   2.870   0.120   7.052  1.0637 -0.3320 -0.5394
   48CHL1  H18B 3507   2.962   0.123   7.211 -0.0795 -1.8529 -1.3098
   48CHL1  H18C 3508   2.784   0.154   7.205 -0.1989 -2.2004 -0.9076
   48CHL1   C12 3509   2.805   0.397   7.057 -0.4381  0.4614  0.8241
   48CHL1  H12A 3510   2.700   0.392   7.092 -0.8121 -0.2551 -0.3537
   48CHL1  H12B 3511   2.836   0.503   7.049  2.2539 -0.1963  2.1508
   48CHL1   C11 3512   2.799   0.349   6.909 -0.2086  0.0494 -0.2472
   48CHL1  H11A 3513   2.758   0.246   6.904 -0.7367  0.2524 -0.1591
   48CHL1  H11B 3514   2.727   0.412   6.853  0.7153  1.6197  0.2916
   48CHL1    C9 3515   2.938   0.341   6.836 -0.1286  0.5868 -1.3018
   48CHL1    H9 3516   2.968   0.448   6.834 -0.0264  0.7578  3.2617
   48CHL1   C10 3517   2.936   0.281   6.698  0.5550  0.3948 -0.0824
   48CHL1   C19 3518   2.870   0.138   6.698 -0.0135 -0.0739  0.1079
   48CHL1  H19A 3519   2.915   0.061   6.764 -0.4079 -2.0317 -1.8366
   48CHL1  H19B 3520   2.763   0.144   6.727  0.4311  0.9975  1.6290
   48CHL1  H19C 3521   2.865   0.098   6.595 -1.5966  2.0532 -0.6801
   48CHL1    C1 3522   2.847   0.374   6.602  0.0308  0.1663  0.1955
   48CHL1   H1A 3523   2.743   0.350   6.634 -0.1719  0.6328 -0.1159
   48CHL1   H1B 3524   2.861   0.481   6.629 -2.1296  0.3019  0.8943
   48CHL1    C2 3525   2.864   0.343   6.450 -0.2216  0.3081 -0.3308
   48CHL1   H2A 3526   2.816   0.420   6.385  1.3526  3.1729  1.7548
   48CHL1   H2B 3527   2.818   0.244   6.432  1.6235 -0.1790 -2.7000
   48CHL1   C20 3528   2.862   0.364   7.391 -0.7783 -0.2340  0.0083
   48CHL1   H20 3529   2.846   0.255   7.403 -2.1403 -0.0689 -0.2219
   48CHL1   C21 3530   2.734   0.432   7.360 -0.6423  0.1556  0.5035
   48CHL1  H21A 3531   2.665   0.389   7.284 -2.9274 -0.6902  2.9934
   48CHL1  H21B 3532   2.743   0.536   7.321 -2.3390  0.0580 -0.1966
   48CHL1  H21C 3533   2.682   0.431   7.458 -1.7220 -0.6250 -0.0707
   48CHL1   C22 3534   2.921   0.420   7.517  0.7791  1.2257  0.9388
   48CHL1  H22A 3535   2.855   0.386   7.600 -0.3344 -0.0016 -0.4201
   48CHL1  H22B 3536   3.022   0.382   7.545  0.3259 -1.9770 -1.4374
   48CHL1   C23 3537   2.930   0.576   7.531 -0.4011 -0.1116  0.0260
   48CHL1  H23A 3538   3.002   0.613   7.455 -2.2935  1.7852 -0.8951
   48CHL1  H23B 3539   2.829   0.617   7.508 -0.4441 -0.0978  0.2349
   48CHL1   C24 3540   2.983   0.620   7.665 -0.1804  0.0338 -0.7400
   48CHL1  H24A 3541   2.921   0.579   7.747  0.6146 -0.6183 -0.4518
   48CHL1  H24B 3542   3.082   0.569   7.670 -0.0529  0.3714  0.3361
   48CHL1   C25 3543   2.991   0.773   7.670 -0.3365  0.4681  0.3426
   48CHL1   H25 3544   3.051   0.810   7.585 -0.5550  0.6743  0.2786
   48CHL1   C26 3545   2.856   0.845   7.664 -0.5799 -0.7341  0.1235
   48CHL1  H26A 3546   2.877   0.950   7.637 -0.6731 -0.6055  0.5569
   48CHL1  H26B 3547   2.774   0.792   7.609 -2.2412 -1.0303  2.8070
   48CHL1  H26C 3548   2.817   0.848   7.768 -1.2391  0.9463 -0.1604
   48CHL1   C27 3549   3.069   0.817   7.798 -0.5341  0.8395  0.3517
   48CHL1  H27A 3550   2.998   0.797   7.881 -0.5271 -0.7603 -0.0154
   48CHL1  H27B 3551   3.167   0.766   7.812 -0.2381  2.1228  3.2586
   48CHL1  H27C 3552   3.070   0.928   7.796 -3.3114  0.8739 -1.3968
   49CHL1    C3 3553   1.436   1.806   6.643 -0.3715  0.3474  0.0610
   49CHL1    H3 3554   1.496   1.900   6.636  1.6323 -1.0191 -1.4723
   49CHL1    O3 3555   1.386   1.779   6.513 -0.1184  0.0933 -0.8019
   49CHL1   H3' 3556   1.357   1.688   6.506 -2.5384  0.8914 -1.4813
   49CHL1    C4 3557   1.539   1.701   6.692 -0.4999  0.3421  0.8275
   49CHL1   H4A 3558   1.504   1.598   6.669  1.5854 -0.2033  0.0250
   49CHL1   H4B 3559   1.627   1.711   6.625 -1.3862  1.6711 -0.1937
   49CHL1    C5 3560   1.580   1.706   6.836 -0.1277  0.2653 -0.1373
   49CHL1    C6 3561   1.708   1.723   6.874  0.5002  0.8463  0.0560
   49CHL1    H6 3562   1.783   1.718   6.794  0.2247  0.8092 -0.1992
   49CHL1    C7 3563   1.755   1.720   7.013  0.5549 -0.4228 -0.5119
   49CHL1   H7A 3564   1.825   1.634   7.027  0.2245 -0.3675  1.6417
   49CHL1   H7B 3565   1.807   1.817   7.031 -1.5774  0.8298 -1.0088
   49CHL1    C8 3566   1.633   1.693   7.122 -0.3613 -0.7691 -0.3742
   49CHL1    H8 3567   1.611   1.584   7.123  0.3077 -0.9058  0.0201
   49CHL1   C14 3568   1.669   1.736   7.257 -0.1020  0.9844  0.4721
   49CHL1   H14 3569   1.697   1.843   7.256  1.2659  0.6402 -1.1919
   49CHL1   C15 3570   1.789   1.662   7.318 -0.6306  0.3167 -0.4739
   49CHL1  H15A 3571   1.766   1.553   7.311 -1.9324  0.3952  1.8134
   49CHL1  H15B 3572   1.889   1.683   7.274  1.7920 -2.6785  3.2041
   49CHL1   C16 3573   1.786   1.703   7.467 -0.5269 -0.2697  0.5908
   49CHL1  H16A 3574   1.810   1.615   7.530 -1.4169 -0.1386  1.1265
   49CHL1  H16B 3575   1.860   1.781   7.495  0.1963 -0.5901 -0.4127
   49CHL1   C17 3576   1.648   1.770   7.493 -0.4542 -0.5171  0.1382
   49CHL1   H17 3577   1.656   1.880   7.479  2.8665 -0.6663  0.4654
   49CHL1   C13 3578   1.569   1.727   7.365  1.5420 -0.6449 -0.7299
   49CHL1   C18 3579   1.516   1.583   7.386 -0.9661 -0.9684  0.2303
   49CHL1  H18A 3580   1.485   1.527   7.296 -4.1829 -0.9627  1.2518
   49CHL1  H18B 3581   1.602   1.521   7.420  1.9402  0.2004 -4.6334
   49CHL1  H18C 3582   1.430   1.577   7.456 -1.5108 -1.9052 -0.5088
   49CHL1   C12 3583   1.450   1.816   7.323 -0.1465 -0.7851  0.9590
   49CHL1  H12A 3584   1.371   1.828   7.400  0.6977 -1.3141  1.9298
   49CHL1  H12B 3585   1.485   1.922   7.321  1.2635 -1.1559  3.7214
   49CHL1   C11 3586   1.400   1.771   7.185  0.3923 -0.1747 -0.2619
   49CHL1  H11A 3587   1.341   1.678   7.202 -0.8530  0.8727  1.1677
   49CHL1  H11B 3588   1.325   1.849   7.160  0.7180 -0.5509 -2.5197
   49CHL1    C9 3589   1.510   1.767   7.081  0.5966  0.0812  0.8997
   49CHL1    H9 3590   1.545   1.872   7.068 -0.3103  0.4345  1.2923
   49CHL1   C10 3591   1.467   1.717   6.940  0.1511  0.1381 -0.3020
   49CHL1   C19 3592   1.402   1.575   6.951 -0.1170 -0.1716 -0.4602
   49CHL1  H19A 3593   1.305   1.570   7.006 -0.2138 -1.5298 -0.7371
   49CHL1  H19B 3594   1.367   1.545   6.850  0.7724 -0.1814 -0.7688
   49CHL1  H19C 3595   1.474   1.501   6.993  2.4855  2.8979  0.7161
   49CHL1    C1 3596   1.368   1.825   6.889  0.2122 -0.5788 -0.2346
   49CHL1   H1A 3597   1.284   1.831   6.961  1.0870 -1.4507  0.8614
   49CHL1   H1B 3598   1.413   1.927   6.889 -1.2038  0.0545  1.0311
   49CHL1    C2 3599   1.317   1.809   6.745  0.1309  0.0933  0.2073
   49CHL1   H2A 3600   1.251   1.894   6.717 -0.7858 -0.8120 -0.4231
   49CHL1   H2B 3601   1.260   1.714   6.740  0.3643 -0.0610  0.4499
   49CHL1   C20 3602   1.573   1.753   7.626  0.1506 -0.0944  0.1297
   49CHL1   H20 3603   1.464   1.753   7.602 -0.6633 -0.6368  3.5538
   49CHL1   C21 3604   1.607   1.872   7.721  0.3735 -0.0472  0.1711
   49CHL1  H21A 3605   1.700   1.851   7.777  0.2593  1.9144  1.1363
   49CHL1  H21B 3606   1.526   1.877   7.796  1.4316 -0.5685  1.3682
   49CHL1  H21C 3607   1.609   1.975   7.680  1.3057 -0.4985 -0.9497
   49CHL1   C22 3608   1.603   1.624   7.696 -0.0585  0.1511  0.5708
   49CHL1  H22A 3609   1.612   1.539   7.625 -0.3325 -0.3299  1.1102
   49CHL1  H22B 3610   1.696   1.633   7.757 -0.0001  2.5132  0.1892
   49CHL1   C23 3611   1.495   1.579   7.801 -0.3855 -0.0484 -0.3434
   49CHL1  H23A 3612   1.495   1.651   7.886 -0.4119 -1.8719  1.2509
   49CHL1  H23B 3613   1.401   1.587   7.742  1.3050 -0.2084 -3.1611
   49CHL1   C24 3614   1.515   1.431   7.847  0.1355  0.1443 -0.0691
   49CHL1  H24A 3615   1.482   1.363   7.766  1.1288  0.8723 -1.1023
   49CHL1  H24B 3616   1.623   1.407   7.855 -0.2269 -0.6830  2.9328
   49CHL1   C25 3617   1.438   1.381   7.971  0.7064 -0.7668 -0.6054
   49CHL1   H25 3618   1.330   1.390   7.948  0.4800  0.9181  0.9587
   49CHL1   C26 3619   1.467   1.232   8.007 -0.0347  0.1617  0.0155
   49CHL1  H26A 3620   1.575   1.237   8.030  0.1130  0.7835 -0.8063
   49CHL1  H26B 3621   1.412   1.200   8.098 -1.2819  2.4267  0.1017
   49CHL1  H26C 3622   1.449   1.162   7.923 -0.6604  0.1308  0.1741
   49CHL1   C27 3623   1.471   1.466   8.100 -0.0194  0.0823  0.1947
   49CHL1  H27A 3624   1.577   1.450   8.132 -0.0719  1.1543  0.9348
   49CHL1  H27B 3625   1.453   1.575   8.089  1.9992  0.4702  0.5739
   49CHL1  H27C 3626   1.413   1.430   8.187 -0.5547 -2.2096 -1.0879
   50CHL1    C3 3627   2.721   3.059   6.923  0.1772 -0.4584 -0.3019
   50CHL1    H3 3628   2.672   2.968   6.964  1.0391 -0.1297  1.5022
   50CHL1    O3 3629   2.692   3.064   6.783  0.6011 -0.1513 -0.4003
   50CHL1   H3' 3630   2.746   3.137   6.751 -1.3420  1.2403 -0.5377
   50CHL1    C4 3631   2.654   3.173   6.994 -0.1744 -0.8571  0.6306
   50CHL1   H4A 3632   2.699   3.260   6.941 -1.2446 -0.4629  0.3699
   50CHL1   H4B 3633   2.548   3.162   6.965  0.5600 -1.8218 -1.7898
   50CHL1    C5 3634   2.683   3.183   7.140  0.1645  0.0266 -0.1737
   50CHL1    C6 3635   2.581   3.182   7.225 -0.2721 -0.1633  0.6243
   50CHL1    H6 3636   2.478   3.174   7.189 -0.0830 -0.9598  0.2359
   50CHL1    C7 3637   2.604   3.182   7.366  0.6364 -0.0134  0.0912
   50CHL1   H7A 3638   2.525   3.244   7.414  2.1506  1.8192  0.2717
   50CHL1   H7B 3639   2.599   3.078   7.405 -0.1930  0.0807  0.2543
   50CHL1    C8 3640   2.742   3.230   7.406  0.1015 -0.4140 -0.4292
   50CHL1    H8 3641   2.755   3.339   7.388 -4.0283  0.5827  1.9338
   50CHL1   C14 3642   2.757   3.205   7.557  0.4572 -0.0015 -0.1889
   50CHL1   H14 3643   2.761   3.095   7.571 -2.1120 -0.1060  0.0170
   50CHL1   C15 3644   2.654   3.267   7.648 -0.2202  0.0418  0.2810
   50CHL1  H15A 3645   2.620   3.367   7.615  1.1694  0.1741 -0.8006
   50CHL1  H15B 3646   2.567   3.201   7.665 -1.9014  2.0595 -0.2811
   50CHL1   C16 3647   2.720   3.286   7.781 -0.9891  0.9773 -0.7762
   50CHL1  H16A 3648   2.725   3.394   7.807 -0.2189  1.6250 -3.4195
   50CHL1  H16B 3649   2.668   3.236   7.865 -0.2342 -0.2482 -1.0302
   50CHL1   C17 3650   2.868   3.239   7.762 -0.1735 -0.2292  0.4403
   50CHL1   H17 3651   2.860   3.130   7.781 -2.2921 -0.3272 -0.8711
   50CHL1   C13 3652   2.897   3.252   7.611  0.6771  0.4734 -0.0305
   50CHL1   C18 3653   2.936   3.403   7.581  0.5523  0.1715  0.3089
   50CHL1  H18A 3654   2.856   3.466   7.626 -1.8916 -1.3472 -1.7934
   50CHL1  H18B 3655   3.036   3.419   7.626  1.1620 -3.0851  0.2311
   50CHL1  H18C 3656   2.946   3.411   7.471 -1.4083 -0.2324  0.0879
   50CHL1   C12 3657   3.003   3.161   7.541 -0.0287 -0.0926 -0.0600
   50CHL1  H12A 3658   3.106   3.170   7.581 -0.7346 -1.2020  2.0445
   50CHL1  H12B 3659   2.969   3.059   7.569 -0.5265 -0.7176 -2.7574
   50CHL1   C11 3660   2.996   3.168   7.387  0.5125 -0.4400  0.0432
   50CHL1  H11A 3661   3.060   3.252   7.352  2.7807 -2.7727 -1.5613
   50CHL1  H11B 3662   3.055   3.084   7.345 -0.0266 -1.2099  0.8265
   50CHL1    C9 3663   2.851   3.154   7.333 -0.0367 -0.2896  1.2081
   50CHL1    H9 3664   2.825   3.046   7.345  0.7970 -1.0417 -2.9208
   50CHL1   C10 3665   2.828   3.181   7.177  0.1131 -0.3650  0.4419
   50CHL1   C19 3666   2.877   3.322   7.129  0.4678 -0.9863 -0.0847
   50CHL1  H19A 3667   2.866   3.356   7.024 -0.6243 -0.8301  0.0685
   50CHL1  H19B 3668   2.822   3.401   7.185 -1.0046 -2.0379 -0.0271
   50CHL1  H19C 3669   2.985   3.320   7.153  0.6998  1.1931 -0.8361
   50CHL1    C1 3670   2.902   3.071   7.099  0.0208  0.5648 -0.0624
   50CHL1   H1A 3671   3.007   3.097   7.122  0.5538 -1.7022  0.2058
   50CHL1   H1B 3672   2.865   2.978   7.147 -0.5000 -0.1932 -1.8934
   50CHL1    C2 3673   2.873   3.064   6.949 -0.1138  0.1300 -0.0246
   50CHL1   H2A 3674   2.917   2.976   6.898 -0.4246  1.4013 -2.5655
   50CHL1   H2B 3675   2.912   3.155   6.899  1.7222  0.1661  1.4182
   50CHL1   C20 3676   2.960   3.301   7.870 -0.1163  0.0393  0.2321
   50CHL1   H20 3677   2.961   3.408   7.841  0.0974  0.0737  0.3622
   50CHL1   C21 3678   3.106   3.252   7.858  0.4555 -0.0935  0.4501
   50CHL1  H21A 3679   3.168   3.306   7.933  1.1027  0.3340 -0.3804
   50CHL1  H21B 3680   3.155   3.256   7.758  2.0954  0.8123  1.2770
   50CHL1  H21C 3681   3.122   3.147   7.890  0.5489 -0.2627 -0.1314
   50CHL1   C22 3682   2.915   3.302   8.009 -0.1245 -0.5863 -0.2726
   50CHL1  H22A 3683   2.995   3.346   8.073 -2.3245  0.2539  2.0023
   50CHL1  H22B 3684   2.827   3.368   8.014 -1.1317 -1.8278 -1.2669
   50CHL1   C23 3685   2.900   3.162   8.071  0.1100  0.2353  0.2731
   50CHL1  H23A 3686   2.818   3.099   8.032 -0.5680  1.1976  0.1362
   50CHL1  H23B 3687   2.999   3.111   8.068 -0.5015 -0.8869 -1.0831
   50CHL1   C24 3688   2.858   3.174   8.228  0.9483  0.2835 -0.1998
   50CHL1  H24A 3689   2.758   3.222   8.225  0.2690 -1.1418 -0.8958
   50CHL1  H24B 3690   2.832   3.071   8.262 -0.1033  1.3203  2.2267
   50CHL1   C25 3691   2.958   3.242   8.327  0.1581  0.5471  0.2569
   50CHL1   H25 3692   2.966   3.344   8.283 -2.4913  0.3876 -0.6411
   50CHL1   C26 3693   2.896   3.252   8.468 -0.2773 -0.4272 -0.9732
   50CHL1  H26A 3694   2.963   3.299   8.543 -0.1428 -1.0955 -0.6729
   50CHL1  H26B 3695   2.793   3.293   8.462  0.2500  1.1389  0.3117
   50CHL1  H26C 3696   2.887   3.148   8.505 -2.2920  0.1388  0.1683
   50CHL1   C27 3697   3.092   3.165   8.342 -0.1660 -0.1073  0.5009
   50CHL1  H27A 3698   3.148   3.179   8.247 -0.0617  0.6903  0.6725
   50CHL1  H27B 3699   3.146   3.215   8.426 -0.8838 -0.3478  1.1025
   50CHL1  H27C 3700   3.080   3.061   8.378  0.6863 -0.8734 -1.3589
   51CHL1    C3 3701   2.176   2.193   6.894 -0.4691 -0.2097 -0.0613
   51CHL1    H3 3702   2.087   2.257   6.909  0.9173  1.8390 -0.3459
   51CHL1    O3 3703   2.213   2.216   6.762 -0.2939  0.9089  0.7871
   51CHL1   H3' 3704   2.288   2.157   6.751 -1.1368 -0.1165  0.4186
   51CHL1    C4 3705   2.292   2.243   6.978 -1.0547 -0.4575  0.7337
   51CHL1   H4A 3706   2.391   2.193   6.970 -2.5787 -3.6853  1.2030
   51CHL1   H4B 3707   2.311   2.348   6.947  1.2820 -0.3704  2.3083
   51CHL1    C5 3708   2.249   2.237   7.123  0.7374 -0.4024  0.0002
   51CHL1    C6 3709   2.235   2.352   7.198  0.5803  0.2532  0.1829
   51CHL1    H6 3710   2.277   2.439   7.146  1.3916 -0.5557 -0.5376
   51CHL1    C7 3711   2.218   2.356   7.350  0.2851 -0.5751  0.3447
   51CHL1   H7A 3712   2.293   2.414   7.407 -0.7310  2.1518 -1.0212
   51CHL1   H7B 3713   2.113   2.377   7.380 -0.2348  0.5152 -2.1302
   51CHL1    C8 3714   2.230   2.212   7.406 -0.0609  0.1712 -0.2656
   51CHL1    H8 3715   2.337   2.181   7.405  0.2339  1.1015  0.8158
   51CHL1   C14 3716   2.178   2.216   7.552  0.3240 -0.1840  0.3884
   51CHL1   H14 3717   2.069   2.233   7.545  0.5860  0.6097 -2.1124
   51CHL1   C15 3718   2.226   2.321   7.656  0.1464 -0.3922 -0.5212
   51CHL1  H15A 3719   2.337   2.320   7.654  0.2226  0.4700  1.8660
   51CHL1  H15B 3720   2.194   2.426   7.640  2.3759  0.4472  0.4537
   51CHL1   C16 3721   2.179   2.268   7.781 -0.0684 -0.2415 -0.6597
   51CHL1  H16A 3722   2.257   2.270   7.860 -0.8349 -0.4194  0.1132
   51CHL1  H16B 3723   2.085   2.316   7.818 -0.6145 -1.8278  0.0791
   51CHL1   C17 3724   2.137   2.116   7.765 -0.2677 -0.3220  0.0392
   51CHL1   H17 3725   2.027   2.104   7.756 -0.4031  0.0855  1.1521
   51CHL1   C13 3726   2.192   2.077   7.622  0.7977 -0.4648 -0.0133
   51CHL1   C18 3727   2.333   2.022   7.628 -0.1864  0.3059  0.3862
   51CHL1  H18A 3728   2.383   2.024   7.529  0.8734  0.7115  0.9304
   51CHL1  H18B 3729   2.400   2.079   7.696 -1.2905  2.9438 -0.6723
   51CHL1  H18C 3730   2.330   1.917   7.662  1.4400 -0.0692 -0.6202
   51CHL1   C12 3731   2.095   1.983   7.544 -0.0731 -0.1356 -0.5459
   51CHL1  H12A 3732   2.088   1.883   7.592  2.5928 -0.6945 -1.2464
   51CHL1  H12B 3733   1.991   2.021   7.546 -1.2440 -3.2258  0.0063
   51CHL1   C11 3734   2.132   1.981   7.397  1.0025  0.3535  0.5264
   51CHL1  H11A 3735   2.221   1.916   7.393 -1.5992 -3.2910 -1.1895
   51CHL1  H11B 3736   2.063   1.920   7.335  0.8553  0.8019  0.2465
   51CHL1    C9 3737   2.147   2.119   7.324 -0.2287  0.6441 -0.2376
   51CHL1    H9 3738   2.042   2.155   7.324  0.6579  3.3671 -0.7728
   51CHL1   C10 3739   2.212   2.095   7.181 -0.6803 -0.0545 -0.1142
   51CHL1   C19 3740   2.345   2.008   7.187  0.2079  0.2351 -0.3518
   51CHL1  H19A 3741   2.409   2.010   7.096  3.0069  0.4015  1.5861
   51CHL1  H19B 3742   2.421   2.054   7.253  0.9734 -0.7178 -0.5541
   51CHL1  H19C 3743   2.334   1.904   7.224 -1.1041  0.4718 -0.0700
   51CHL1    C1 3744   2.116   2.029   7.081  0.1046 -0.0219 -0.2856
   51CHL1   H1A 3745   2.117   1.920   7.102  2.1372  0.0109 -0.1062
   51CHL1   H1B 3746   2.011   2.063   7.091  0.8295  1.6516  1.8637
   51CHL1    C2 3747   2.151   2.050   6.928  0.3928 -0.2653 -0.1848
   51CHL1   H2A 3748   2.069   2.020   6.859  0.9005  0.0629 -0.9426
   51CHL1   H2B 3749   2.232   1.978   6.904 -0.0650  0.3208 -3.7878
   51CHL1   C20 3750   2.165   2.019   7.882 -0.3263  0.0326  0.2347
   51CHL1   H20 3751   2.275   2.007   7.891 -0.4605 -1.2188  0.3873
   51CHL1   C21 3752   2.106   1.884   7.847  0.5339  0.3324 -0.5346
   51CHL1  H21A 3753   2.139   1.807   7.920 -0.5476  1.3498  1.0644
   51CHL1  H21B 3754   2.155   1.844   7.756  0.0555  0.1081 -0.6976
   51CHL1  H21C 3755   1.995   1.875   7.842  0.4644 -0.5409  2.1481
   51CHL1   C22 3756   2.112   2.068   8.021 -0.0850  0.4725 -0.2280
   51CHL1  H22A 3757   2.120   2.179   8.021  1.1527  0.3994 -1.5646
   51CHL1  H22B 3758   2.006   2.037   8.032 -0.1374  1.5261  2.7452
   51CHL1   C23 3759   2.174   2.002   8.147 -0.5520 -0.8953 -0.1756
   51CHL1  H23A 3760   2.109   2.020   8.235  0.2094  1.1164  0.0047
   51CHL1  H23B 3761   2.188   1.892   8.136  2.5935 -0.7561  1.7392
   51CHL1   C24 3762   2.299   2.086   8.186  0.0825  0.5284  0.0835
   51CHL1  H24A 3763   2.368   2.076   8.099  1.1145 -0.4179  0.9890
   51CHL1  H24B 3764   2.278   2.192   8.211 -2.2934 -0.1404  1.0757
   51CHL1   C25 3765   2.375   2.018   8.308 -0.2375 -0.6894 -0.2059
   51CHL1   H25 3766   2.302   2.001   8.389 -0.7320 -1.9167 -0.8959
   51CHL1   C26 3767   2.432   1.881   8.272 -0.0020  0.6057  0.2154
   51CHL1  H26A 3768   2.494   1.836   8.353 -0.7624 -0.6461  0.1114
   51CHL1  H26B 3769   2.355   1.805   8.245  0.9529 -1.2529  2.5253
   51CHL1  H26C 3770   2.495   1.901   8.183 -1.1792 -1.3218 -1.0907
   51CHL1   C27 3771   2.482   2.110   8.367  0.8463  0.6106  0.1491
   51CHL1  H27A 3772   2.437   2.201   8.411 -0.0677  0.6049 -0.7550
   51CHL1  H27B 3773   2.543   2.052   8.439  1.1084 -0.4073 -0.8801
   51CHL1  H27C 3774   2.547   2.147   8.285  0.6396 -0.1697 -0.3679
   52CHL1    C3 3775   4.664   3.426   6.912 -0.5098 -0.2065 -0.3961
   52CHL1    H3 3776   4.773   3.443   6.905 -0.3441  0.0970  2.2273
   52CHL1    O3 3777   4.605   3.419   6.782 -0.6206  0.1488  0.1341
   52CHL1   H3' 3778   4.510   3.406   6.785 -0.9098  2.0568 -0.4761
   52CHL1    C4 3779   4.630   3.284   6.972  0.0247 -0.7386 -0.2877
   52CHL1   H4A 3780   4.529   3.250   6.942  0.0591  0.0684 -1.3639
   52CHL1   H4B 3781   4.684   3.207   6.913  1.1257  0.1417 -0.4551
   52CHL1    C5 3782   4.660   3.270   7.118 -0.3783 -0.0725 -0.5214
   52CHL1    C6 3783   4.745   3.172   7.161 -0.3936  0.9000 -0.3668
   52CHL1    H6 3784   4.788   3.101   7.090 -1.0052  0.6247 -0.4680
   52CHL1    C7 3785   4.792   3.167   7.302 -0.0979  0.4272 -1.0698
   52CHL1   H7A 3786   4.781   3.065   7.343 -0.3508  1.1543  0.7461
   52CHL1   H7B 3787   4.900   3.192   7.311 -0.1137 -0.0389  0.5974
   52CHL1    C8 3788   4.719   3.260   7.403 -1.0294 -0.3113  0.3392
   52CHL1    H8 3789   4.623   3.213   7.434 -0.4310 -1.5262  0.3886
   52CHL1   C14 3790   4.804   3.278   7.527 -0.9389  1.0472  0.0610
   52CHL1   H14 3791   4.887   3.346   7.498 -0.7203  1.6700  2.0436
   52CHL1   C15 3792   4.864   3.156   7.596  0.0330 -0.0568  0.1400
   52CHL1  H15A 3793   4.795   3.069   7.596  1.1900 -0.9812  0.4213
   52CHL1  H15B 3794   4.960   3.129   7.547 -0.9461  1.0472 -2.5414
   52CHL1   C16 3795   4.901   3.204   7.738  0.7715  0.1455  0.4404
   52CHL1  H16A 3796   4.836   3.144   7.805  1.5996  0.2452  1.3565
   52CHL1  H16B 3797   5.008   3.188   7.766  0.8836 -0.6483 -0.4372
   52CHL1   C17 3798   4.849   3.350   7.749  0.1672  0.6247 -0.2856
   52CHL1   H17 3799   4.930   3.421   7.722 -0.8674  1.9230 -0.0251
   52CHL1   C13 3800   4.738   3.361   7.640  0.1665 -0.0020 -0.1240
   52CHL1   C18 3801   4.612   3.299   7.700  0.4010  0.3097  0.2482
   52CHL1  H18A 3802   4.627   3.199   7.746 -1.2130  0.7900  1.8924
   52CHL1  H18B 3803   4.571   3.365   7.779 -0.5821  1.5613 -1.2789
   52CHL1  H18C 3804   4.543   3.277   7.615  1.4575 -3.3424  0.2555
   52CHL1   C12 3805   4.709   3.498   7.589 -0.2212 -0.5868  0.1820
   52CHL1  H12A 3806   4.683   3.577   7.663  0.8702 -0.3115  0.2855
   52CHL1  H12B 3807   4.809   3.541   7.565  0.5054 -2.5705 -0.3821
   52CHL1   C11 3808   4.629   3.480   7.452 -0.0549 -0.2815 -0.4889
   52CHL1  H11A 3809   4.526   3.454   7.485  1.2609 -3.2116  1.4695
   52CHL1  H11B 3810   4.631   3.585   7.413  3.7641  0.2764  0.9757
   52CHL1    C9 3811   4.694   3.388   7.342  0.7153 -0.7428  0.6379
   52CHL1    H9 3812   4.795   3.420   7.309 -0.6940  1.6702 -1.5253
   52CHL1   C10 3813   4.612   3.386   7.205 -0.3022  1.3797  0.3123
   52CHL1   C19 3814   4.466   3.352   7.231  0.6450  0.2919  0.1226
   52CHL1  H19A 3815   4.416   3.418   7.305  0.8690  0.9958 -0.3481
   52CHL1  H19B 3816   4.398   3.359   7.144 -0.9323 -0.7102  1.2485
   52CHL1  H19C 3817   4.442   3.248   7.261 -1.8734  0.4109 -1.3028
   52CHL1    C1 3818   4.628   3.528   7.137 -0.0880  0.4253  0.1842
   52CHL1   H1A 3819   4.562   3.598   7.192 -0.0455 -0.2400  1.0913
   52CHL1   H1B 3820   4.736   3.556   7.141  0.6620 -1.8883 -2.0377
   52CHL1    C2 3821   4.596   3.537   6.986 -0.5527 -0.5445  0.5138
   52CHL1   H2A 3822   4.623   3.636   6.945  0.2969 -1.2908 -0.7839
   52CHL1   H2B 3823   4.485   3.532   6.973 -0.5166  0.5819 -0.3293
   52CHL1   C20 3824   4.810   3.376   7.891 -0.6614  0.3781 -0.8234
   52CHL1   H20 3825   4.723   3.321   7.932 -0.1426 -0.8006 -1.2768
   52CHL1   C21 3826   4.784   3.527   7.912  0.5818  0.0791  0.2222
   52CHL1  H21A 3827   4.776   3.544   8.022  2.5663 -1.0589  0.5649
   52CHL1  H21B 3828   4.685   3.559   7.873 -0.0626 -0.2236  1.5853
   52CHL1  H21C 3829   4.867   3.591   7.874 -0.3803  0.0197 -2.0649
   52CHL1   C22 3830   4.939   3.342   7.981 -0.6985 -0.3983  0.2874
   52CHL1  H22A 3831   4.959   3.232   7.986  2.2045  0.1526  1.2641
   52CHL1  H22B 3832   5.022   3.401   7.938 -0.8314 -1.8100 -2.0013
   52CHL1   C23 3833   4.923   3.378   8.135  0.2250  0.3163 -0.0652
   52CHL1  H23A 3834   5.021   3.339   8.170 -0.9427 -1.5940  1.1871
   52CHL1  H23B 3835   4.912   3.485   8.163 -0.4438 -0.0707  1.2153
   52CHL1   C24 3836   4.813   3.301   8.207  0.2617 -0.8023  0.0164
   52CHL1  H24A 3837   4.716   3.333   8.165  0.2367 -0.3949  0.3707
   52CHL1  H24B 3838   4.822   3.194   8.178 -1.0116 -1.0062  0.3597
   52CHL1   C25 3839   4.800   3.338   8.354  0.2295  0.4352  0.7873
   52CHL1   H25 3840   4.770   3.445   8.347 -0.4865  0.1120 -1.6624
   52CHL1   C26 3841   4.689   3.259   8.411  0.4026  0.0869  0.3695
   52CHL1  H26A 3842   4.688   3.281   8.520  0.1082  1.0402  0.1865
   52CHL1  H26B 3843   4.595   3.304   8.373 -0.0193  0.9401  2.3269
   52CHL1  H26C 3844   4.689   3.151   8.387 -0.6120  0.2850 -0.5186
   52CHL1   C27 3845   4.934   3.327   8.430  0.1211  0.3668 -0.1707
   52CHL1  H27A 3846   4.926   3.347   8.539 -0.6654 -2.0149  0.2385
   52CHL1  H27B 3847   4.987   3.230   8.417 -2.1289 -0.8698 -0.3332
   52CHL1  H27C 3848   5.013   3.394   8.390  1.1222 -0.6304  0.1109
   53CHL1    C3 3849   0.465   6.567   7.149  0.3076 -0.0651 -0.2653
   53CHL1    H3 3850   0.556   6.620   7.184  0.8819 -0.4276 -1.1725
   53CHL1    O3 3851   0.458   6.554   7.010  0.6535 -0.0193  0.0315
   53CHL1   H3' 3852   0.542   6.515   6.984  0.6864 -0.1477  0.3241
   53CHL1    C4 3853   0.469   6.420   7.216  0.4243 -0.2893  0.6063
   53CHL1   H4A 3854   0.380   6.363   7.181 -0.0242 -0.5766  2.1843
   53CHL1   H4B 3855   0.562   6.371   7.181  0.4475 -0.0894  0.3803
   53CHL1    C5 3856   0.457   6.429   7.363 -0.4604 -0.4311 -0.0992
   53CHL1    C6 3857   0.549   6.372   7.438 -0.6101  0.5048 -0.7349
   53CHL1    H6 3858   0.643   6.331   7.397 -0.4646 -0.5146  0.5874
   53CHL1    C7 3859   0.540   6.366   7.585 -0.2488 -0.8589 -0.8608
   53CHL1   H7A 3860   0.553   6.261   7.618 -1.3510 -0.5754  0.5258
   53CHL1   H7B 3861   0.622   6.430   7.624 -0.4043 -0.7805 -0.6575
   53CHL1    C8 3862   0.401   6.412   7.644 -0.2938 -0.2266  0.5695
   53CHL1    H8 3863   0.339   6.320   7.633  0.3810 -0.7807  1.3451
   53CHL1   C14 3864   0.413   6.430   7.793  0.5809 -0.9060 -0.8293
   53CHL1   H14 3865   0.486   6.510   7.818 -1.2238 -0.1540  2.1249
   53CHL1   C15 3866   0.458   6.309   7.877 -0.7457 -0.1767 -0.1271
   53CHL1  H15A 3867   0.408   6.216   7.846  0.6448  0.0312 -3.1256
   53CHL1  H15B 3868   0.568   6.294   7.865 -0.8709 -0.0994 -1.4446
   53CHL1   C16 3869   0.408   6.345   8.022  0.0777  0.4661 -1.3607
   53CHL1  H16A 3870   0.342   6.266   8.065 -0.3064  1.5349  0.0272
   53CHL1  H16B 3871   0.496   6.345   8.089 -0.7976 -3.1766 -0.0747
   53CHL1   C17 3872   0.335   6.479   8.008 -0.6635 -0.1440  0.4804
   53CHL1   H17 3873   0.423   6.544   8.026 -1.3951  0.7042  1.0338
   53CHL1   C13 3874   0.288   6.484   7.861 -0.0484 -0.7404 -0.7618
   53CHL1   C18 3875   0.163   6.389   7.850  0.0193  0.2501  0.7526
   53CHL1  H18A 3876   0.173   6.292   7.905 -0.1655 -0.9379 -1.2649
   53CHL1  H18B 3877   0.073   6.441   7.889  0.4495  0.9135  0.8621
   53CHL1  H18C 3878   0.156   6.356   7.745  0.9117  1.6028  0.2610
   53CHL1   C12 3879   0.253   6.618   7.795 -0.5774 -0.3871  1.0684
   53CHL1  H12A 3880   0.160   6.665   7.834 -0.4054  0.5112  0.3898
   53CHL1  H12B 3881   0.339   6.684   7.819 -0.8726  0.9542 -1.5050
   53CHL1   C11 3882   0.234   6.605   7.640 -0.4858  0.4479 -0.5639
   53CHL1  H11A 3883   0.142   6.544   7.626  0.1931 -0.2599 -1.9868
   53CHL1  H11B 3884   0.207   6.702   7.593 -0.5481 -0.6146 -2.7575
   53CHL1    C9 3885   0.355   6.537   7.565 -0.1905  0.5285  0.1552
   53CHL1    H9 3886   0.444   6.601   7.584  0.2642  0.8198 -2.7637
   53CHL1   C10 3887   0.339   6.508   7.417  0.3161  0.3024 -0.0469
   53CHL1   C19 3888   0.224   6.410   7.398  0.6286  0.5978 -0.1847
   53CHL1  H19A 3889   0.201   6.410   7.289  2.2119  1.4174 -0.5303
   53CHL1  H19B 3890   0.249   6.307   7.433  1.1907  0.1676 -1.7995
   53CHL1  H19C 3891   0.128   6.437   7.446  0.7551  3.0011 -1.2182
   53CHL1    C1 3892   0.320   6.643   7.349  0.6679 -0.7876  0.2475
   53CHL1   H1A 3893   0.222   6.687   7.378  1.1784  0.1115  0.6274
   53CHL1   H1B 3894   0.397   6.711   7.392  0.7507  0.8509 -2.3373
   53CHL1    C2 3895   0.334   6.635   7.194 -0.2180  0.1348  0.0731
   53CHL1   H2A 3896   0.319   6.734   7.147 -0.7658 -1.0749 -2.4008
   53CHL1   H2B 3897   0.252   6.568   7.160  2.0952 -2.2731 -0.9836
   53CHL1   C20 3898   0.230   6.516   8.109  0.0914  0.2943  0.3827
   53CHL1   H20 3899   0.125   6.495   8.080 -0.3844  3.7429 -0.6078
   53CHL1   C21 3900   0.246   6.671   8.126  0.1153  0.3825 -0.7718
   53CHL1  H21A 3901   0.202   6.693   8.225 -2.8397 -1.0155 -1.7114
   53CHL1  H21B 3902   0.193   6.733   8.051 -0.0443 -0.5980 -1.4908
   53CHL1  H21C 3903   0.352   6.704   8.129  0.2872 -0.1408 -1.0582
   53CHL1   C22 3904   0.248   6.443   8.249  0.4438 -0.1871  0.5146
   53CHL1  H22A 3905   0.287   6.339   8.249  0.6257 -0.1259  1.0842
   53CHL1  H22B 3906   0.334   6.502   8.288 -0.2742 -0.3821  2.4570
   53CHL1   C23 3907   0.135   6.460   8.351  0.0499  0.4558  0.0778
   53CHL1  H23A 3908   0.101   6.566   8.353  1.7298  1.0090  0.3734
   53CHL1  H23B 3909   0.045   6.405   8.315 -0.5032  0.9434  0.7011
   53CHL1   C24 3910   0.160   6.413   8.492  0.0327  0.2859  0.0651
   53CHL1  H24A 3911   0.215   6.317   8.500 -0.8833 -0.2409  0.1445
   53CHL1  H24B 3912   0.213   6.491   8.552  1.6425 -0.7613  0.0561
   53CHL1   C25 3913   0.029   6.376   8.567 -0.0737  0.0708  0.3497
   53CHL1   H25 3914  -0.006   6.286   8.513  0.4807  1.0230 -1.6521
   53CHL1   C26 3915   0.084   6.331   8.706  0.8437  0.3620 -0.2062
   53CHL1  H26A 3916   0.016   6.284   8.780  0.1105 -0.5372 -1.4264
   53CHL1  H26B 3917   0.165   6.258   8.685  0.7313  0.5241 -1.2519
   53CHL1  H26C 3918   0.137   6.417   8.753  1.3367  0.6111 -1.1905
   53CHL1   C27 3919  -0.064   6.498   8.595 -0.1762  0.1881 -0.0387
   53CHL1  H27A 3920  -0.155   6.466   8.650  0.4261 -0.6117  0.4912
   53CHL1  H27B 3921  -0.012   6.576   8.653  0.7334 -0.2913 -0.2089
   53CHL1  H27C 3922  -0.095   6.539   8.496  0.9458  1.5757  0.1599
   54CHL1    C3 3923   0.566   1.455   6.977 -0.4678 -0.3616  0.0167
   54CHL1    H3 3924   0.468   1.500   7.002 -0.3646 -0.2395  0.2032
   54CHL1    O3 3925   0.576   1.465   6.831 -0.6512  0.1209 -0.7207
   54CHL1   H3' 3926   0.657   1.423   6.802  0.0060 -0.7519  2.1404
   54CHL1    C4 3927   0.679   1.539   7.040  0.4101  0.2127  0.0099
   54CHL1   H4A 3928   0.775   1.493   7.006  0.6539  1.8935 -1.6292
   54CHL1   H4B 3929   0.672   1.645   7.008  1.4614  0.3218  0.1255
   54CHL1    C5 3930   0.660   1.531   7.191  0.2937  0.5913  0.5606
   54CHL1    C6 3931   0.640   1.648   7.262  0.5038  0.1382 -0.5290
   54CHL1    H6 3932   0.646   1.745   7.211 -0.3397  0.5185  0.0966
   54CHL1    C7 3933   0.626   1.648   7.413  0.4803 -0.2500  0.7169
   54CHL1   H7A 3934   0.670   1.735   7.466 -1.1011 -0.0418  1.6973
   54CHL1   H7B 3935   0.519   1.654   7.440  0.9679  2.0053  2.2791
   54CHL1    C8 3936   0.672   1.519   7.483 -0.1337  0.0439 -0.2213
   54CHL1    H8 3937   0.783   1.529   7.482 -0.0412 -0.9190 -0.5556
   54CHL1   C14 3938   0.615   1.509   7.620 -0.1142  0.3861 -0.2687
   54CHL1   H14 3939   0.506   1.489   7.612 -0.2725  1.3218 -0.4444
   54CHL1   C15 3940   0.626   1.628   7.715 -1.1037 -0.0704  0.9351
   54CHL1  H15A 3941   0.729   1.664   7.694 -1.6039  0.0916 -1.3504
   54CHL1  H15B 3942   0.565   1.716   7.688 -0.1419  0.7624  1.4334
   54CHL1   C16 3943   0.605   1.566   7.853 -0.0060 -0.5186  0.4371
   54CHL1  H16A 3944   0.697   1.593   7.909 -0.0147 -0.6896  0.5362
   54CHL1  H16B 3945   0.516   1.609   7.905 -0.2649  1.2587 -1.4106
   54CHL1   C17 3946   0.600   1.411   7.840  0.3864 -0.5389  0.3026
   54CHL1   H17 3947   0.492   1.385   7.827  0.0979  0.7612  0.0110
   54CHL1   C13 3948   0.668   1.387   7.701 -0.2371  0.0900  1.5078
   54CHL1   C18 3949   0.824   1.392   7.718  0.2891 -0.3049 -0.1237
   54CHL1  H18A 3950   0.861   1.470   7.788  3.1583 -3.1382  1.6549
   54CHL1  H18B 3951   0.861   1.296   7.759  2.6140  0.5924 -0.0235
   54CHL1  H18C 3952   0.883   1.414   7.625 -0.7685  1.7949 -0.3362
   54CHL1   C12 3953   0.621   1.260   7.627  0.2000  0.7766  0.6313
   54CHL1  H12A 3954   0.673   1.170   7.667 -2.6733  0.2659  3.5547
   54CHL1  H12B 3955   0.510   1.253   7.625  0.1848  1.1404  0.2471
   54CHL1   C11 3956   0.676   1.270   7.484 -0.0311 -0.5472  0.9274
   54CHL1  H11A 3957   0.787   1.264   7.479 -0.1457 -1.9825 -0.0310
   54CHL1  H11B 3958   0.639   1.178   7.435 -0.9750 -0.0173  0.6387
   54CHL1    C9 3959   0.633   1.396   7.398  0.0638  0.5068 -0.6653
   54CHL1    H9 3960   0.522   1.400   7.404  0.1002 -1.4387  1.7303
   54CHL1   C10 3961   0.669   1.392   7.245 -0.0162 -1.4284 -0.9794
   54CHL1   C19 3962   0.814   1.355   7.238 -0.0842  0.3691  1.3175
   54CHL1  H19A 3963   0.829   1.248   7.266 -0.2731 -0.3254 -1.1415
   54CHL1  H19B 3964   0.860   1.363   7.137 -1.3130 -0.8914  0.6368
   54CHL1  H19C 3965   0.866   1.419   7.312  1.6987  0.1404  0.2889
   54CHL1    C1 3966   0.576   1.298   7.174 -0.1260 -1.1039 -0.3431
   54CHL1   H1A 3967   0.589   1.192   7.206 -2.5592 -0.8429  1.7037
   54CHL1   H1B 3968   0.473   1.327   7.205  0.4776  1.5974 -0.7422
   54CHL1    C2 3969   0.572   1.306   7.023 -0.6446  0.2128  0.3574
   54CHL1   H2A 3970   0.490   1.246   6.977 -0.0801  0.8142 -1.4676
   54CHL1   H2B 3971   0.669   1.272   6.981 -0.4302 -1.1741  1.8961
   54CHL1   C20 3972   0.656   1.342   7.961 -0.3469  0.3092 -0.1337
   54CHL1   H20 3973   0.763   1.364   7.979  0.0335  0.2935 -2.1647
   54CHL1   C21 3974   0.650   1.188   7.936  0.2252 -0.2127 -0.5063
   54CHL1  H21A 3975   0.742   1.165   7.876 -0.6303 -1.8298 -1.2529
   54CHL1  H21B 3976   0.557   1.162   7.881 -0.9573  0.3677  1.2102
   54CHL1  H21C 3977   0.659   1.135   8.033 -0.4835  0.0111 -0.3159
   54CHL1   C22 3978   0.572   1.372   8.090  0.0439 -0.0300  0.1980
   54CHL1  H22A 3979   0.544   1.479   8.091  1.0532  0.2469 -0.4799
   54CHL1  H22B 3980   0.478   1.313   8.091 -0.4907  0.8275  0.4786
   54CHL1   C23 3981   0.654   1.346   8.224  0.1742 -0.3283 -0.8076
   54CHL1  H23A 3982   0.674   1.237   8.230 -1.7732 -0.7299 -1.2270
   54CHL1  H23B 3983   0.751   1.394   8.202  0.8523 -0.8520  0.9542
   54CHL1   C24 3984   0.590   1.410   8.350  0.6735 -0.0391 -0.4502
   54CHL1  H24A 3985   0.584   1.520   8.334  1.0563 -0.1901 -1.6859
   54CHL1  H24B 3986   0.490   1.368   8.371  0.9921 -0.9367 -0.7191
   54CHL1   C25 3987   0.671   1.395   8.475 -0.6597  0.0441 -0.0424
   54CHL1   H25 3988   0.700   1.289   8.488  2.2837  0.7755 -0.4350
   54CHL1   C26 3989   0.799   1.481   8.470 -0.0127  0.2992  0.0807
   54CHL1  H26A 3990   0.764   1.586   8.462 -0.0861  0.3522  1.0558
   54CHL1  H26B 3991   0.858   1.463   8.562  0.2666  0.4475 -0.0698
   54CHL1  H26C 3992   0.850   1.441   8.380  0.3769  0.2855  0.3077
   54CHL1   C27 3993   0.588   1.432   8.596  0.2964  0.0162  0.7290
   54CHL1  H27A 3994   0.568   1.539   8.577  2.9609  0.3105 -0.6447
   54CHL1  H27B 3995   0.493   1.373   8.603  0.6858 -0.9982 -2.0919
   54CHL1  H27C 3996   0.634   1.422   8.697 -0.4383  1.2713  1.1986
   55CHL1    C3 3997   0.757   3.273   7.043  0.0950  0.8021 -0.2096
   55CHL1    H3 3998   0.835   3.197   7.020  0.6121  1.0732  0.6351
   55CHL1    O3 3999   0.737   3.354   6.927  0.1964  0.3841  0.0439
   55CHL1   H3' 4000   0.719   3.289   6.858 -0.3454  0.4060  0.1640
   55CHL1    C4 4001   0.627   3.207   7.082 -0.3932 -0.4824  0.0859
   55CHL1   H4A 4002   0.556   3.292   7.083  0.6135  0.3619  0.6666
   55CHL1   H4B 4003   0.593   3.141   6.999 -0.0404  0.5070 -0.8650
   55CHL1    C5 4004   0.624   3.137   7.216  0.1371 -0.1552 -0.0876
   55CHL1    C6 4005   0.591   3.008   7.220  0.5503 -0.2542  0.2117
   55CHL1    H6 4006   0.549   2.956   7.132  1.0871 -1.6139  0.7445
   55CHL1    C7 4007   0.566   2.933   7.349  0.2923 -0.0781  0.3179
   55CHL1   H7A 4008   0.477   2.867   7.355  0.3964 -0.6655 -3.3818
   55CHL1   H7B 4009   0.651   2.862   7.357 -0.3971 -1.0891 -0.9747
   55CHL1    C8 4010   0.579   3.020   7.484  0.7384 -0.3070 -0.2096
   55CHL1    H8 4011   0.481   3.072   7.479  0.1175 -1.3055  1.2405
   55CHL1   C14 4012   0.604   2.934   7.600  1.0625  0.4987  0.5268
   55CHL1   H14 4013   0.704   2.888   7.584  0.1903 -0.9227 -0.9145
   55CHL1   C15 4014   0.524   2.810   7.613  0.1043  0.0665 -0.1368
   55CHL1  H15A 4015   0.420   2.817   7.575  0.1253 -1.1070 -0.4055
   55CHL1  H15B 4016   0.571   2.725   7.560  0.4336  0.4242 -0.4186
   55CHL1   C16 4017   0.541   2.779   7.768 -0.1672  0.3128 -0.7063
   55CHL1  H16A 4018   0.437   2.778   7.806  0.4926 -0.7314  1.1783
   55CHL1  H16B 4019   0.595   2.682   7.773  0.4281  0.5589 -2.0574
   55CHL1   C17 4020   0.640   2.885   7.828  0.6771 -0.5499 -0.7949
   55CHL1   H17 4021   0.741   2.842   7.810  0.8357  0.3225 -2.0403
   55CHL1   C13 4022   0.625   3.008   7.730 -0.3683  0.3955 -0.3304
   55CHL1   C18 4023   0.498   3.088   7.753 -0.4218  0.3833  0.5263
   55CHL1  H18A 4024   0.403   3.033   7.770 -1.1662  1.0933 -1.1499
   55CHL1  H18B 4025   0.507   3.153   7.843  1.5348 -1.8607  2.0022
   55CHL1  H18C 4026   0.482   3.163   7.672 -2.1904  0.7499  1.1865
   55CHL1   C12 4027   0.745   3.101   7.718 -0.2705 -0.1695  0.2405
   55CHL1  H12A 4028   0.759   3.175   7.800 -0.8261  2.1871 -1.7230
   55CHL1  H12B 4029   0.837   3.040   7.706 -1.9093 -2.6951  0.1173
   55CHL1   C11 4030   0.741   3.193   7.589  0.9761  0.0236 -0.5746
   55CHL1  H11A 4031   0.674   3.280   7.606  0.6870 -0.2689 -0.2173
   55CHL1  H11B 4032   0.843   3.238   7.579  0.1834  1.7916 -0.9668
   55CHL1    C9 4033   0.699   3.119   7.458  0.3075 -0.1879 -0.1956
   55CHL1    H9 4034   0.791   3.062   7.433  2.0304  0.5168  3.9928
   55CHL1   C10 4035   0.681   3.211   7.331  0.1698 -0.7382  0.3605
   55CHL1   C19 4036   0.573   3.324   7.363 -0.4136 -0.1469 -1.0020
   55CHL1  H19A 4037   0.533   3.380   7.276 -1.0299 -0.4579 -0.9225
   55CHL1  H19B 4038   0.482   3.280   7.410 -0.6546  1.1086 -0.2669
   55CHL1  H19C 4039   0.620   3.393   7.436  0.7275 -0.1410 -1.7326
   55CHL1    C1 4040   0.818   3.268   7.290  0.2870  0.0205 -0.1668
   55CHL1   H1A 4041   0.860   3.332   7.371  0.9424 -0.4272 -0.1439
   55CHL1   H1B 4042   0.888   3.186   7.263 -0.1942 -0.0574 -1.2120
   55CHL1    C2 4043   0.807   3.352   7.165  0.3344  0.1220 -0.0616
   55CHL1   H2A 4044   0.907   3.387   7.133  0.9599 -2.6767 -1.3279
   55CHL1   H2B 4045   0.736   3.435   7.183 -0.8550  0.0396 -4.0154
   55CHL1   C20 4046   0.614   2.919   7.977 -0.4820 -0.0419 -0.3920
   55CHL1   H20 4047   0.509   2.954   7.986 -0.7578  0.0909 -3.4821
   55CHL1   C21 4048   0.705   3.031   8.043 -0.3858 -0.4092 -0.0325
   55CHL1  H21A 4049   0.810   3.014   8.012 -0.8004  0.7199 -2.1431
   55CHL1  H21B 4050   0.708   3.032   8.154  2.5848 -1.4623 -0.0603
   55CHL1  H21C 4051   0.672   3.127   7.999  1.9615  0.0185 -0.9063
   55CHL1   C22 4052   0.626   2.790   8.066 -0.7884 -0.3775 -0.2577
   55CHL1  H22A 4053   0.580   2.817   8.164  1.2481  0.2206  0.5634
   55CHL1  H22B 4054   0.562   2.704   8.036 -1.5512 -0.7337  2.2288
   55CHL1   C23 4055   0.769   2.740   8.092 -0.0668 -0.5760  0.0292
   55CHL1  H23A 4056   0.800   2.700   7.993 -0.3322 -0.6283 -0.0326
   55CHL1  H23B 4057   0.841   2.819   8.124 -0.1034 -1.1889  1.6709
   55CHL1   C24 4058   0.778   2.614   8.186 -0.3441  0.0395 -0.3367
   55CHL1  H24A 4059   0.745   2.628   8.292 -0.7319 -3.7299  0.1126
   55CHL1  H24B 4060   0.701   2.543   8.149  0.8802 -1.5586  0.1504
   55CHL1   C25 4061   0.911   2.531   8.184  0.2963  0.0100 -0.0843
   55CHL1   H25 4062   0.903   2.496   8.079 -1.3902  3.2718 -1.1215
   55CHL1   C26 4063   1.042   2.605   8.206  0.5640  0.7989 -0.0700
   55CHL1  H26A 4064   1.045   2.688   8.132 -2.8566 -0.8886 -2.2124
   55CHL1  H26B 4065   1.060   2.647   8.307  1.4266 -1.2300  0.6415
   55CHL1  H26C 4066   1.127   2.543   8.169  1.2553  0.9113  1.2964
   55CHL1   C27 4067   0.891   2.413   8.270 -0.2668 -0.2223 -0.9404
   55CHL1  H27A 4068   0.869   2.458   8.369  0.0180 -2.7566  0.3107
   55CHL1  H27B 4069   0.806   2.348   8.240 -0.6112 -0.2744  0.1419
   55CHL1  H27C 4070   0.983   2.352   8.285 -0.4258 -0.1728  0.3034
   56CHL1    C3 4071   6.633   0.808   6.881  0.8276  0.7813 -0.4042
   56CHL1    H3 4072   6.594   0.910   6.861  1.5776  1.6110  2.0552
   56CHL1    O3 4073   6.707   0.769   6.767 -0.4092  0.0556 -0.0421
   56CHL1   H3' 4074   6.738   0.679   6.780 -0.2063  0.0533 -0.5216
   56CHL1    C4 4075   6.719   0.825   7.003 -0.2054  0.2798  0.5831
   56CHL1   H4A 4076   6.791   0.740   6.995 -0.7515 -0.1422  0.1100
   56CHL1   H4B 4077   6.784   0.912   6.980  0.7672 -1.2540 -2.9250
   56CHL1    C5 4078   6.646   0.831   7.143  0.1080  0.1165 -0.2120
   56CHL1    C6 4079   6.673   0.925   7.231 -0.1904  0.1781  0.6533
   56CHL1    H6 4080   6.747   0.999   7.197 -0.4680  1.1262  2.0716
   56CHL1    C7 4081   6.620   0.932   7.371 -0.3335 -0.1733  0.7593
   56CHL1   H7A 4082   6.695   0.941   7.452 -0.7263 -0.9728  1.2167
   56CHL1   H7B 4083   6.557   1.022   7.385  1.2735  1.2754 -1.0699
   56CHL1    C8 4084   6.532   0.800   7.405 -0.3278 -0.6174  0.6434
   56CHL1    H8 4085   6.604   0.723   7.440  1.4508  1.4817  1.7732
   56CHL1   C14 4086   6.439   0.829   7.522  0.5128 -0.4871  0.7763
   56CHL1   H14 4087   6.369   0.910   7.492  1.6661 -0.0845 -0.8500
   56CHL1   C15 4088   6.502   0.889   7.644  0.0808  0.1663 -0.0211
   56CHL1  H15A 4089   6.581   0.815   7.670 -2.0266 -2.0931  0.1940
   56CHL1  H15B 4090   6.540   0.989   7.618  1.8563 -0.9844 -1.9850
   56CHL1   C16 4091   6.381   0.891   7.738 -0.7789 -0.3479 -0.3592
   56CHL1  H16A 4092   6.420   0.854   7.836 -5.3307 -4.1433  0.2268
   56CHL1  H16B 4093   6.339   0.992   7.757 -3.1166 -1.5011  0.9193
   56CHL1   C17 4094   6.269   0.794   7.682  0.1779 -0.7269 -0.7236
   56CHL1   H17 4095   6.186   0.852   7.634 -0.7495 -0.8640  0.6837
   56CHL1   C13 4096   6.343   0.718   7.562  0.3556  0.2798  0.5485
   56CHL1   C18 4097   6.423   0.592   7.605 -0.3241  0.2940  0.3173
   56CHL1  H18A 4098   6.511   0.562   7.544 -0.9589  0.4160 -0.6734
   56CHL1  H18B 4099   6.460   0.612   7.708  1.5258 -0.8484 -0.1088
   56CHL1  H18C 4100   6.364   0.498   7.614 -0.4264  0.2702 -0.5642
   56CHL1   C12 4101   6.251   0.684   7.444  0.8236  0.0545 -1.1366
   56CHL1  H12A 4102   6.194   0.591   7.465  0.7032  0.5804  0.9884
   56CHL1  H12B 4103   6.180   0.766   7.421  0.2924 -0.0852 -0.0138
   56CHL1   C11 4104   6.345   0.647   7.324 -0.5065  0.0302 -0.1119
   56CHL1  H11A 4105   6.404   0.557   7.349  0.3239  1.2776  2.5735
   56CHL1  H11B 4106   6.289   0.621   7.232  1.6756  1.8717 -2.0497
   56CHL1    C9 4107   6.449   0.755   7.285 -0.6307  0.2211 -0.6308
   56CHL1    H9 4108   6.387   0.841   7.252 -0.7114  0.9257  1.3103
   56CHL1   C10 4109   6.535   0.722   7.160 -0.3600  0.4750 -0.5243
   56CHL1   C19 4110   6.577   0.582   7.172  0.9599 -0.1205  0.5044
   56CHL1  H19A 4111   6.624   0.567   7.271  1.8124 -1.0389 -0.0293
   56CHL1  H19B 4112   6.492   0.512   7.159  1.2316 -0.4579  0.5319
   56CHL1  H19C 4113   6.659   0.566   7.098 -0.5890 -0.5653 -1.1619
   56CHL1    C1 4114   6.447   0.737   7.031  0.4763 -0.1869  0.0802
   56CHL1   H1A 4115   6.354   0.675   7.031 -0.9796  1.9497  0.4424
   56CHL1   H1B 4116   6.401   0.837   7.015  2.5104  0.7419 -0.0122
   56CHL1    C2 4117   6.525   0.700   6.902 -0.4225 -0.4192 -0.3982
   56CHL1   H2A 4118   6.464   0.715   6.810  0.4113  0.3651 -0.8256
   56CHL1   H2B 4119   6.568   0.598   6.909 -0.3997 -0.5213 -1.8063
   56CHL1   C20 4120   6.193   0.708   7.788 -0.4566 -0.7156  0.4111
   56CHL1   H20 4121   6.268   0.645   7.842 -0.5187 -1.4461 -0.3446
   56CHL1   C21 4122   6.094   0.610   7.722 -1.0751 -0.5181 -0.2738
   56CHL1  H21A 4123   6.165   0.540   7.672 -0.4710  1.4023 -2.1411
   56CHL1  H21B 4124   6.040   0.668   7.644 -0.1956  0.4477 -0.1713
   56CHL1  H21C 4125   6.030   0.558   7.797 -0.7757 -1.3242 -0.5640
   56CHL1   C22 4126   6.117   0.794   7.894  0.5102 -0.3077  0.3981
   56CHL1  H22A 4127   6.191   0.870   7.927  0.2016  0.0319  0.3060
   56CHL1  H22B 4128   6.037   0.847   7.839 -0.0560 -0.1818  1.3304
   56CHL1   C23 4129   6.072   0.715   8.015  0.4727  0.5100 -0.4402
   56CHL1  H23A 4130   5.983   0.651   7.996 -0.1019  1.3624 -0.6252
   56CHL1  H23B 4131   6.158   0.655   8.051  1.3631  1.1945 -1.3746
   56CHL1   C24 4132   6.013   0.805   8.123  0.3479 -0.3046  0.0321
   56CHL1  H24A 4133   6.086   0.871   8.174  2.7949 -1.6310 -1.7044
   56CHL1  H24B 4134   5.953   0.887   8.078  0.0953 -0.6241 -0.2191
   56CHL1   C25 4135   5.926   0.733   8.224  0.1271 -0.3488  0.1455
   56CHL1   H25 4136   5.852   0.664   8.180  0.0861 -0.8869  1.0497
   56CHL1   C26 4137   6.012   0.665   8.329  0.1145 -0.1397 -0.2821
   56CHL1  H26A 4138   6.084   0.737   8.372  2.3208 -0.8520 -2.6726
   56CHL1  H26B 4139   6.065   0.578   8.284  1.6891  1.0469 -0.7480
   56CHL1  H26C 4140   5.944   0.617   8.403 -0.0180 -1.9048 -1.4920
   56CHL1   C27 4141   5.839   0.840   8.296  0.3252 -0.1672  0.0966
   56CHL1  H27A 4142   5.788   0.792   8.382  0.6250 -0.1829  0.2662
   56CHL1  H27B 4143   5.916   0.913   8.329 -1.5539  1.4114  1.0931
   56CHL1  H27C 4144   5.758   0.874   8.228  1.9807  1.9476 -0.8709
   57SAPC     N 4145   0.410   3.280  10.686 -0.5757 -0.5070  0.4613
   57SAPC   C12 4146   0.385   3.402  10.607 -0.4061  0.3779 -0.1365
   57SAPC  H12A 4147   0.353   3.388  10.504  0.6119 -0.6902 -0.3146
   57SAPC  H12B 4148   0.482   3.446  10.592  0.2067 -0.9091 -0.0420
   57SAPC   C13 4149   0.465   3.176  10.597 -0.6568  0.2442 -0.4141
   57SAPC  H13A 4150   0.562   3.201  10.556 -1.9717  3.5930 -1.6888
   57SAPC  H13B 4151   0.477   3.087  10.657  0.4492  0.0280 -0.9347
   57SAPC  H13C 4152   0.389   3.163  10.523  0.4057 -3.4650 -0.9398
   57SAPC   C14 4153   0.504   3.302  10.806 -0.0213 -0.7558 -0.2751
   57SAPC  H14A 4154   0.588   3.366  10.782  0.0084 -1.2376 -1.4622
   57SAPC  H14B 4155   0.445   3.338  10.889  0.9794 -0.1620  0.1951
   57SAPC  H14C 4156   0.532   3.202  10.835 -0.1320 -0.7040  0.0094
   57SAPC   C15 4157   0.281   3.225  10.743  0.1805 -0.0960  0.0725
   57SAPC  H15A 4158   0.205   3.214  10.667 -0.7324 -0.0953  0.9801
   57SAPC  H15B 4159   0.298   3.127  10.785  0.7814 -0.4167 -0.9080
   57SAPC  H15C 4160   0.236   3.284  10.822 -0.3843  1.2299 -1.2265
   57SAPC   C11 4161   0.288   3.504  10.668 -0.0683 -0.3019 -0.5541
   57SAPC  H11A 4162   0.299   3.594  10.603  2.0671  0.6417  1.0797
   57SAPC  H11B 4163   0.319   3.523  10.773 -0.2290 -1.0349 -0.3678
   57SAPC     P 4164   0.058   3.481  10.532  0.0684 -0.2770  0.4620
   57SAPC   O13 4165   0.058   3.353  10.452  0.2989 -0.0314 -0.3895
   57SAPC   O14 4166  -0.077   3.528  10.558  0.3217  0.0158  0.2279
   57SAPC   O12 4167   0.147   3.468  10.661 -0.2264 -0.4271 -0.0049
   57SAPC   O11 4168   0.135   3.586  10.441 -0.2758  0.4714  0.3342
   57SAPC    C1 4169   0.086   3.721  10.424 -0.5642  0.4090  0.1591
   57SAPC    HA 4170   0.077   3.765  10.526 -1.5918 -0.2179  0.3581
   57SAPC    HB 4171   0.158   3.788  10.374 -1.0597  0.2829 -0.7309
   57SAPC    C2 4172  -0.032   3.735  10.321 -0.1563  0.5064  0.0826
   57SAPC    HS 4173  -0.117   3.690  10.378  0.4124 -0.7448 -0.0405
   57SAPC   O21 4174   0.013   3.669  10.195  0.3215  0.3149 -0.4339
   57SAPC   C21 4175  -0.080   3.586  10.147  0.5233 -0.2309  0.3088
   57SAPC   O22 4176  -0.193   3.566  10.187 -0.5450  0.3809 -0.0140
   57SAPC   C22 4177  -0.002   3.498  10.048 -0.1183  0.0390 -0.1334
   57SAPC   H2R 4178   0.074   3.563   9.999  0.6739  1.3901  2.7240
   57SAPC   H2S 4179   0.057   3.423  10.105 -2.0977 -0.9168  0.7139
   57SAPC    C3 4180  -0.071   3.880  10.282  0.0605 -0.5099 -0.2751
   57SAPC    HX 4181   0.008   3.942  10.235  0.0444  0.9701  1.5969
   57SAPC    HY 4182  -0.080   3.920  10.385  0.3090 -0.6817 -0.1892
   57SAPC   O31 4183  -0.196   3.889  10.201 -0.1081  0.7034  0.4920
   57SAPC   C31 4184  -0.257   4.010  10.192  0.1798 -0.0084 -0.7208
   57SAPC   O32 4185  -0.211   4.113  10.240 -0.2782  0.2242  0.5880
   57SAPC   C32 4186  -0.376   4.005  10.104  0.2675 -0.4363 -0.3778
   57SAPC   H2X 4187  -0.449   4.080  10.141 -0.8701 -1.2540 -0.9523
   57SAPC   H2Y 4188  -0.425   3.906  10.117  1.3573 -0.8478  0.7524
   57SAPC   C23 4189  -0.101   3.429   9.949 -0.0227 -0.5523  0.1578
   57SAPC   H3R 4190  -0.130   3.511   9.880 -1.0033 -0.8530  0.2103
   57SAPC   H3S 4191  -0.193   3.384   9.991 -0.6812 -0.3116 -1.0164
   57SAPC   C24 4192  -0.024   3.331   9.860 -0.2376  0.2957  0.3851
   57SAPC   H4R 4193   0.074   3.379   9.840 -0.8788  1.4262 -0.0810
   57SAPC   H4S 4194  -0.083   3.317   9.767 -0.4228  1.2579  0.3557
   57SAPC   C25 4195  -0.011   3.199   9.927 -0.0967  0.6466 -0.0943
   57SAPC   H5R 4196  -0.001   3.205  10.037 -0.4172  0.3977 -0.0511
   57SAPC   C26 4197  -0.018   3.077   9.870  0.7576  0.0316 -0.7521
   57SAPC   H6R 4198  -0.002   2.990   9.935  0.5612 -0.0572 -0.8183
   57SAPC   C27 4199  -0.023   3.049   9.723  0.0469  0.0259  0.3277
   57SAPC   H7R 4200   0.080   3.069   9.686 -0.4156  0.9800 -0.4475
   57SAPC   H7S 4201  -0.087   3.122   9.670 -1.2029 -0.1383  1.5731
   57SAPC   C28 4202  -0.059   2.909   9.691  0.5152  0.0491 -0.3491
   57SAPC   H8R 4203  -0.071   2.831   9.769 -0.2417 -0.4286 -0.9399
   57SAPC   C29 4204  -0.091   2.880   9.566 -0.5500  0.4450 -0.0492
   57SAPC   H9R 4205  -0.120   2.775   9.548 -1.3552  1.0176 -2.3456
   57SAPC  C210 4206  -0.103   2.961   9.440  0.0012 -0.0083 -0.0603
   57SAPC  H10R 4207  -0.090   3.071   9.446 -0.5020  0.2425 -2.8363
   57SAPC  H10S 4208  -0.207   2.945   9.404  0.7248  0.0071 -2.2395
   57SAPC  C211 4209   0.004   2.908   9.337 -0.7177 -0.7297  0.2569
   57SAPC  H11R 4210   0.101   2.876   9.377  0.1630 -0.4303 -1.6353
   57SAPC  C212 4211  -0.004   2.898   9.202 -0.3588 -0.0538  0.1006
   57SAPC  H12R 4212   0.087   2.852   9.160 -1.0148 -0.0510 -1.3738
   57SAPC  C213 4213  -0.109   2.932   9.095  0.3517  1.0398 -0.6713
   57SAPC  H13R 4214  -0.169   3.012   9.143  1.1851  2.2349 -1.5778
   57SAPC  H13S 4215  -0.186   2.853   9.080 -0.1967  1.2616  0.8639
   57SAPC  C214 4216  -0.064   2.981   8.958 -0.3287  0.1558  0.1822
   57SAPC  H14R 4217  -0.020   3.082   8.958 -0.3317  0.1673  1.6606
   57SAPC  C215 4218  -0.042   2.903   8.849  0.0703 -0.1420  0.2917
   57SAPC  H15R 4219   0.004   2.950   8.761 -0.4138  1.5922  0.9395
   57SAPC  C216 4220  -0.064   2.749   8.841  0.1965 -0.8357  0.0283
   57SAPC  H16R 4221  -0.160   2.729   8.788 -0.1178  2.0298 -0.5724
   57SAPC  H16S 4222  -0.071   2.705   8.943  0.5856  0.6739  0.7266
   57SAPC  C217 4223   0.048   2.697   8.749  0.0100  0.0660  0.0244
   57SAPC  H17R 4224   0.140   2.714   8.809  0.0226 -0.8601  0.2763
   57SAPC  H17S 4225   0.060   2.760   8.658  2.2268  1.8900  1.5108
   57SAPC  C218 4226   0.014   2.562   8.690  0.1788 -0.3418  0.2422
   57SAPC  H18R 4227  -0.096   2.549   8.679 -0.2074  2.5057  0.2060
   57SAPC  H18S 4228   0.054   2.473   8.743  3.7977  0.8158 -0.3973
   57SAPC  C219 4229   0.065   2.542   8.544 -0.4673 -1.5541  0.0334
   57SAPC  H19R 4230   0.174   2.564   8.532 -0.5308 -2.3174 -2.1666
   57SAPC  H19S 4231   0.020   2.607   8.466 -0.0161 -1.2796 -0.0049
   57SAPC  C220 4232   0.060   2.399   8.504 -0.5832  0.7892  0.0262
   57SAPC  H20R 4233  -0.041   2.382   8.460 -1.1921  1.5492  1.1188
   57SAPC  H20S 4234   0.072   2.330   8.590  0.2594  0.0611 -0.6610
   57SAPC  H20T 4235   0.143   2.373   8.434 -1.2802 -0.6768 -0.2722
   57SAPC   C33 4236  -0.348   4.012   9.948  0.4433  0.2165 -0.8491
   57SAPC   H3X 4237  -0.443   3.979   9.902  0.0564  0.5042 -0.2589
   57SAPC   H3Y 4238  -0.277   3.935   9.913  1.8630  1.1861 -0.1933
   57SAPC   C34 4239  -0.311   4.155   9.913  0.2093 -0.6694 -0.5394
   57SAPC   H4X 4240  -0.219   4.182   9.969 -1.6901 -1.1745  2.9757
   57SAPC   H4Y 4241  -0.392   4.217   9.959  0.0185 -2.3539  1.4285
   57SAPC   C35 4242  -0.298   4.192   9.765  0.1493  0.6822  0.1685
   57SAPC   H5X 4243  -0.223   4.133   9.708 -0.4006 -0.6829  0.8153
   57SAPC   H5Y 4244  -0.255   4.293   9.751  0.3730  0.4875 -0.5949
   57SAPC   C36 4245  -0.427   4.186   9.684  0.7688 -0.7331  0.6571
   57SAPC   H6X 4246  -0.500   4.267   9.707  0.3289 -0.3826 -1.8417
   57SAPC   H6Y 4247  -0.481   4.091   9.703 -1.4528  0.1508 -0.9219
   57SAPC   C37 4248  -0.404   4.208   9.533  0.2969  0.4874 -0.1263
   57SAPC   H7X 4249  -0.484   4.154   9.477 -2.0642  2.2198  1.4726
   57SAPC   H7Y 4250  -0.307   4.158   9.510  0.4169  0.9508 -0.6249
   57SAPC   C38 4251  -0.387   4.352   9.488  0.0009  0.3299 -0.6428
   57SAPC   H8X 4252  -0.305   4.382   9.557  0.4284  1.1400 -1.5001
   57SAPC   H8Y 4253  -0.484   4.400   9.512  0.8406  1.7119  0.0707
   57SAPC   C39 4254  -0.347   4.365   9.348  0.3064  0.3748 -0.5875
   57SAPC   H9X 4255  -0.392   4.290   9.280 -0.2980 -0.3683  0.6188
   57SAPC   H9Y 4256  -0.239   4.342   9.335 -0.1082 -0.4559 -2.6445
   57SAPC  C310 4257  -0.361   4.510   9.308  0.0833 -0.3585 -0.1879
   57SAPC  H10X 4258  -0.306   4.566   9.388 -0.1161 -3.1736  1.9946
   57SAPC  H10Y 4259  -0.470   4.528   9.320  0.4788  1.5668  0.7257
   57SAPC  C311 4260  -0.310   4.531   9.166  0.5198 -0.0372  0.4993
   57SAPC  H11X 4261  -0.362   4.457   9.101 -1.3953  1.3784  0.3662
   57SAPC  H11Y 4262  -0.199   4.524   9.158  0.4856 -0.5140  0.4664
   57SAPC  C312 4263  -0.369   4.666   9.112  0.1546  0.3493  0.0438
   57SAPC  H12X 4264  -0.323   4.734   9.187 -0.7867  0.6014  0.4007
   57SAPC  H12Y 4265  -0.480   4.669   9.119  0.1037  0.9850 -0.9529
   57SAPC  C313 4266  -0.327   4.709   8.968  0.0956 -0.9033  0.2807
   57SAPC  H13X 4267  -0.344   4.637   8.885 -0.3667  1.1629 -1.4932
   57SAPC  H13Y 4268  -0.216   4.709   8.972  0.2068 -3.2941 -1.6325
   57SAPC  C314 4269  -0.394   4.835   8.915  0.0658  0.2630 -0.4409
   57SAPC  H14X 4270  -0.422   4.906   8.995 -1.2708  0.2356 -0.8718
   57SAPC  H14Y 4271  -0.479   4.808   8.849  1.4133 -2.1392 -1.2797
   57SAPC  C315 4272  -0.299   4.914   8.829 -0.3614 -0.1424  0.6950
   57SAPC  H15X 4273  -0.275   4.861   8.734  0.3241 -0.2271  0.9152
   57SAPC  H15Y 4274  -0.197   4.918   8.873  0.2834 -0.1829 -0.7803
   57SAPC  C316 4275  -0.357   5.043   8.777 -0.5131  0.3570 -0.3108
   57SAPC  H16X 4276  -0.370   5.106   8.867  0.3414 -1.6277  1.2311
   57SAPC  H16Y 4277  -0.455   5.037   8.725 -0.5894  0.7844 -0.2163
   57SAPC  C317 4278  -0.265   5.125   8.687 -0.0865  0.1254 -0.0254
   57SAPC  H17X 4279  -0.273   5.064   8.595  0.4223 -0.2981  0.2148
   57SAPC  H17Y 4280  -0.160   5.132   8.720 -0.0362  0.4070 -0.2413
   57SAPC  C318 4281  -0.313   5.270   8.669 -0.8148 -0.3796 -0.4881
   57SAPC  H18X 4282  -0.406   5.283   8.611 -0.0490 -2.0602 -2.1756
   57SAPC  H18Y 4283  -0.229   5.321   8.616  0.6364 -1.7445  0.4213
   57SAPC  H18Z 4284  -0.331   5.325   8.763 -0.3943 -0.9776 -0.0517
   58SAPC     N 4285   2.609   2.457  11.131 -0.2961 -0.4257 -0.5318
   58SAPC   C12 4286   2.695   2.342  11.072 -0.0512 -0.0864 -0.6487
   58SAPC  H12A 4287   2.631   2.257  11.052 -0.5646  0.7111 -2.5074
   58SAPC  H12B 4288   2.753   2.312  11.158 -1.7782 -1.2287  0.1403
   58SAPC   C13 4289   2.557   2.404  11.258 -0.0122  0.6297  0.6213
   58SAPC  H13A 4290   2.637   2.371  11.323 -0.3971  0.4980  1.0234
   58SAPC  H13B 4291   2.501   2.479  11.312 -0.0725  0.8492  0.2504
   58SAPC  H13C 4292   2.491   2.322  11.233  0.3764  0.6072 -0.3626
   58SAPC   C14 4293   2.693   2.575  11.176  0.4554  0.6480  0.8425
   58SAPC  H14A 4294   2.749   2.540  11.261 -0.6363  1.3947  1.8820
   58SAPC  H14B 4295   2.758   2.622  11.104 -0.5510  3.6022  1.7580
   58SAPC  H14C 4296   2.628   2.657  11.204 -0.3956  0.9008 -1.6829
   58SAPC   C15 4297   2.500   2.498  11.038  0.0471  0.5171  0.0604
   58SAPC  H15A 4298   2.435   2.414  11.018  0.5965 -0.3206  1.7097
   58SAPC  H15B 4299   2.444   2.584  11.072  2.5902  1.7545  1.2762
   58SAPC  H15C 4300   2.543   2.527  10.943 -1.5362  0.0208 -0.8418
   58SAPC   C11 4301   2.790   2.369  10.955  0.0580 -0.2957  0.0774
   58SAPC  H11A 4302   2.859   2.284  10.935  1.7125  0.5872  1.9641
   58SAPC  H11B 4303   2.857   2.452  10.984 -1.3011  0.6533  0.5564
   58SAPC     P 4304   2.644   2.281  10.762 -0.0020 -0.0359 -0.1535
   58SAPC   O13 4305   2.602   2.169  10.850  0.0230  0.0630  0.5426
   58SAPC   O14 4306   2.527   2.334  10.682  0.1126  0.1640  0.1397
   58SAPC   O12 4307   2.704   2.402  10.841 -0.2648 -0.2116 -0.3472
   58SAPC   O11 4308   2.762   2.242  10.661  0.2369  0.6505 -0.1759
   58SAPC    C1 4309   2.757   2.106  10.604 -0.3611  0.6909 -0.2358
   58SAPC    HA 4310   2.856   2.084  10.558  0.4233 -0.4839  1.9105
   58SAPC    HB 4311   2.745   2.029  10.683  0.2418  0.1132 -0.7025
   58SAPC    C2 4312   2.647   2.073  10.495 -0.3156  0.2936  0.2840
   58SAPC    HS 4313   2.697   2.028  10.406 -0.6802  1.5625 -0.5863
   58SAPC   O21 4314   2.573   2.191  10.446 -0.1558  0.3942  0.3332
   58SAPC   C21 4315   2.634   2.248  10.344  0.3152 -0.5508 -0.4522
   58SAPC   O22 4316   2.738   2.204  10.291 -0.1390  0.6100  0.8490
   58SAPC   C22 4317   2.558   2.373  10.302 -0.1562  0.3451  0.3029
   58SAPC   H2R 4318   2.500   2.401  10.392  1.8479 -2.2049  2.4532
   58SAPC   H2S 4319   2.632   2.450  10.272 -0.7959  0.0167 -2.2699
   58SAPC    C3 4320   2.537   1.978  10.545  0.9985  0.1669 -0.5151
   58SAPC    HX 4321   2.522   1.998  10.653 -1.0736  0.3532 -0.8175
   58SAPC    HY 4322   2.585   1.878  10.544 -0.6090 -0.6259  0.0469
   58SAPC   O31 4323   2.418   1.985  10.470  0.1796  0.2801 -0.0475
   58SAPC   C31 4324   2.424   1.899  10.362  0.3211 -0.2580  0.5180
   58SAPC   O32 4325   2.519   1.831  10.325 -0.1239  0.4275  0.2313
   58SAPC   C32 4326   2.278   1.904  10.296  0.1211  0.0807  0.6014
   58SAPC   H2X 4327   2.232   2.004  10.316 -0.9037 -0.5913  1.6461
   58SAPC   H2Y 4328   2.232   1.818  10.350  0.9568 -2.3456 -2.4183
   58SAPC   C23 4329   2.458   2.353  10.188 -0.5366 -0.7306  0.1262
   58SAPC   H3R 4330   2.392   2.442  10.198 -1.3095 -1.3716  0.8214
   58SAPC   H3S 4331   2.392   2.264  10.205  0.9505 -1.9566 -0.4406
   58SAPC   C24 4332   2.523   2.350  10.051  0.5845 -0.0491  0.6396
   58SAPC   H4R 4333   2.603   2.274  10.038 -0.3248 -0.8557 -0.2924
   58SAPC   H4S 4334   2.564   2.453  10.039 -2.8052  1.2861  0.0866
   58SAPC   C25 4335   2.425   2.319   9.944 -0.0793 -0.4940  0.3159
   58SAPC   H5R 4336   2.332   2.269   9.976  0.7977 -2.4362 -0.1210
   58SAPC   C26 4337   2.443   2.350   9.815  0.1294 -0.2393 -0.2996
   58SAPC   H6R 4338   2.374   2.314   9.737 -1.7848  0.5399  1.0142
   58SAPC   C27 4339   2.557   2.427   9.751  0.2096 -0.4823  0.2017
   58SAPC   H7R 4340   2.630   2.467   9.824 -0.4216 -0.2105  0.6896
   58SAPC   H7S 4341   2.505   2.513   9.703 -1.9879 -2.3813 -0.9143
   58SAPC   C28 4342   2.634   2.348   9.650  0.0034 -0.9420  0.6978
   58SAPC   H8R 4343   2.724   2.293   9.680  0.3231 -0.3003  0.9311
   58SAPC   C29 4344   2.594   2.341   9.519  0.3088 -0.1427  0.6687
   58SAPC   H9R 4345   2.662   2.275   9.462  1.2302 -1.2680  3.0024
   58SAPC  C210 4346   2.470   2.390   9.442 -0.2191 -0.1498 -0.5396
   58SAPC  H10R 4347   2.414   2.469   9.496  2.3748  1.8881 -0.7060
   58SAPC  H10S 4348   2.412   2.296   9.442 -1.4741  0.6098  1.4033
   58SAPC  C211 4349   2.496   2.443   9.301 -0.3885  0.2713  0.6250
   58SAPC  H11R 4350   2.584   2.507   9.285 -1.2762  1.3086 -0.2177
   58SAPC  C212 4351   2.426   2.410   9.196  0.1515 -0.0963 -0.3422
   58SAPC  H12R 4352   2.458   2.456   9.101  0.7591 -0.8058 -0.4883
   58SAPC  C213 4353   2.303   2.327   9.182  0.5946  0.5647 -0.1029
   58SAPC  H13R 4354   2.237   2.356   9.266  0.1234  0.7285 -0.5244
   58SAPC  H13S 4355   2.341   2.224   9.199  0.1654  0.2803 -0.8367
   58SAPC  C214 4356   2.237   2.343   9.051  0.6821 -1.0583  0.0333
   58SAPC  H14R 4357   2.154   2.415   9.057  1.6967  0.2676 -1.6397
   58SAPC  C215 4358   2.266   2.279   8.935 -1.0139  0.4696  0.0575
   58SAPC  H15R 4359   2.190   2.301   8.859 -0.5053 -1.7654 -1.1263
   58SAPC  C216 4360   2.388   2.189   8.920 -1.1892  0.3606 -0.1022
   58SAPC  H16R 4361   2.360   2.082   8.928  0.6092 -0.0545  0.8899
   58SAPC  H16S 4362   2.465   2.213   8.997  0.0756 -0.2502 -1.1497
   58SAPC  C217 4363   2.475   2.197   8.795  0.1710  0.5560  0.4290
   58SAPC  H17R 4364   2.426   2.155   8.705  1.4737  1.1612 -0.5665
   58SAPC  H17S 4365   2.564   2.135   8.815  0.1953  1.1323  2.2445
   58SAPC  C218 4366   2.504   2.342   8.753  0.0955 -0.1291  0.3456
   58SAPC  H18R 4367   2.528   2.393   8.849  0.9294 -0.9822  0.5946
   58SAPC  H18S 4368   2.410   2.393   8.722 -0.0746 -0.7123 -0.0979
   58SAPC  C219 4369   2.621   2.364   8.655 -0.8484  0.4553  0.2747
   58SAPC  H19R 4370   2.601   2.303   8.564  0.8513 -2.5282  1.7843
   58SAPC  H19S 4371   2.707   2.307   8.698  0.3349  0.2702 -2.2386
   58SAPC  C220 4372   2.647   2.510   8.633  0.4007 -0.4989 -0.1838
   58SAPC  H20R 4373   2.640   2.560   8.733  0.7718  0.8035 -0.7962
   58SAPC  H20S 4374   2.562   2.548   8.572 -0.8016 -1.2479  0.9777
   58SAPC  H20T 4375   2.739   2.524   8.572 -0.0189 -0.7247 -0.8733
   58SAPC   C33 4376   2.268   1.872  10.143  0.3011 -0.8321  0.5304
   58SAPC   H3X 4377   2.159   1.877  10.120  0.2620 -1.1215  0.6540
   58SAPC   H3Y 4378   2.302   1.771  10.111 -1.4853 -1.3488  0.1508
   58SAPC   C34 4379   2.337   1.980  10.049  0.1224 -0.3618 -0.4401
   58SAPC   H4X 4380   2.448   1.975  10.050  0.1869  0.5751  3.7135
   58SAPC   H4Y 4381   2.313   2.076  10.100 -0.4446 -1.1352  0.7408
   58SAPC   C35 4382   2.290   1.980   9.906  0.1515 -0.4256  0.0733
   58SAPC   H5X 4383   2.306   1.892   9.840 -2.4228  0.1522 -1.3644
   58SAPC   H5Y 4384   2.343   2.059   9.849 -1.8878 -0.4398 -1.9024
   58SAPC   C36 4385   2.143   2.024   9.882  0.0211 -0.4015 -0.9361
   58SAPC   H6X 4386   2.133   2.130   9.912 -0.5154 -0.2343 -1.6767
   58SAPC   H6Y 4387   2.076   1.959   9.943 -0.9804 -0.2170 -1.8158
   58SAPC   C37 4388   2.093   2.005   9.737 -0.7743 -0.1446  0.1659
   58SAPC   H7X 4389   1.982   2.014   9.736 -0.9132 -1.4975  1.1049
   58SAPC   H7Y 4390   2.112   1.901   9.702 -3.1064  0.0321 -1.7815
   58SAPC   C38 4391   2.159   2.099   9.633 -0.0112  0.1373  0.5492
   58SAPC   H8X 4392   2.268   2.079   9.632 -0.1763 -0.7375 -0.8173
   58SAPC   H8Y 4393   2.158   2.199   9.682  1.7095  0.0524  0.7986
   58SAPC   C39 4394   2.112   2.083   9.487  0.4107 -0.8382 -0.3417
   58SAPC   H9X 4395   2.148   2.173   9.432 -0.9309 -0.4612 -0.6089
   58SAPC   H9Y 4396   2.003   2.063   9.482  0.5179 -1.1624 -1.6419
   58SAPC  C310 4397   2.182   1.972   9.418  0.0909  0.9917  0.0087
   58SAPC  H10X 4398   2.143   1.875   9.456 -1.3062  1.8359  0.8155
   58SAPC  H10Y 4399   2.287   2.001   9.437  0.4144 -0.7899  1.1007
   58SAPC  C311 4400   2.156   1.966   9.266 -0.2916 -0.1031  0.4515
   58SAPC  H11X 4401   2.180   2.067   9.226 -0.8566  0.4433  1.4595
   58SAPC  H11Y 4402   2.047   1.948   9.252 -0.2570 -1.0013  1.3177
   58SAPC  C312 4403   2.237   1.868   9.180 -0.0390 -0.0209  0.0604
   58SAPC  H12X 4404   2.237   1.765   9.222 -1.0418 -0.2060 -0.3790
   58SAPC  H12Y 4405   2.345   1.893   9.177 -0.2793  0.8896 -1.4210
   58SAPC  C313 4406   2.179   1.860   9.039  0.4074 -0.4503 -0.5776
   58SAPC  H13X 4407   2.157   1.964   9.004 -1.8230 -0.6985  0.0427
   58SAPC  H13Y 4408   2.086   1.802   9.058  0.5568 -0.2571  0.7698
   58SAPC  C314 4409   2.278   1.793   8.938  0.0000 -0.1808 -0.3144
   58SAPC  H14X 4410   2.303   1.694   8.982  0.1945 -0.5070 -1.1523
   58SAPC  H14Y 4411   2.368   1.854   8.915  0.8981 -0.7144  1.6956
   58SAPC  C315 4412   2.215   1.751   8.803 -0.7125  0.1487  1.0614
   58SAPC  H15X 4413   2.175   1.824   8.729  0.5621  0.5575  0.7450
   58SAPC  H15Y 4414   2.121   1.697   8.822 -1.0061  0.1051 -0.4078
   58SAPC  C316 4415   2.309   1.660   8.718  0.5503  0.2029  0.5657
   58SAPC  H16X 4416   2.253   1.621   8.631  2.5218  1.0129 -1.0907
   58SAPC  H16Y 4417   2.341   1.583   8.791  0.2676  0.6340  1.1541
   58SAPC  C317 4418   2.433   1.731   8.663 -0.4049 -0.4534  0.7027
   58SAPC  H17X 4419   2.460   1.813   8.733  1.2832  1.4109 -2.0348
   58SAPC  H17Y 4420   2.402   1.777   8.567  0.6321 -0.9388  0.1281
   58SAPC  C318 4421   2.548   1.642   8.631 -0.0487  0.5578  0.3044
   58SAPC  H18X 4422   2.570   1.574   8.716 -1.1471 -2.5500 -1.8326
   58SAPC  H18Y 4423   2.626   1.715   8.601  0.0927  0.3755  0.2314
   58SAPC  H18Z 4424   2.519   1.575   8.547  0.8541 -0.3966  0.7431
   59SAPC     N 4425   2.994   3.823  11.347 -0.3053  1.0370 -0.3097
   59SAPC   C12 4426   3.132   3.881  11.377 -0.1174 -0.0300 -0.5854
   59SAPC  H12A 4427   3.165   3.856  11.477  1.6150 -1.0112 -1.3788
   59SAPC  H12B 4428   3.130   3.989  11.379  1.7470  0.0088  0.4348
   59SAPC   C13 4429   2.885   3.866  11.447  0.1248 -1.0027 -0.3672
   59SAPC  H13A 4430   2.875   3.974  11.451 -2.4101 -1.2062 -0.2285
   59SAPC  H13B 4431   2.787   3.829  11.420 -0.5651 -0.0557  0.7833
   59SAPC  H13C 4432   2.892   3.820  11.544 -0.3416 -0.1818  0.0670
   59SAPC   C14 4433   2.956   3.862  11.208 -0.3763 -0.5019 -0.3714
   59SAPC  H14A 4434   2.858   3.825  11.183 -1.4236  2.0037 -0.1472
   59SAPC  H14B 4435   2.945   3.967  11.186  2.3594  0.1819  1.2404
   59SAPC  H14C 4436   3.030   3.821  11.141 -2.1123 -1.3437 -1.7933
   59SAPC   C15 4437   3.008   3.671  11.348 -0.1510  0.5158  0.2768
   59SAPC  H15A 4438   3.014   3.631  11.448 -0.4973  1.6025  0.7401
   59SAPC  H15B 4439   2.915   3.635  11.306  0.0416  0.8150 -0.4219
   59SAPC  H15C 4440   3.093   3.641  11.288 -0.0899 -0.1692  0.7044
   59SAPC   C11 4441   3.254   3.842  11.295  0.1062  0.5615  0.3467
   59SAPC  H11A 4442   3.246   3.731  11.288 -1.5197  0.5769  1.5713
   59SAPC  H11B 4443   3.352   3.860  11.342 -1.6277  0.3249  4.2606
   59SAPC     P 4444   3.264   4.045  11.138 -0.1667 -0.2402  0.2283
   59SAPC   O13 4445   3.142   4.114  11.179 -0.0427 -0.7495  0.8308
   59SAPC   O14 4446   3.394   4.084  11.199 -0.3954 -0.3980 -0.0107
   59SAPC   O12 4447   3.247   3.892  11.168  0.1520 -0.4875  0.2314
   59SAPC   O11 4448   3.276   4.044  10.980 -0.6866 -0.0075 -0.2562
   59SAPC    C1 4449   3.265   3.928  10.894  0.4932 -0.0667  0.2261
   59SAPC    HA 4450   3.179   3.867  10.929  0.6746 -0.3523  0.1796
   59SAPC    HB 4451   3.240   3.958  10.790  0.1468  0.3362  0.4287
   59SAPC    C2 4452   3.399   3.853  10.888  0.6109  0.1956  0.0842
   59SAPC    HS 4453   3.455   3.868  10.983  2.7147 -2.0657 -0.7496
   59SAPC   O21 4454   3.474   3.910  10.779 -0.2239 -0.6994 -0.0548
   59SAPC   C21 4455   3.605   3.891  10.775 -0.6156 -0.3612  0.2953
   59SAPC   O22 4456   3.671   3.835  10.864 -0.3520  0.4434 -0.1292
   59SAPC   C22 4457   3.672   3.958  10.662  0.0157 -0.0616  0.1192
   59SAPC   H2R 4458   3.627   3.932  10.564  0.8679 -1.9256  0.1903
   59SAPC   H2S 4459   3.681   4.066  10.685  2.2370 -0.4545  1.2172
   59SAPC    C3 4460   3.379   3.702  10.862 -0.5182  0.1252  0.1404
   59SAPC    HX 4461   3.312   3.649  10.933 -0.9852  0.3062 -0.1649
   59SAPC    HY 4462   3.479   3.661  10.890 -0.9380 -0.4987  0.7538
   59SAPC   O31 4463   3.336   3.678  10.728  0.9367  0.4418 -0.2279
   59SAPC   C31 4464   3.417   3.631  10.629 -0.0902  0.2012 -0.1507
   59SAPC   O32 4465   3.536   3.619  10.643 -0.4509 -0.1506  0.3040
   59SAPC   C32 4466   3.341   3.600  10.500 -0.4180  0.5062  0.0422
   59SAPC   H2X 4467   3.234   3.622  10.520 -0.5511 -0.0926  0.0057
   59SAPC   H2Y 4468   3.363   3.494  10.475  4.4007  1.6038 -0.9648
   59SAPC   C23 4469   3.822   3.925  10.651 -0.1160  0.0097 -0.1162
   59SAPC   H3R 4470   3.884   3.931  10.743  1.8268  1.5511 -1.4774
   59SAPC   H3S 4471   3.863   3.993  10.573 -0.3877 -1.4092 -1.5062
   59SAPC   C24 4472   3.845   3.776  10.613 -0.2175  0.3495  0.3710
   59SAPC   H4R 4473   3.764   3.767  10.537  0.9208 -0.3031 -0.7768
   59SAPC   H4S 4474   3.829   3.708  10.699  1.2666 -0.2925  0.1479
   59SAPC   C25 4475   3.980   3.759  10.542 -0.0582  0.4299 -0.1479
   59SAPC   H5R 4476   4.064   3.782  10.609  0.5828 -1.9765 -0.0888
   59SAPC   C26 4477   4.007   3.730  10.413 -0.1749 -0.6739 -0.7100
   59SAPC   H6R 4478   4.114   3.721  10.392  0.1916  1.8776 -0.0777
   59SAPC   C27 4479   3.916   3.702  10.294 -0.3421 -0.3802  0.7908
   59SAPC   H7R 4480   3.818   3.662  10.326 -1.0225  1.6871  1.3427
   59SAPC   H7S 4481   3.963   3.617  10.240  3.0861 -0.3930  3.6067
   59SAPC   C28 4482   3.893   3.816  10.203  0.4457  0.1936  0.7934
   59SAPC   H8R 4483   3.869   3.905  10.263  0.4769 -0.7195  2.1733
   59SAPC   C29 4484   3.900   3.833  10.066  0.3533  0.6338 -0.0196
   59SAPC   H9R 4485   3.874   3.932  10.027 -0.8089  0.1447 -0.5284
   59SAPC  C210 4486   3.936   3.729   9.961 -0.1256  0.3466  0.1086
   59SAPC  H10R 4487   3.878   3.743   9.868  0.2067 -1.9386 -0.4537
   59SAPC  H10S 4488   3.906   3.628   9.995  1.5257 -1.0568 -2.4594
   59SAPC  C211 4489   4.085   3.725   9.932 -0.1998 -0.1212  0.0935
   59SAPC  H11R 4490   4.150   3.748  10.018  0.1597 -0.0781 -0.1897
   59SAPC  C212 4491   4.143   3.685   9.818  0.2947 -0.3251  0.2761
   59SAPC  H12R 4492   4.252   3.692   9.809  0.1179 -1.5808 -3.6159
   59SAPC  C213 4493   4.063   3.659   9.689 -0.0451 -0.1360 -0.8386
   59SAPC  H13R 4494   3.955   3.638   9.708  0.4223 -0.6647  1.3906
   59SAPC  H13S 4495   4.103   3.572   9.631  1.4516  1.0856 -1.6585
   59SAPC  C214 4496   4.067   3.782   9.601 -0.0317  0.3556  0.4909
   59SAPC  H14R 4497   4.051   3.878   9.652  2.5748  0.0957  1.8823
   59SAPC  C215 4498   4.060   3.777   9.469 -0.6496 -0.3146  0.6079
   59SAPC  H15R 4499   4.077   3.872   9.416  1.3526 -0.4260  1.0162
   59SAPC  C216 4500   4.072   3.649   9.381 -0.2271 -0.0112 -0.3543
   59SAPC  H16R 4501   4.006   3.659   9.293 -0.4851 -1.9009 -0.3968
   59SAPC  H16S 4502   4.044   3.558   9.439 -1.0499  0.6247  0.2698
   59SAPC  C217 4503   4.218   3.624   9.342  0.0135  0.1603  0.0754
   59SAPC  H17R 4504   4.276   3.632   9.437 -0.1211 -1.1296  0.2767
   59SAPC  H17S 4505   4.237   3.711   9.275  1.4709  0.0013  0.2657
   59SAPC  C218 4506   4.248   3.483   9.280 -0.4799 -0.5992  0.2024
   59SAPC  H18R 4507   4.192   3.404   9.334  0.5347 -0.4068  1.5445
   59SAPC  H18S 4508   4.354   3.460   9.302 -0.0359  0.0221 -1.1920
   59SAPC  C219 4509   4.237   3.473   9.126  1.0234  0.1420 -0.6057
   59SAPC  H19R 4510   4.135   3.497   9.088  1.8051  1.2852 -2.0253
   59SAPC  H19S 4511   4.259   3.364   9.117  0.5389  0.2363 -3.2437
   59SAPC  C220 4512   4.343   3.539   9.039  0.6283  0.2825 -0.5406
   59SAPC  H20R 4513   4.391   3.613   9.107  1.7304 -0.4434 -0.5153
   59SAPC  H20S 4514   4.312   3.580   8.941  0.8432 -2.2869 -1.7055
   59SAPC  H20T 4515   4.418   3.458   9.026  1.0986  0.7653 -0.8630
   59SAPC   C33 4516   3.391   3.695  10.381  0.5269 -0.1100  0.4829
   59SAPC   H3X 4517   3.381   3.645  10.283 -1.0961  0.6996  0.2226
   59SAPC   H3Y 4518   3.499   3.718  10.382  1.1869 -3.0580  0.9296
   59SAPC   C34 4519   3.327   3.833  10.379  0.6043 -0.3161  0.1496
   59SAPC   H4X 4520   3.382   3.906  10.316 -1.1704 -0.7452 -1.9762
   59SAPC   H4Y 4521   3.314   3.872  10.482 -0.9915 -3.5844  1.2850
   59SAPC   C35 4522   3.182   3.841  10.318 -0.0189  0.2632  0.4017
   59SAPC   H5X 4523   3.146   3.946  10.308  0.0829  0.2994  0.4184
   59SAPC   H5Y 4524   3.120   3.777  10.385  1.1456 -1.4520 -0.1442
   59SAPC   C36 4525   3.161   3.775  10.181 -0.2512  0.8778 -0.4610
   59SAPC   H6X 4526   3.156   3.664  10.184  1.1537  0.7545 -2.1640
   59SAPC   H6Y 4527   3.249   3.789  10.114  0.2886 -4.0049 -0.9334
   59SAPC   C37 4528   3.031   3.828  10.102 -0.3631  0.4020  0.0947
   59SAPC   H7X 4529   3.033   3.939  10.110  2.4371  0.5486 -1.6718
   59SAPC   H7Y 4530   2.951   3.787  10.167  2.0261 -0.8969  2.2932
   59SAPC   C38 4531   3.037   3.770   9.957 -0.9498 -0.1274  0.2440
   59SAPC   H8X 4532   2.933   3.778   9.919 -1.0506 -2.6966 -0.1264
   59SAPC   H8Y 4533   3.067   3.663   9.965  0.0765 -0.0524 -2.4256
   59SAPC   C39 4534   3.130   3.845   9.852  0.5310  0.2217 -0.1817
   59SAPC   H9X 4535   3.235   3.811   9.868  0.1747 -1.8676 -2.1159
   59SAPC   H9Y 4536   3.131   3.954   9.877  2.7717 -0.2850  2.1872
   59SAPC  C310 4537   3.105   3.813   9.707  0.1035 -0.7821 -0.4708
   59SAPC  H10X 4538   3.025   3.882   9.673  1.5794 -0.2521 -2.9371
   59SAPC  H10Y 4539   3.082   3.704   9.705 -1.6904 -0.6582  5.0437
   59SAPC  C311 4540   3.229   3.843   9.618  0.2409  0.1237 -0.8547
   59SAPC  H11X 4541   3.314   3.782   9.654 -0.3141  0.1136  0.4569
   59SAPC  H11Y 4542   3.252   3.951   9.614 -2.7052  0.7955 -0.9186
   59SAPC  C312 4543   3.202   3.789   9.473  0.0851  0.2279 -0.2419
   59SAPC  H12X 4544   3.216   3.679   9.475  0.2548  0.2352 -1.0270
   59SAPC  H12Y 4545   3.288   3.826   9.412  3.6041 -3.3965  2.2643
   59SAPC  C313 4546   3.063   3.839   9.420  0.3515 -0.1732  0.6104
   59SAPC  H13X 4547   3.044   3.946   9.446 -0.1853 -0.3503  0.9728
   59SAPC  H13Y 4548   2.985   3.775   9.466 -0.1744 -0.4739 -0.6811
   59SAPC  C314 4549   3.046   3.821   9.275 -0.8678  0.9578 -0.3622
   59SAPC  H14X 4550   3.104   3.890   9.209  2.5413 -1.4364  0.0210
   59SAPC  H14Y 4551   2.940   3.840   9.247 -0.9027 -0.2885 -1.1137
   59SAPC  C315 4552   3.070   3.680   9.219  0.1577 -0.1089 -0.2378
   59SAPC  H15X 4553   3.015   3.611   9.286 -1.9898  0.5767 -1.2447
   59SAPC  H15Y 4554   3.179   3.659   9.217  0.5302  1.5317  0.7232
   59SAPC  C316 4555   3.022   3.669   9.077 -0.5262  0.3138  0.0057
   59SAPC  H16X 4556   2.960   3.752   9.037  1.4013  1.1995 -1.1833
   59SAPC  H16Y 4557   2.969   3.571   9.070  0.9871 -0.7058  2.0527
   59SAPC  C317 4558   3.141   3.662   8.981  1.0649 -0.5182  0.1641
   59SAPC  H17X 4559   3.206   3.572   8.987  2.3928  0.3617 -0.9539
   59SAPC  H17Y 4560   3.209   3.749   8.994 -0.7356  0.4251  4.2617
   59SAPC  C318 4561   3.086   3.677   8.837 -0.4747  0.5133 -1.0829
   59SAPC  H18X 4562   3.017   3.590   8.830  1.7805 -1.2655 -2.1641
   59SAPC  H18Y 4563   3.172   3.673   8.766 -0.0100  0.8350 -0.5454
   59SAPC  H18Z 4564   3.028   3.769   8.814 -1.7418 -0.5398 -2.1701
   60SAPC     N 4565   5.719   1.357  10.872 -0.0623  0.6366  0.3559
   60SAPC   C12 4566   5.681   1.418  10.736  0.7049  0.2801  0.7747
   60SAPC  H12A 4567   5.594   1.370  10.692  1.1232 -1.7160  2.0421
   60SAPC  H12B 4568   5.750   1.386  10.659  0.1586 -0.0413  0.4127
   60SAPC   C13 4569   5.713   1.210  10.850 -0.4381  0.1149  0.9532
   60SAPC  H13A 4570   5.613   1.177  10.825 -0.0812  0.3839 -0.8233
   60SAPC  H13B 4571   5.781   1.179  10.773 -0.5160  0.1797  0.8598
   60SAPC  H13C 4572   5.744   1.154  10.938  1.8672  0.8666  0.6515
   60SAPC   C14 4573   5.855   1.399  10.904 -0.5448  0.1776 -0.1580
   60SAPC  H14A 4574   5.923   1.379  10.823 -0.1611  2.8708 -0.5328
   60SAPC  H14B 4575   5.856   1.507  10.898  0.6158  0.1565 -0.5115
   60SAPC  H14C 4576   5.884   1.370  11.005  0.9976  2.3177  0.0468
   60SAPC   C15 4577   5.624   1.392  10.985 -0.1760  0.6259  0.6745
   60SAPC  H15A 4578   5.673   1.348  11.071  0.2619  0.3662  0.3019
   60SAPC  H15B 4579   5.619   1.498  11.003  1.0965  0.6531  0.9731
   60SAPC  H15C 4580   5.525   1.354  10.966 -0.1059  0.0645  1.3866
   60SAPC   C11 4581   5.651   1.572  10.727 -0.1966  0.1937  0.5677
   60SAPC  H11A 4582   5.563   1.598  10.790 -1.7563 -1.6887 -0.7751
   60SAPC  H11B 4583   5.616   1.594  10.624 -1.5158 -1.1059  0.7359
   60SAPC     P 4584   5.873   1.700  10.679 -0.0931  0.2856 -0.4522
   60SAPC   O13 4585   5.971   1.796  10.741  0.5353  0.4838 -0.2211
   60SAPC   O14 4586   5.925   1.574  10.615  0.1594 -0.2998  0.5654
   60SAPC   O12 4587   5.760   1.651  10.781 -0.2586 -0.7180 -0.0992
   60SAPC   O11 4588   5.783   1.768  10.566 -0.1444 -0.1245  0.1199
   60SAPC    C1 4589   5.700   1.886  10.603 -0.4278 -0.1592 -0.1737
   60SAPC    HA 4590   5.652   1.871  10.701  1.9335  2.7507  1.5080
   60SAPC    HB 4591   5.762   1.978  10.592 -0.9569  0.2712  0.4400
   60SAPC    C2 4592   5.598   1.916  10.487  0.1017  0.0442  0.6679
   60SAPC    HS 4593   5.539   2.003  10.526 -0.0364 -0.2790  1.1855
   60SAPC   O21 4594   5.515   1.800  10.457  0.6692 -0.7011 -0.3950
   60SAPC   C21 4595   5.393   1.820  10.406 -0.1528  0.4904 -0.1846
   60SAPC   O22 4596   5.340   1.925  10.383 -0.3531  0.2981 -0.2076
   60SAPC   C22 4597   5.329   1.685  10.381  0.5887 -0.3440 -0.3806
   60SAPC   H2R 4598   5.408   1.640  10.317  0.0256 -1.8280 -0.0691
   60SAPC   H2S 4599   5.327   1.616  10.468  1.1223 -0.5434 -0.5201
   60SAPC    C3 4600   5.674   1.951  10.353 -0.0517  0.0910  0.6782
   60SAPC    HX 4601   5.734   1.861  10.329 -1.9346 -1.4039  1.4264
   60SAPC    HY 4602   5.742   2.037  10.370 -0.5005  0.7438 -0.8136
   60SAPC   O31 4603   5.591   1.981  10.232 -0.4378 -0.1451 -0.4350
   60SAPC   C31 4604   5.523   2.094  10.243 -0.6939 -0.5628  1.4064
   60SAPC   O32 4605   5.524   2.164  10.342  0.3783  0.1687 -0.8274
   60SAPC   C32 4606   5.426   2.126  10.122 -0.1875 -0.0563 -0.6768
   60SAPC   H2X 4607   5.477   2.212  10.073  0.4597  0.2171  0.4740
   60SAPC   H2Y 4608   5.329   2.149  10.170 -0.1674  0.1296 -0.7265
   60SAPC   C23 4609   5.194   1.690  10.312  0.3543 -0.1373 -0.3595
   60SAPC   H3R 4610   5.196   1.747  10.216 -3.6278 -1.8067 -1.5462
   60SAPC   H3S 4611   5.110   1.714  10.380 -0.2826 -2.2491 -0.3865
   60SAPC   C24 4612   5.150   1.547  10.267 -0.4040  0.0636  0.8515
   60SAPC   H4R 4613   5.123   1.489  10.357  0.4492  1.9591  2.3569
   60SAPC   H4S 4614   5.229   1.496  10.206 -1.7090 -0.3369 -0.5320
   60SAPC   C25 4615   5.017   1.539  10.195  0.1469  0.3992  0.9154
   60SAPC   H5R 4616   4.931   1.554  10.262 -0.0540  0.7804  0.5782
   60SAPC   C26 4617   4.986   1.516  10.068  0.5952 -0.6597 -0.2848
   60SAPC   H6R 4618   4.882   1.523  10.034  0.6302 -0.0358 -0.2589
   60SAPC   C27 4619   5.082   1.490   9.957  0.2298  0.1821 -0.3522
   60SAPC   H7R 4620   5.183   1.452   9.987 -0.9609 -2.7893  0.1432
   60SAPC   H7S 4621   5.100   1.589   9.910  0.5654  0.6961  0.8410
   60SAPC   C28 4622   5.031   1.379   9.862 -1.0118 -0.6669 -0.3559
   60SAPC   H8R 4623   4.987   1.292   9.913 -2.2445  0.6128  0.8124
   60SAPC   C29 4624   5.050   1.374   9.730 -0.1194  0.5328 -0.0658
   60SAPC   H9R 4625   5.014   1.289   9.671  0.1961  0.1500  0.2877
   60SAPC  C210 4626   5.114   1.479   9.643  0.0747 -0.3027  0.3572
   60SAPC  H10R 4627   5.202   1.442   9.586  0.3670  0.3434  0.3825
   60SAPC  H10S 4628   5.145   1.559   9.713 -0.0928  0.7983 -0.7977
   60SAPC  C211 4629   5.014   1.546   9.557  0.3487 -0.1762 -0.6579
   60SAPC  H11R 4630   4.933   1.595   9.614 -1.2575 -1.5872 -1.6649
   60SAPC  C212 4631   4.986   1.526   9.428  0.1052  0.2623 -0.5964
   60SAPC  H12R 4632   4.895   1.575   9.391 -0.5806  1.3163  2.3198
   60SAPC  C213 4633   5.059   1.423   9.344 -0.3855 -0.0435 -0.3580
   60SAPC  H13R 4634   5.137   1.367   9.399 -0.1315 -0.4493 -1.1211
   60SAPC  H13S 4635   5.105   1.483   9.261  0.1765 -1.1132 -0.8275
   60SAPC  C214 4636   4.969   1.323   9.276  1.1595  0.4489  0.7223
   60SAPC  H14R 4637   4.881   1.296   9.336  1.7891  0.1036  1.4855
   60SAPC  C215 4638   4.991   1.267   9.153 -0.3913 -0.0181  0.1664
   60SAPC  H15R 4639   4.913   1.198   9.115 -0.2807  0.0480 -0.1814
   60SAPC  C216 4640   5.103   1.299   9.059  0.4670  0.7289 -0.4139
   60SAPC  H16R 4641   5.177   1.349   9.124  0.2996  0.2400  0.1605
   60SAPC  H16S 4642   5.056   1.365   8.983 -1.6186  0.9354  0.9908
   60SAPC  C217 4643   5.175   1.187   8.987 -0.0101  0.1457 -0.3862
   60SAPC  H17R 4644   5.202   1.106   9.057 -1.0413  1.4529  1.5567
   60SAPC  H17S 4645   5.267   1.234   8.946  1.8308 -1.6325  1.5980
   60SAPC  C218 4646   5.102   1.126   8.867  0.5290 -0.1839  0.5400
   60SAPC  H18R 4647   5.067   1.215   8.810  0.1662 -1.1889 -0.8331
   60SAPC  H18S 4648   5.013   1.073   8.906 -0.6628  1.8385  0.6417
   60SAPC  C219 4649   5.186   1.028   8.784  0.2695 -0.0113 -0.3485
   60SAPC  H19R 4650   5.217   0.932   8.831 -0.8971 -0.3982 -0.3599
   60SAPC  H19S 4651   5.289   1.065   8.763  0.8435 -0.0144  2.3398
   60SAPC  C220 4652   5.119   0.992   8.652  0.0283  0.8046 -0.2828
   60SAPC  H20R 4653   5.065   1.080   8.610  1.1379  1.2041 -0.9126
   60SAPC  H20S 4654   5.045   0.911   8.666 -0.0020  0.7199 -0.9354
   60SAPC  H20T 4655   5.199   0.952   8.585  0.8676  1.5982  0.2304
   60SAPC   C33 4656   5.406   2.012  10.013  0.4411 -0.1470 -0.3452
   60SAPC   H3X 4657   5.325   1.941  10.040  0.5302  0.4776  1.6945
   60SAPC   H3Y 4658   5.501   1.957  10.003 -0.8976 -2.3368 -1.2806
   60SAPC   C34 4659   5.365   2.070   9.874 -1.0472  0.0797 -0.7666
   60SAPC   H4X 4660   5.450   2.133   9.837 -1.7035  0.3870 -1.7664
   60SAPC   H4Y 4661   5.277   2.138   9.878 -0.4901  0.6917  1.7608
   60SAPC   C35 4662   5.345   1.953   9.765  0.0523  0.1694  0.4681
   60SAPC   H5X 4663   5.285   1.878   9.821 -1.2376  1.4189  0.7993
   60SAPC   H5Y 4664   5.445   1.910   9.742  0.0312  0.4320 -0.1132
   60SAPC   C36 4665   5.261   2.003   9.641 -0.1776  0.3164  0.2030
   60SAPC   H6X 4666   5.322   2.078   9.585 -0.4532  0.9392  0.7412
   60SAPC   H6Y 4667   5.170   2.046   9.687  0.9042  2.9126 -0.0027
   60SAPC   C37 4668   5.218   1.891   9.545  0.2534 -0.3982  0.4335
   60SAPC   H7X 4669   5.159   1.808   9.589 -1.9097  0.8827  0.0089
   60SAPC   H7Y 4670   5.316   1.849   9.514  1.0296  2.2368 -0.8216
   60SAPC   C38 4671   5.160   1.957   9.419 -0.3909  0.5300  0.1245
   60SAPC   H8X 4672   5.221   2.044   9.386 -1.3849  0.0518 -3.1029
   60SAPC   H8Y 4673   5.061   1.999   9.445 -1.0219  0.0120 -1.4163
   60SAPC   C39 4674   5.152   1.860   9.302 -0.2656  0.2582 -1.2147
   60SAPC   H9X 4675   5.121   1.756   9.327  2.6396 -0.6976 -1.4067
   60SAPC   H9Y 4676   5.261   1.857   9.279 -0.2555 -2.2211 -0.9744
   60SAPC  C310 4677   5.067   1.928   9.203  0.1102  0.5665  0.2554
   60SAPC  H10X 4678   5.116   2.023   9.171 -0.5076  1.0210  0.6592
   60SAPC  H10Y 4679   4.966   1.949   9.243  0.1425  0.8807  0.1720
   60SAPC  C311 4680   5.040   1.848   9.073 -0.3855 -0.0511 -0.7426
   60SAPC  H11X 4681   4.931   1.853   9.056 -0.9463  0.5354  2.5434
   60SAPC  H11Y 4682   5.074   1.742   9.074  0.5780  0.2312  2.2460
   60SAPC  C312 4683   5.104   1.918   8.950  0.6859  0.8300  0.0826
   60SAPC  H12X 4684   5.215   1.908   8.955  0.4530 -1.6955  0.8984
   60SAPC  H12Y 4685   5.084   2.027   8.960  0.4872  0.9029 -1.0878
   60SAPC  C313 4686   5.067   1.858   8.809  0.0507 -0.3533  0.7558
   60SAPC  H13X 4687   4.966   1.901   8.792 -0.1156 -1.1328 -0.2752
   60SAPC  H13Y 4688   5.065   1.748   8.824 -2.1957 -0.1261  2.4104
   60SAPC  C314 4689   5.157   1.907   8.700  0.5056  0.2796  0.1463
   60SAPC  H14X 4690   5.264   1.888   8.723  0.1510 -0.9098  0.8544
   60SAPC  H14Y 4691   5.145   2.016   8.681 -0.8792  0.2882  1.0443
   60SAPC  C315 4692   5.112   1.823   8.572  0.0730 -0.3012 -0.2615
   60SAPC  H15X 4693   5.007   1.857   8.562 -0.0977 -0.1157  1.8402
   60SAPC  H15Y 4694   5.113   1.716   8.604 -0.3911 -0.0895  0.4740
   60SAPC  C316 4695   5.187   1.864   8.442  0.1565  0.7842  0.2269
   60SAPC  H16X 4696   5.159   1.969   8.420 -1.0297  0.1287 -1.4758
   60SAPC  H16Y 4697   5.152   1.806   8.354 -2.3399  0.2848  1.5144
   60SAPC  C317 4698   5.345   1.869   8.455 -0.0899 -0.1728  0.0853
   60SAPC  H17X 4699   5.391   1.767   8.458 -0.3719 -0.4483 -2.8150
   60SAPC  H17Y 4700   5.376   1.920   8.548 -1.5260  0.1273  0.4114
   60SAPC  C318 4701   5.416   1.931   8.336 -0.1615 -0.9134 -0.5867
   60SAPC  H18X 4702   5.527   1.939   8.343 -0.2406  0.0261 -0.2872
   60SAPC  H18Y 4703   5.385   2.035   8.313 -0.7518 -0.2882  2.7601
   60SAPC  H18Z 4704   5.383   1.885   8.241 -1.5798  0.0227 -0.5636
   61SAPC     N 4705   6.513   6.738  11.192  0.0486 -0.5360 -0.3973
   61SAPC   C12 4706   6.448   6.864  11.140  0.6904  0.5848 -0.0623
   61SAPC  H12A 4707   6.424   6.923  11.228  0.8890  0.7366 -0.1097
   61SAPC  H12B 4708   6.354   6.848  11.090 -0.3023  3.0977  0.9031
   61SAPC   C13 4709   6.552   6.644  11.084 -0.1566 -0.1816  0.2584
   61SAPC  H13A 4710   6.616   6.695  11.014 -1.9700 -0.6194 -1.7482
   61SAPC  H13B 4711   6.600   6.552  11.116  0.8638  0.7936  1.5856
   61SAPC  H13C 4712   6.462   6.626  11.026  0.3454  0.1570 -0.6319
   61SAPC   C14 4713   6.639   6.783  11.256 -0.7976 -0.2025  0.0425
   61SAPC  H14A 4714   6.711   6.715  11.300 -1.5993 -1.0557  0.0509
   61SAPC  H14B 4715   6.699   6.830  11.180  1.0971 -0.3623  1.3840
   61SAPC  H14C 4716   6.611   6.855  11.332 -1.3161 -1.3533  0.9553
   61SAPC   C15 4717   6.430   6.672  11.302 -0.3339 -0.5500  0.2109
   61SAPC  H15A 4718   6.362   6.598  11.261 -0.1637  0.3946 -1.8052
   61SAPC  H15B 4719   6.495   6.619  11.370  1.6462 -0.0373 -1.2425
   61SAPC  H15C 4720   6.388   6.747  11.367  1.0088  0.9454 -0.6325
   61SAPC   C11 4721   6.536   6.948  11.043  0.7101 -0.7780  0.2207
   61SAPC  H11A 4722   6.480   7.036  11.006 -3.9154 -3.8382 -0.4944
   61SAPC  H11B 4723   6.564   6.891  10.952  1.4579 -2.6752  1.6095
   61SAPC     P 4724   6.774   7.055  11.032  0.6779 -0.0743  0.1136
   61SAPC   O13 4725   6.863   7.144  11.114  0.0499  0.1923  0.2557
   61SAPC   O14 4726   6.841   6.946  10.960 -0.3217  0.1680  0.0510
   61SAPC   O12 4727   6.651   7.000  11.116 -0.0381  0.0112  0.0693
   61SAPC   O11 4728   6.702   7.151  10.928  0.5366  0.2287  0.1184
   61SAPC    C1 4729   6.695   7.100  10.786 -0.2577 -0.9934 -0.0953
   61SAPC    HA 4730   6.795   7.072  10.748  0.4068 -1.8995  2.1920
   61SAPC    HB 4731   6.623   7.016  10.784  0.8720 -2.1063  2.6723
   61SAPC    C2 4732   6.650   7.214  10.687  0.2359  0.2420 -0.0001
   61SAPC    HS 4733   6.541   7.233  10.694  0.6559  1.9527  2.8472
   61SAPC   O21 4734   6.691   7.169  10.560  0.6567  0.4992 -0.1306
   61SAPC   C21 4735   6.615   7.076  10.508 -0.3029  0.1258  1.2306
   61SAPC   O22 4736   6.515   7.024  10.556 -0.0738  0.3150 -0.0595
   61SAPC   C22 4737   6.676   7.029  10.373 -0.2341 -0.2882 -0.3351
   61SAPC   H2R 4738   6.749   7.104  10.337 -0.3361 -0.9642 -1.9602
   61SAPC   H2S 4739   6.735   6.939  10.402  1.3540  1.1823  1.1236
   61SAPC    C3 4740   6.717   7.352  10.712 -0.1363  0.3236 -0.0537
   61SAPC    HX 4741   6.826   7.349  10.733  0.0432  0.2262 -0.9880
   61SAPC    HY 4742   6.681   7.387  10.811  2.3210 -1.0411  1.3706
   61SAPC   O31 4743   6.682   7.445  10.615 -0.4712  0.0319  0.5219
   61SAPC   C31 4744   6.763   7.438  10.501 -0.1432  0.0934 -0.3035
   61SAPC   O32 4745   6.861   7.367  10.494  0.5638  0.2373  0.0603
   61SAPC   C32 4746   6.728   7.547  10.401 -0.0596 -0.1102 -0.3926
   61SAPC   H2X 4747   6.738   7.651  10.440  0.3223 -0.2812 -0.0251
   61SAPC   H2Y 4748   6.619   7.560  10.388  0.2541  3.1394 -0.1173
   61SAPC   C23 4749   6.572   7.002  10.260  0.1003 -0.6241 -0.2091
   61SAPC   H3R 4750   6.479   6.946  10.286  0.1726 -1.0456 -0.8576
   61SAPC   H3S 4751   6.622   6.933  10.189  0.1039 -2.4590  1.5249
   61SAPC   C24 4752   6.536   7.144  10.194  0.4594 -0.4944  0.2593
   61SAPC   H4R 4753   6.510   7.216  10.275 -1.8547 -0.7012 -0.2660
   61SAPC   H4S 4754   6.439   7.127  10.142 -0.4791 -1.1503  2.1727
   61SAPC   C25 4755   6.648   7.184  10.097 -0.7802 -0.3301 -0.6210
   61SAPC   H5R 4756   6.724   7.250  10.142 -1.7123  0.8992 -0.8110
   61SAPC   C26 4757   6.654   7.158   9.964  0.6356  0.2292  0.6333
   61SAPC   H6R 4758   6.743   7.191   9.908 -0.2926  0.0566 -0.9848
   61SAPC   C27 4759   6.542   7.082   9.887 -0.3387  0.0066  0.0490
   61SAPC   H7R 4760   6.496   7.003   9.950 -2.4109 -1.2624 -2.9608
   61SAPC   H7S 4761   6.587   7.012   9.813 -0.2987 -0.2834  0.3440
   61SAPC   C28 4762   6.449   7.182   9.824  0.0278  0.2143  0.6994
   61SAPC   H8R 4763   6.380   7.239   9.888 -2.4892 -0.3496 -1.4055
   61SAPC   C29 4764   6.462   7.222   9.698 -0.2379  0.3969  0.4588
   61SAPC   H9R 4765   6.385   7.289   9.657  1.0969  1.0985 -0.9747
   61SAPC  C210 4766   6.573   7.179   9.606 -0.6295  0.3741  0.6274
   61SAPC  H10R 4767   6.555   7.071   9.586 -0.6424  0.2331  1.4192
   61SAPC  H10S 4768   6.667   7.177   9.664 -0.8768 -0.5112  1.0004
   61SAPC  C211 4769   6.602   7.259   9.481  0.5234  0.1106 -0.4577
   61SAPC  H11R 4770   6.650   7.356   9.498  0.0530  0.1258  0.8501
   61SAPC  C212 4771   6.579   7.223   9.353  0.3766  0.8086 -0.0245
   61SAPC  H12R 4772   6.607   7.295   9.275  1.6769 -0.9710 -1.2410
   61SAPC  C213 4773   6.502   7.098   9.311  0.5746 -0.3744  0.0783
   61SAPC  H13R 4774   6.395   7.113   9.338  0.4263  3.7884 -2.5063
   61SAPC  H13S 4775   6.539   7.005   9.360  1.4682  0.0664  0.2328
   61SAPC  C214 4776   6.510   7.071   9.166 -0.5753  0.4730  0.2817
   61SAPC  H14R 4777   6.596   7.009   9.140 -1.3906 -0.7056  0.3594
   61SAPC  C215 4778   6.437   7.119   9.067  0.1446  0.0917  0.0322
   61SAPC  H15R 4779   6.467   7.087   8.966  1.3321  2.8141 -0.5167
   61SAPC  C216 4780   6.319   7.207   9.095  0.7468 -0.0312  0.1875
   61SAPC  H16R 4781   6.328   7.263   9.191  0.0968  1.1728 -0.4469
   61SAPC  H16S 4782   6.227   7.144   9.092  1.1212 -0.5387 -1.2879
   61SAPC  C217 4783   6.296   7.304   8.983  0.6041  0.3739  0.1014
   61SAPC  H17R 4784   6.381   7.370   8.957  0.7393  0.8729  1.7836
   61SAPC  H17S 4785   6.220   7.378   9.016  1.2241  1.9735 -1.9349
   61SAPC  C218 4786   6.235   7.237   8.852  0.4629 -0.3768  0.2229
   61SAPC  H18R 4787   6.175   7.151   8.886  0.4148 -0.5337 -0.2499
   61SAPC  H18S 4788   6.316   7.191   8.791  0.2923 -0.2721 -0.0865
   61SAPC  C219 4789   6.141   7.334   8.784  0.0390  0.4287 -0.1754
   61SAPC  H19R 4790   6.051   7.347   8.848  0.4030  2.6038 -0.0580
   61SAPC  H19S 4791   6.106   7.283   8.691  2.5255 -0.8628 -0.4439
   61SAPC  C220 4792   6.201   7.474   8.749  0.1100  0.3510  0.4300
   61SAPC  H20R 4793   6.170   7.549   8.825  0.1841  0.4227  0.3891
   61SAPC  H20S 4794   6.175   7.497   8.643 -0.8231 -0.5079  0.4715
   61SAPC  H20T 4795   6.311   7.468   8.764 -0.0845  0.3394  1.9425
   61SAPC   C33 4796   6.809   7.523  10.261  1.1812 -0.2684 -0.7948
   61SAPC   H3X 4797   6.826   7.413  10.248 -0.9973 -0.3999 -3.0595
   61SAPC   H3Y 4798   6.911   7.564  10.272  1.9283 -2.4002  0.4866
   61SAPC   C34 4799   6.739   7.568  10.134 -0.6218 -0.0337 -0.5343
   61SAPC   H4X 4800   6.722   7.678  10.135  0.8125  0.2028  1.2239
   61SAPC   H4Y 4801   6.636   7.525  10.131 -1.3911  1.3400  3.7098
   61SAPC   C35 4802   6.824   7.545  10.010  0.7868 -0.4191 -0.7661
   61SAPC   H5X 4803   6.857   7.439  10.009  3.0537  0.2383  0.3362
   61SAPC   H5Y 4804   6.915   7.609  10.014  0.0734  0.5759 -0.1348
   61SAPC   C36 4805   6.743   7.568   9.885 -0.5684  0.3273  0.6301
   61SAPC   H6X 4806   6.696   7.668   9.887 -2.1906 -0.4240  1.0447
   61SAPC   H6Y 4807   6.661   7.493   9.877  0.7289 -1.2426  1.5581
   61SAPC   C37 4808   6.834   7.570   9.757  0.6217 -0.0613 -0.3554
   61SAPC   H7X 4809   6.875   7.468   9.747  0.0479 -0.4140  0.7465
   61SAPC   H7Y 4810   6.920   7.639   9.768 -0.2739  1.0058  0.1261
   61SAPC   C38 4811   6.743   7.609   9.641  0.3413  0.3695  0.5766
   61SAPC   H8X 4812   6.708   7.713   9.659 -1.7088 -0.7590  3.5826
   61SAPC   H8Y 4813   6.655   7.542   9.631  0.0301  1.0744 -1.5138
   61SAPC   C39 4814   6.797   7.594   9.497  0.4253 -0.3335  0.0321
   61SAPC   H9X 4815   6.826   7.488   9.478 -0.1169 -0.3167 -0.9205
   61SAPC   H9Y 4816   6.878   7.669   9.489 -0.8315  0.8059 -2.8590
   61SAPC  C310 4817   6.698   7.611   9.385 -0.2867  0.6178  0.2081
   61SAPC  H10X 4818   6.685   7.720   9.371  1.7433  0.8411 -0.0944
   61SAPC  H10Y 4819   6.595   7.574   9.405  0.3425 -1.0993  0.3425
   61SAPC  C311 4820   6.748   7.560   9.243  0.2743  0.3231 -0.2059
   61SAPC  H11X 4821   6.764   7.450   9.238 -1.1398  0.0946  0.0176
   61SAPC  H11Y 4822   6.843   7.615   9.224  0.0149  0.7189 -0.3467
   61SAPC  C312 4823   6.635   7.582   9.137  0.1131  0.1012  0.4209
   61SAPC  H12X 4824   6.581   7.679   9.143 -2.7933 -1.2571 -2.4789
   61SAPC  H12Y 4825   6.564   7.497   9.140 -2.1605  1.7410 -3.2151
   61SAPC  C313 4826   6.705   7.576   8.993  0.0500 -0.2006 -0.5869
   61SAPC  H13X 4827   6.715   7.470   8.962 -3.1119 -1.2815  1.8606
   61SAPC  H13Y 4828   6.802   7.631   9.001 -0.2291  0.4848 -1.7936
   61SAPC  C314 4829   6.633   7.656   8.870 -0.1013 -0.1941 -0.1451
   61SAPC  H14X 4830   6.636   7.756   8.919  1.0736 -1.1853  1.8931
   61SAPC  H14Y 4831   6.527   7.624   8.860  0.3553 -2.8217  2.5511
   61SAPC  C315 4832   6.714   7.654   8.737  0.3861 -0.2172 -0.2359
   61SAPC  H15X 4833   6.731   7.549   8.707 -0.1012 -0.1791 -0.6470
   61SAPC  H15Y 4834   6.811   7.705   8.760  1.0970 -1.4010 -0.6007
   61SAPC  C316 4835   6.646   7.741   8.630  0.8924 -0.4244 -0.1532
   61SAPC  H16X 4836   6.724   7.739   8.551  1.6262 -1.1630  0.5783
   61SAPC  H16Y 4837   6.639   7.845   8.669 -4.0249 -0.0276 -1.7325
   61SAPC  C317 4838   6.510   7.698   8.584  0.5864  0.3742  0.0105
   61SAPC  H17X 4839   6.437   7.703   8.667  0.8492  2.6633  0.1306
   61SAPC  H17Y 4840   6.526   7.592   8.554 -3.0261 -0.1211 -0.4377
   61SAPC  C318 4841   6.452   7.774   8.463  0.2486  1.2957 -0.1300
   61SAPC  H18X 4842   6.480   7.881   8.476  1.0752  1.1227 -0.4402
   61SAPC  H18Y 4843   6.342   7.766   8.457  0.2186  0.0708  1.6380
   61SAPC  H18Z 4844   6.502   7.735   8.371  0.6116 -0.6980  0.8866
   62SAPC     N 4845   5.947   0.299  10.947 -0.4739  0.1177  0.6108
   62SAPC   C12 4846   5.895   0.262  10.812 -0.4348 -0.0588 -0.2995
   62SAPC  H12A 4847   5.901   0.342  10.740  0.3353  1.3832  1.3137
   62SAPC  H12B 4848   5.791   0.233  10.821 -0.4418  0.2228  0.5871
   62SAPC   C13 4849   5.888   0.430  10.983  0.0006 -0.2401 -0.5118
   62SAPC  H13A 4850   5.919   0.452  11.084  0.7099 -2.6543 -0.1613
   62SAPC  H13B 4851   5.912   0.510  10.916  1.0289 -0.9100 -0.9474
   62SAPC  H13C 4852   5.781   0.419  10.970 -0.1032  0.5953 -0.3970
   62SAPC   C14 4853   5.920   0.188  11.051 -0.3019 -0.2751  0.3545
   62SAPC  H14A 4854   5.815   0.192  11.074 -0.1879 -0.3781  0.8844
   62SAPC  H14B 4855   5.932   0.091  11.005 -0.4383  0.4124 -1.1866
   62SAPC  H14C 4856   5.982   0.189  11.139  2.7163  2.1100 -1.7090
   62SAPC   C15 4857   6.095   0.317  10.969 -0.2925 -0.1474  0.4796
   62SAPC  H15A 4858   6.127   0.411  10.927 -1.6219 -1.1265 -2.8698
   62SAPC  H15B 4859   6.114   0.335  11.074 -2.6924  0.6405  0.8096
   62SAPC  H15C 4860   6.145   0.233  10.922  1.4075  1.3499 -0.4551
   62SAPC   C11 4861   5.981   0.139  10.755 -0.5746  0.0892 -0.4801
   62SAPC  H11A 4862   6.090   0.158  10.766 -0.6883 -0.0417  0.9516
   62SAPC  H11B 4863   5.958   0.136  10.646  0.0387 -0.2079 -0.6026
   62SAPC     P 4864   5.805  -0.039  10.796 -0.0789  0.0988  0.0273
   62SAPC   O13 4865   5.751  -0.064  10.930  0.4604  0.2304  0.7818
   62SAPC   O14 4866   5.726   0.055  10.719  0.3029 -0.6511 -0.2916
   62SAPC   O12 4867   5.955   0.009  10.812 -0.3198 -0.6287 -0.5126
   62SAPC   O11 4868   5.810  -0.171  10.716 -0.4842  0.2510  0.2349
   62SAPC    C1 4869   5.915  -0.199  10.613  0.2076 -0.0634 -0.1640
   62SAPC    HA 4870   6.007  -0.141  10.634 -0.2125  0.4397  0.3030
   62SAPC    HB 4871   5.953  -0.303  10.624 -0.3284 -0.1144  1.3413
   62SAPC    C2 4872   5.867  -0.183  10.466 -0.0073 -0.7598  0.1201
   62SAPC    HS 4873   5.924  -0.259  10.408  2.1857 -0.8429  2.3225
   62SAPC   O21 4874   5.883  -0.048  10.413 -0.6051  0.1075  0.1331
   62SAPC   C21 4875   6.010  -0.020  10.388  0.3001 -0.1174 -1.0799
   62SAPC   O22 4876   6.106  -0.100  10.404 -0.3117 -0.1916 -0.1298
   62SAPC   C22 4877   6.012   0.111  10.317  0.1302 -1.0340 -0.1933
   62SAPC   H2R 4878   5.981   0.189  10.389  0.1152 -1.2267  0.0114
   62SAPC   H2S 4879   6.117   0.121  10.282  0.2149 -2.1732 -0.2822
   62SAPC    C3 4880   5.721  -0.221  10.459  0.0912 -0.1172 -0.3755
   62SAPC    HX 4881   5.663  -0.149  10.521  0.5326 -1.5648  1.8113
   62SAPC    HY 4882   5.700  -0.321  10.504 -0.6540 -0.0080 -0.4779
   62SAPC   O31 4883   5.661  -0.208  10.325  0.1470 -0.3077  0.2046
   62SAPC   C31 4884   5.676  -0.318  10.250  0.3535 -0.5023  0.3592
   62SAPC   O32 4885   5.736  -0.419  10.286 -0.3278  0.4430  0.2407
   62SAPC   C32 4886   5.631  -0.279  10.110  0.3151 -1.0597 -0.0394
   62SAPC   H2X 4887   5.695  -0.194  10.079  1.2651 -2.1566 -1.1367
   62SAPC   H2Y 4888   5.521  -0.264  10.116  0.4683  0.7477 -1.4149
   62SAPC   C23 4889   5.921   0.115  10.193 -0.1051 -0.7511  0.1195
   62SAPC   H3R 4890   5.816   0.082  10.211  0.1473 -0.4418  2.2852
   62SAPC   H3S 4891   5.947   0.045  10.111 -1.8431 -0.6516 -0.5477
   62SAPC   C24 4892   5.914   0.254  10.129 -0.3838  0.0969 -0.2436
   62SAPC   H4R 4893   5.885   0.325  10.209 -1.6363 -0.0364 -0.5762
   62SAPC   H4S 4894   5.840   0.265  10.047 -0.4447  3.1639  0.1714
   62SAPC   C25 4895   6.053   0.299  10.077  0.3553 -0.3090  0.0262
   62SAPC   H5R 4896   6.115   0.360  10.145 -0.6939 -0.5447  1.2081
   62SAPC   C26 4897   6.106   0.274   9.958 -0.4911  0.3258  0.2499
   62SAPC   H6R 4898   6.208   0.309   9.937 -0.2438  0.6629  1.9387
   62SAPC   C27 4899   6.040   0.188   9.857 -0.0370 -0.3229  0.0584
   62SAPC   H7R 4900   5.969   0.251   9.801  0.6660 -0.0784 -0.5630
   62SAPC   H7S 4901   5.969   0.121   9.909 -0.9047  0.3881 -0.2091
   62SAPC   C28 4902   6.128   0.106   9.765 -0.2406  0.6846  0.4450
   62SAPC   H8R 4903   6.187   0.025   9.811  0.0176  0.0691 -0.9505
   62SAPC   C29 4904   6.142   0.126   9.631  0.2852 -0.0814 -0.1939
   62SAPC   H9R 4905   6.206   0.062   9.568 -0.4286  0.6857 -1.7316
   62SAPC  C210 4906   6.076   0.233   9.544 -0.2623  0.0487  0.0704
   62SAPC  H10R 4907   5.995   0.282   9.602 -0.8087  1.8033 -2.0630
   62SAPC  H10S 4908   6.019   0.195   9.456 -0.3362 -1.0760  0.6024
   62SAPC  C211 4909   6.167   0.345   9.501  0.4888 -0.5393 -0.0449
   62SAPC  H11R 4910   6.269   0.332   9.540  0.7869  0.0860 -0.6148
   62SAPC  C212 4911   6.138   0.459   9.432  0.2663  0.2951  0.0794
   62SAPC  H12R 4912   6.218   0.534   9.419  0.7838 -0.0047  1.4977
   62SAPC  C213 4913   6.002   0.496   9.370 -0.5417  0.4347  0.4014
   62SAPC  H13R 4914   5.928   0.414   9.383 -0.7809  1.0563  3.4037
   62SAPC  H13S 4915   6.007   0.495   9.259 -0.1094  0.1188  0.4232
   62SAPC  C214 4916   5.958   0.632   9.419  0.8463  0.0495 -0.4859
   62SAPC  H14R 4917   5.940   0.650   9.527 -2.4639  1.7138 -1.2267
   62SAPC  C215 4918   5.924   0.732   9.333  0.5203 -0.5031  0.0831
   62SAPC  H15R 4919   5.908   0.827   9.387  0.1730 -0.7088  0.3466
   62SAPC  C216 4920   5.925   0.738   9.184 -0.4558  0.0528 -0.9468
   62SAPC  H16R 4921   6.005   0.674   9.142 -0.3888  0.1864 -1.0208
   62SAPC  H16S 4922   5.951   0.841   9.149 -1.1758  0.3369 -0.6575
   62SAPC  C217 4923   5.792   0.684   9.130 -0.4574  1.1814  0.1042
   62SAPC  H17R 4924   5.715   0.760   9.157 -2.4685 -1.6229  2.5536
   62SAPC  H17S 4925   5.764   0.592   9.185  1.6085  0.1844 -0.4796
   62SAPC  C218 4926   5.779   0.653   8.979  0.5879 -0.0522 -0.5758
   62SAPC  H18R 4927   5.676   0.616   8.965 -0.8567  3.4971  0.1805
   62SAPC  H18S 4928   5.848   0.573   8.944  0.7309 -0.0931 -0.2029
   62SAPC  C219 4929   5.807   0.766   8.878  0.1935  0.0926  0.5230
   62SAPC  H19R 4930   5.912   0.801   8.888  0.0328  0.5187  0.7834
   62SAPC  H19S 4931   5.729   0.841   8.906 -0.6038  0.2428 -1.9923
   62SAPC  C220 4932   5.776   0.709   8.739 -0.4204 -0.7861 -0.8574
   62SAPC  H20R 4933   5.787   0.776   8.652 -2.5324  0.4990 -0.1814
   62SAPC  H20S 4934   5.671   0.673   8.743 -1.2057  1.3983 -1.0522
   62SAPC  H20T 4935   5.838   0.618   8.725 -0.4601 -0.7697 -1.1419
   62SAPC   C33 4936   5.647  -0.384   9.999  0.5711  0.3110  0.0486
   62SAPC   H3X 4937   5.571  -0.462  10.021 -0.1519  0.4038 -1.9815
   62SAPC   H3Y 4938   5.752  -0.420  10.004  0.7119  0.6681 -0.2887
   62SAPC   C34 4939   5.613  -0.322   9.867  0.4770 -0.2695  0.5353
   62SAPC   H4X 4940   5.678  -0.232   9.857 -0.1643  0.4757  2.7447
   62SAPC   H4Y 4941   5.507  -0.289   9.873  0.4375 -0.7712  3.7406
   62SAPC   C35 4942   5.619  -0.419   9.745  0.2559  0.1691 -0.0030
   62SAPC   H5X 4943   5.560  -0.507   9.780  1.2740 -0.2735  0.6052
   62SAPC   H5Y 4944   5.724  -0.449   9.724  0.2059  2.1950 -3.4240
   62SAPC   C36 4945   5.548  -0.366   9.616 -0.3130 -0.1464 -1.3250
   62SAPC   H6X 4946   5.597  -0.275   9.575  1.2839 -0.8669 -1.0754
   62SAPC   H6Y 4947   5.440  -0.350   9.632 -0.1289  0.3471 -0.5811
   62SAPC   C37 4948   5.552  -0.473   9.500 -0.0691 -0.1365 -0.2767
   62SAPC   H7X 4949   5.475  -0.545   9.535 -1.6891  2.0771  0.7813
   62SAPC   H7Y 4950   5.651  -0.522   9.488  0.8909  2.2867 -2.8121
   62SAPC   C38 4951   5.499  -0.396   9.378  0.1563  0.3212 -0.6101
   62SAPC   H8X 4952   5.422  -0.317   9.391  0.1049  0.0006  1.1303
   62SAPC   H8Y 4953   5.453  -0.466   9.306 -1.9418 -0.2186  1.1942
   62SAPC   C39 4954   5.615  -0.338   9.291 -0.0066  0.1903 -0.3740
   62SAPC   H9X 4955   5.693  -0.416   9.284 -0.7813 -0.4638 -2.1488
   62SAPC   H9Y 4956   5.660  -0.254   9.348 -0.2520  0.4927 -0.6211
   62SAPC  C310 4957   5.558  -0.269   9.161 -0.4243  0.7048 -0.0632
   62SAPC  H10X 4958   5.478  -0.201   9.198 -0.6717  0.4655 -0.1543
   62SAPC  H10Y 4959   5.504  -0.350   9.106  2.4869 -0.8207 -0.7625
   62SAPC  C311 4960   5.653  -0.186   9.070 -0.8725 -0.1425 -0.7118
   62SAPC  H11X 4961   5.712  -0.124   9.141 -0.8753  0.7796 -1.5165
   62SAPC  H11Y 4962   5.605  -0.119   8.995 -2.6926  0.5984  1.0627
   62SAPC  C312 4963   5.750  -0.280   8.991 -0.3800 -0.3118  0.0551
   62SAPC  H12X 4964   5.701  -0.317   8.898 -1.9383 -1.3330  1.2559
   62SAPC  H12Y 4965   5.770  -0.374   9.047 -1.7932 -0.3404  0.5363
   62SAPC  C313 4966   5.880  -0.214   8.955 -0.1958  0.7757  0.2363
   62SAPC  H13X 4967   5.917  -0.176   9.053  0.8372 -1.3909  0.7076
   62SAPC  H13Y 4968   5.862  -0.123   8.895 -2.6626 -0.3416 -0.7771
   62SAPC  C314 4969   5.993  -0.298   8.882  0.1279 -0.3623 -0.5051
   62SAPC  H14X 4970   5.998  -0.389   8.945 -0.5019 -0.9419 -1.2908
   62SAPC  H14Y 4971   6.093  -0.252   8.864 -0.4648  0.8872 -0.7015
   62SAPC  C315 4972   5.949  -0.347   8.745 -0.5544  0.0299 -0.1260
   62SAPC  H15X 4973   5.852  -0.400   8.758 -1.5416  2.2379  1.9325
   62SAPC  H15Y 4974   6.030  -0.418   8.718 -1.2530 -0.2005 -1.6501
   62SAPC  C316 4975   5.940  -0.236   8.640 -0.4298 -0.5329  0.3720
   62SAPC  H16X 4976   6.047  -0.218   8.615 -0.4924 -0.8439 -0.1272
   62SAPC  H16Y 4977   5.896  -0.147   8.689  0.9002  1.3160 -1.6801
   62SAPC  C317 4978   5.855  -0.271   8.519  0.0672  0.2961  0.2625
   62SAPC  H17X 4979   5.748  -0.277   8.549 -0.2398  0.0256 -0.8656
   62SAPC  H17Y 4980   5.886  -0.370   8.479 -1.4167  0.6337 -1.8396
   62SAPC  C318 4981   5.872  -0.182   8.400 -0.4755 -0.8379 -0.1668
   62SAPC  H18X 4982   5.828  -0.080   8.405  0.5679 -0.3122 -1.1656
   62SAPC  H18Y 4983   5.846  -0.231   8.303 -0.3053 -0.6098 -0.3289
   62SAPC  H18Z 4984   5.980  -0.163   8.380 -0.4490  1.9193  2.3259
   63SAPC     N 4985   2.795   5.405   6.098 -0.2070  0.4350  0.2365
   63SAPC   C12 4986   2.780   5.294   6.204 -0.8138  0.0809 -0.4202
   63SAPC  H12A 4987   2.873   5.245   6.228 -0.8536  0.3740  0.3578
   63SAPC  H12B 4988   2.724   5.210   6.164 -1.3416  0.2841 -0.1159
   63SAPC   C13 4989   2.663   5.465   6.065  0.0354  0.7964  0.0211
   63SAPC  H13A 4990   2.678   5.545   5.994  0.8241  0.1758 -0.5168
   63SAPC  H13B 4991   2.602   5.381   6.033 -0.0213  0.7116  0.3519
   63SAPC  H13C 4992   2.612   5.513   6.147 -1.5342  0.1148 -0.5310
   63SAPC   C14 4993   2.892   5.505   6.144  0.5832 -0.8476 -0.5967
   63SAPC  H14A 4994   2.996   5.484   6.121  1.2278 -0.2140  1.6259
   63SAPC  H14B 4995   2.881   5.602   6.099  2.2909 -0.5360 -0.3877
   63SAPC  H14C 4996   2.881   5.513   6.251  2.2764  0.2898 -0.4853
   63SAPC   C15 4997   2.851   5.346   5.974 -0.3590 -0.2253 -0.2545
   63SAPC  H15A 4998   2.843   5.415   5.892 -0.7544 -0.0210 -0.0459
   63SAPC  H15B 4999   2.956   5.328   5.988 -0.3587 -1.7773 -1.9850
   63SAPC  H15C 5000   2.795   5.260   5.938  0.0707 -1.0215  0.9471
   63SAPC   C11 5001   2.720   5.342   6.339 -0.2662  0.2146 -0.3732
   63SAPC  H11A 5002   2.694   5.251   6.398  1.2338 -0.7561 -1.1824
   63SAPC  H11B 5003   2.620   5.385   6.319 -1.1730 -0.7543  1.9230
   63SAPC     P 5004   2.922   5.383   6.490 -0.1608 -0.0696 -0.2526
   63SAPC   O13 5005   2.991   5.279   6.415  0.0021  0.4375 -0.5335
   63SAPC   O14 5006   3.008   5.500   6.522  0.4290  0.0633  0.1488
   63SAPC   O12 5007   2.792   5.436   6.417 -0.0198 -0.0174 -0.0471
   63SAPC   O11 5008   2.868   5.316   6.623  0.9158  0.2881 -0.8341
   63SAPC    C1 5009   2.739   5.359   6.677  0.1328  0.1554 -0.7480
   63SAPC    HA 5010   2.663   5.374   6.598 -1.0934 -0.7013  0.2585
   63SAPC    HB 5011   2.697   5.278   6.739  1.7614  0.1881  0.4332
   63SAPC    C2 5012   2.748   5.489   6.751  0.1938 -0.4394 -0.3883
   63SAPC    HS 5013   2.766   5.570   6.677 -3.0115  0.0821 -0.6851
   63SAPC   O21 5014   2.860   5.495   6.840 -0.1437 -0.5451 -0.9162
   63SAPC   C21 5015   2.934   5.609   6.854  0.0742 -1.3573 -0.4900
   63SAPC   O22 5016   2.908   5.709   6.791  0.3322 -0.0116 -0.0455
   63SAPC   C22 5017   3.057   5.589   6.935 -0.2204  0.3430  0.2069
   63SAPC   H2R 5018   3.048   5.502   7.004  1.7151 -1.0441 -1.2344
   63SAPC   H2S 5019   3.146   5.578   6.869 -0.2074  0.5116  0.1964
   63SAPC    C3 5020   2.617   5.509   6.828 -0.5458 -0.0384 -0.2584
   63SAPC    HX 5021   2.597   5.430   6.904  0.9402 -1.9379 -1.7777
   63SAPC    HY 5022   2.535   5.502   6.754  0.2408  1.3546 -1.2759
   63SAPC   O31 5023   2.611   5.638   6.883 -0.0052 -0.4791 -0.1782
   63SAPC   C31 5024   2.612   5.647   7.014  0.2980  0.0950 -0.8226
   63SAPC   O32 5025   2.630   5.555   7.096 -0.3025 -0.4498  0.2253
   63SAPC   C32 5026   2.619   5.797   7.047  0.5350 -0.0074  1.2780
   63SAPC   H2X 5027   2.517   5.840   7.061  0.7188  0.3563  1.5029
   63SAPC   H2Y 5028   2.663   5.842   6.956  1.2520 -1.6664  0.7787
   63SAPC   C23 5029   3.091   5.716   7.019  0.4347  0.1341 -0.1080
   63SAPC   H3R 5030   3.003   5.736   7.085 -0.4082  0.3745 -1.2882
   63SAPC   H3S 5031   3.113   5.803   6.954  0.0924  1.1574  1.1192
   63SAPC   C24 5032   3.209   5.700   7.117  0.0006  0.1163  0.2898
   63SAPC   H4R 5033   3.298   5.684   7.053 -0.4760  0.0388 -0.3524
   63SAPC   H4S 5034   3.193   5.610   7.180  0.4832 -0.7302 -0.7754
   63SAPC   C25 5035   3.223   5.818   7.210  0.9983  0.4522  0.0671
   63SAPC   H5R 5036   3.265   5.903   7.154  1.0760  1.3353  1.4486
   63SAPC   C26 5037   3.185   5.837   7.339  0.5121 -0.2454  0.5108
   63SAPC   H6R 5038   3.187   5.941   7.374 -2.4026  1.1542 -3.1189
   63SAPC   C27 5039   3.109   5.746   7.433  0.0404 -0.4833  0.2474
   63SAPC   H7R 5040   3.073   5.654   7.382  1.7609 -0.4435 -1.0397
   63SAPC   H7S 5041   3.007   5.786   7.454  0.1465 -0.8915  1.6058
   63SAPC   C28 5042   3.198   5.707   7.552 -0.1500  0.4794 -0.2318
   63SAPC   H8R 5043   3.273   5.632   7.522 -1.4254 -1.1426  0.5560
   63SAPC   C29 5044   3.200   5.754   7.681  0.5417  0.3241 -0.7233
   63SAPC   H9R 5045   3.275   5.715   7.752 -1.2593 -1.2483  0.3864
   63SAPC  C210 5046   3.109   5.867   7.738  0.2953 -0.6159 -0.0086
   63SAPC  H10R 5047   3.075   5.939   7.660  1.0118  0.9753  1.1084
   63SAPC  H10S 5048   3.162   5.936   7.807  0.0960  0.3361 -0.7929
   63SAPC  C211 5049   2.994   5.808   7.810  0.1424 -0.1205  0.0152
   63SAPC  H11R 5050   2.910   5.797   7.740  0.3639  0.0985 -0.2840
   63SAPC  C212 5051   2.974   5.759   7.933 -0.4869 -0.4330  0.9129
   63SAPC  H12R 5052   2.878   5.713   7.962 -0.7365  0.2514  1.1992
   63SAPC  C213 5053   3.076   5.762   8.043  0.1381 -0.3911 -0.1551
   63SAPC  H13R 5054   3.035   5.739   8.144  0.9951  1.0138  0.5295
   63SAPC  H13S 5055   3.104   5.867   8.066  1.9490 -0.5517 -1.5796
   63SAPC  C214 5056   3.193   5.666   8.031  0.2154 -0.4474 -0.1160
   63SAPC  H14R 5057   3.174   5.561   8.004  2.5649 -0.9825  0.1986
   63SAPC  C215 5058   3.319   5.712   8.040 -0.1331  0.3179 -0.2101
   63SAPC  H15R 5059   3.399   5.636   8.050  0.8423  1.6283  2.2617
   63SAPC  C216 5060   3.370   5.853   8.060  0.2083  0.0275 -0.6267
   63SAPC  H16R 5061   3.307   5.928   8.008 -1.5138  0.2238  1.6776
   63SAPC  H16S 5062   3.473   5.857   8.017 -0.2104 -4.6787 -2.4003
   63SAPC  C217 5063   3.393   5.885   8.206  0.3162  0.6928  0.3591
   63SAPC  H17R 5064   3.463   5.811   8.250  1.6432  1.3209 -0.6480
   63SAPC  H17S 5065   3.301   5.879   8.268  0.5933  0.4826  0.7503
   63SAPC  C218 5066   3.452   6.022   8.231  0.2619  0.5221 -0.0269
   63SAPC  H18R 5067   3.557   6.027   8.195 -0.3616  2.6364 -1.6229
   63SAPC  H18S 5068   3.444   6.050   8.338 -0.3461 -1.4142  0.4677
   63SAPC  C219 5069   3.382   6.141   8.153 -0.1885  1.0079 -0.8941
   63SAPC  H19R 5070   3.273   6.134   8.176 -0.2907 -1.0237 -1.8727
   63SAPC  H19S 5071   3.398   6.120   8.045  2.4734  0.4786 -0.4245
   63SAPC  C220 5072   3.415   6.283   8.192 -0.5811 -0.5891 -0.2851
   63SAPC  H20R 5073   3.424   6.343   8.099 -0.6810  0.1939  0.2106
   63SAPC  H20S 5074   3.511   6.290   8.247 -0.1512  0.2524 -1.1396
   63SAPC  H20T 5075   3.333   6.325   8.254  0.1388  1.4713 -0.6909
   63SAPC   C33 5076   2.697   5.824   7.184  0.0390  0.5176 -0.2773
   63SAPC   H3X 5077   2.710   5.934   7.175  1.1778  0.4501  0.5670
   63SAPC   H3Y 5078   2.793   5.770   7.175 -0.9810 -0.9783 -2.6431
   63SAPC   C34 5079   2.619   5.789   7.313  0.2846 -0.0805 -0.8069
   63SAPC   H4X 5080   2.577   5.687   7.298 -0.2271  0.1755 -1.1270
   63SAPC   H4Y 5081   2.536   5.858   7.335  0.3080 -0.0861 -0.6990
   63SAPC   C35 5082   2.715   5.782   7.431  0.1449  0.1358 -0.0310
   63SAPC   H5X 5083   2.808   5.737   7.390  0.6679  0.7700  0.4576
   63SAPC   H5Y 5084   2.677   5.722   7.516  0.0752  1.3875  0.8322
   63SAPC   C36 5085   2.741   5.915   7.489 -0.6640  0.3540  0.2466
   63SAPC   H6X 5086   2.776   5.981   7.406  0.2588  0.0715  0.4171
   63SAPC   H6Y 5087   2.821   5.913   7.565  0.0658  1.1286 -0.4902
   63SAPC   C37 5088   2.622   5.983   7.555  0.7659  0.0975  0.0879
   63SAPC   H7X 5089   2.549   5.905   7.586  1.7765 -0.1972  1.7992
   63SAPC   H7Y 5090   2.572   6.049   7.481  0.8322 -1.0609 -0.9971
   63SAPC   C38 5091   2.668   6.064   7.683  0.4874 -0.0254 -0.0645
   63SAPC   H8X 5092   2.725   6.153   7.648  1.1433  0.0662  1.1873
   63SAPC   H8Y 5093   2.728   5.997   7.748  2.3447  0.0630 -1.6270
   63SAPC   C39 5094   2.549   6.099   7.769 -0.3906 -0.6035 -0.8359
   63SAPC   H9X 5095   2.486   6.014   7.802  0.6051 -1.2716 -0.6429
   63SAPC   H9Y 5096   2.482   6.161   7.705  0.4626  2.5898  1.2227
   63SAPC  C310 5097   2.593   6.186   7.891  0.4023  0.6013 -0.5363
   63SAPC  H10X 5098   2.501   6.226   7.937  0.2159 -0.7181  0.2530
   63SAPC  H10Y 5099   2.652   6.276   7.864  0.7358 -0.0448 -2.0497
   63SAPC  C311 5100   2.667   6.110   7.999  0.0841 -0.0627  0.6830
   63SAPC  H11X 5101   2.755   6.056   7.956  2.4155  3.9648  0.1490
   63SAPC  H11Y 5102   2.601   6.024   8.022  0.5419 -1.6613 -3.5925
   63SAPC  C312 5103   2.700   6.204   8.113  0.1236 -0.5898 -0.6173
   63SAPC  H12X 5104   2.621   6.273   8.152 -0.4261 -2.4500  1.7490
   63SAPC  H12Y 5105   2.778   6.278   8.084  1.9782 -1.6167  1.5786
   63SAPC  C313 5106   2.747   6.128   8.237  1.4114 -0.2349 -0.0366
   63SAPC  H13X 5107   2.756   6.207   8.316  0.1222  1.6921 -1.7756
   63SAPC  H13Y 5108   2.846   6.081   8.218  0.8317 -2.0062  1.2059
   63SAPC  C314 5109   2.661   6.008   8.292  0.9139  0.0770 -0.6591
   63SAPC  H14X 5110   2.637   5.948   8.201 -1.0094 -0.5403  0.2262
   63SAPC  H14Y 5111   2.562   6.044   8.325  1.8833  0.3386  2.0639
   63SAPC  C315 5112   2.722   5.933   8.408 -0.5509 -0.2479 -0.2891
   63SAPC  H15X 5113   2.650   5.852   8.432 -1.1943  0.1467 -0.8774
   63SAPC  H15Y 5114   2.725   6.004   8.494  0.5368  0.5862 -1.0119
   63SAPC  C316 5115   2.862   5.886   8.373 -0.8759  0.3664  0.7238
   63SAPC  H16X 5116   2.926   5.972   8.341 -0.4654 -0.4816 -0.7817
   63SAPC  H16Y 5117   2.869   5.819   8.285 -3.1161  0.1616  0.6754
   63SAPC  C317 5118   2.938   5.816   8.493  0.4999  0.0643  0.3319
   63SAPC  H17X 5119   2.882   5.731   8.539  0.0908  1.8441  3.2420
   63SAPC  H17Y 5120   2.944   5.892   8.574 -1.9505  0.5323  0.1247
   63SAPC  C318 5121   3.078   5.767   8.450  0.0009 -0.1037 -0.1834
   63SAPC  H18X 5122   3.142   5.745   8.538 -0.0523 -1.4330 -0.4698
   63SAPC  H18Y 5123   3.129   5.856   8.408 -0.1209  0.3558  0.6214
   63SAPC  H18Z 5124   3.070   5.671   8.395  0.1443 -0.4143  0.3299
   64SAPC     N 5125   4.789   6.428   5.694 -0.4156 -0.6275  0.2645
   64SAPC   C12 5126   4.865   6.371   5.816  0.0702 -0.0125 -0.0742
   64SAPC  H12A 5127   4.961   6.330   5.788 -0.1070 -0.0263 -0.6731
   64SAPC  H12B 5128   4.804   6.288   5.847  1.4607 -0.4230  1.5595
   64SAPC   C13 5129   4.642   6.419   5.723 -0.1969 -0.5586 -0.4280
   64SAPC  H13A 5130   4.602   6.319   5.731 -0.8528 -0.2385  0.4042
   64SAPC  H13B 5131   4.637   6.458   5.824  0.3107  3.2535 -1.7680
   64SAPC  H13C 5132   4.586   6.488   5.662 -1.1436  0.0465  1.0895
   64SAPC   C14 5133   4.826   6.570   5.667 -0.0555  0.0476 -0.1161
   64SAPC  H14A 5134   4.764   6.615   5.590 -1.1783 -2.0811 -0.5075
   64SAPC  H14B 5135   4.798   6.621   5.758  1.1120 -0.6024  0.6137
   64SAPC  H14C 5136   4.930   6.589   5.647 -0.0693 -0.9049 -1.1161
   64SAPC   C15 5137   4.820   6.343   5.575 -0.6201  0.2092 -0.5122
   64SAPC  H15A 5138   4.925   6.337   5.553  0.4636  5.0471  2.6454
   64SAPC  H15B 5139   4.782   6.244   5.597  0.2916  0.0950  0.5742
   64SAPC  H15C 5140   4.777   6.385   5.486  0.0007  1.3948 -0.2618
   64SAPC   C11 5141   4.872   6.464   5.945  0.3441 -0.8775 -0.1517
   64SAPC  H11A 5142   4.942   6.549   5.929 -0.1808  0.2769  3.2001
   64SAPC  H11B 5143   4.932   6.408   6.020  1.2506  0.0736 -0.1416
   64SAPC     P 5144   4.669   6.425   6.086 -0.1392 -0.1423  0.0202
   64SAPC   O13 5145   4.541   6.492   6.125  0.3592 -0.5452 -0.9390
   64SAPC   O14 5146   4.643   6.300   6.008 -0.1852  0.6462  0.1250
   64SAPC   O12 5147   4.753   6.527   5.992  0.2294  0.4041  0.2579
   64SAPC   O11 5148   4.760   6.408   6.212  0.5155 -0.2888 -0.4738
   64SAPC    C1 5149   4.822   6.522   6.272  0.0580 -0.0663 -1.0952
   64SAPC    HA 5150   4.875   6.582   6.195 -1.1629  1.7064 -0.5996
   64SAPC    HB 5151   4.751   6.584   6.331  0.3250  0.4329 -1.3010
   64SAPC    C2 5152   4.923   6.483   6.382 -0.0466 -0.2507 -0.2544
   64SAPC    HS 5153   5.011   6.437   6.332  1.6554  1.9258  0.6456
   64SAPC   O21 5154   4.857   6.393   6.473  0.2214  0.0364 -0.2863
   64SAPC   C21 5155   4.926   6.290   6.518 -0.6097 -0.4120 -0.8186
   64SAPC   O22 5156   5.044   6.268   6.495 -0.0049  0.4985  0.2452
   64SAPC   C22 5157   4.851   6.211   6.624  0.2478 -0.1742  0.2991
   64SAPC   H2R 5158   4.840   6.277   6.713  2.0801  1.0283 -0.3587
   64SAPC   H2S 5159   4.751   6.199   6.578 -0.7741  1.8006  1.9028
   64SAPC    C3 5160   4.983   6.616   6.449 -0.3231 -0.5208 -0.5593
   64SAPC    HX 5161   5.030   6.677   6.369 -1.5978 -0.5249 -1.3361
   64SAPC    HY 5162   5.062   6.586   6.522 -1.0472 -0.6230  0.1826
   64SAPC   O31 5163   4.875   6.688   6.519  0.3551 -0.2718 -0.2153
   64SAPC   C31 5164   4.838   6.655   6.639  0.2994 -0.0353  0.2312
   64SAPC   O32 5165   4.909   6.596   6.722  0.6727 -0.2412 -0.0668
   64SAPC   C32 5166   4.700   6.707   6.669  0.4383  0.1756  0.0064
   64SAPC   H2X 5167   4.648   6.634   6.602 -0.4589 -0.9092  1.8435
   64SAPC   H2Y 5168   4.691   6.812   6.634 -0.6135  0.3006  0.6366
   64SAPC   C23 5169   4.904   6.072   6.676 -0.0023 -0.7381 -0.1532
   64SAPC   H3R 5170   4.987   6.095   6.746 -0.3135 -1.1240  0.3415
   64SAPC   H3S 5171   4.943   6.010   6.592 -1.6724 -0.3197 -1.2538
   64SAPC   C24 5172   4.802   5.983   6.755 -0.3075  0.0073 -0.2386
   64SAPC   H4R 5173   4.702   5.984   6.706 -0.9176  1.2724  0.9867
   64SAPC   H4S 5174   4.780   6.035   6.850 -3.1924  1.4795 -1.6495
   64SAPC   C25 5175   4.848   5.839   6.769  0.1954  0.2352  0.2910
   64SAPC   H5R 5176   4.877   5.791   6.675 -0.6832  0.3628 -0.0440
   64SAPC   C26 5177   4.850   5.761   6.878 -0.1126 -0.1165  0.1720
   64SAPC   H6R 5178   4.887   5.658   6.871 -0.2961 -0.1148 -0.9959
   64SAPC   C27 5179   4.808   5.799   7.017 -0.2765 -0.0542 -0.7289
   64SAPC   H7R 5180   4.765   5.710   7.068 -0.4725  0.5897  0.2255
   64SAPC   H7S 5181   4.721   5.868   7.008 -0.7984 -0.6009  0.0532
   64SAPC   C28 5182   4.909   5.861   7.110  0.8441  0.1819 -0.3519
   64SAPC   H8R 5183   4.987   5.918   7.058  1.2753 -0.6257 -0.6066
   64SAPC   C29 5184   4.919   5.864   7.244 -0.6586 -0.0562  0.4865
   64SAPC   H9R 5185   5.007   5.920   7.280  0.3742  1.0064 -3.3902
   64SAPC  C210 5186   4.829   5.801   7.345 -0.3671  0.4414 -0.0127
   64SAPC  H10R 5187   4.892   5.771   7.432  0.6193  0.6432 -0.6403
   64SAPC  H10S 5188   4.801   5.697   7.320  0.0279  0.1974  0.5515
   64SAPC  C211 5189   4.711   5.888   7.393 -0.6285 -0.2570 -0.0293
   64SAPC  H11R 5190   4.668   5.955   7.317  1.4624 -0.5005 -1.4602
   64SAPC  C212 5191   4.660   5.900   7.517 -0.0189  0.1958 -0.5221
   64SAPC  H12R 5192   4.567   5.956   7.533 -0.2099  0.5808 -2.8768
   64SAPC  C213 5193   4.707   5.819   7.640  0.2124  0.1067 -0.0597
   64SAPC  H13R 5194   4.759   5.724   7.613  1.5050  1.2377 -1.6352
   64SAPC  H13S 5195   4.626   5.766   7.695 -0.7561  1.8310  0.2148
   64SAPC  C214 5196   4.791   5.906   7.730 -0.2886  0.4863  0.5484
   64SAPC  H14R 5197   4.889   5.933   7.687 -0.3071  1.2633  0.9771
   64SAPC  C215 5198   4.762   5.951   7.855 -0.3212 -0.1000  0.3605
   64SAPC  H15R 5199   4.825   6.025   7.906  0.3533  0.7167 -1.5958
   64SAPC  C216 5200   4.642   5.916   7.933 -0.6002 -0.2908  0.2256
   64SAPC  H16R 5201   4.576   5.845   7.879 -1.1437  0.0533  0.4317
   64SAPC  H16S 5202   4.582   6.010   7.924  0.4825  0.3187 -0.8405
   64SAPC  C217 5203   4.651   5.893   8.084 -0.5931  0.8447  0.1417
   64SAPC  H17R 5204   4.548   5.899   8.124 -0.6189  0.6100  0.1071
   64SAPC  H17S 5205   4.714   5.969   8.136 -0.7399 -0.6822  2.6373
   64SAPC  C218 5206   4.715   5.756   8.118 -0.0658 -0.1575  0.9728
   64SAPC  H18R 5207   4.810   5.748   8.061  0.3015 -1.3036  1.7366
   64SAPC  H18S 5208   4.637   5.686   8.083 -0.9400  0.4934  1.6152
   64SAPC  C219 5209   4.753   5.740   8.265  0.1436 -1.3557 -0.3323
   64SAPC  H19R 5210   4.664   5.759   8.329 -0.4575 -0.5022 -1.3907
   64SAPC  H19S 5211   4.823   5.824   8.286  0.3270 -0.8002 -2.8924
   64SAPC  C220 5212   4.811   5.601   8.306 -0.9653 -0.9023 -0.0413
   64SAPC  H20R 5213   4.726   5.532   8.289 -0.9493 -0.7820 -0.6358
   64SAPC  H20S 5214   4.834   5.590   8.414 -0.4564  0.7456  0.0384
   64SAPC  H20T 5215   4.907   5.574   8.256  0.2226  0.0626  1.6763
   64SAPC   C33 5216   4.669   6.687   6.820  0.2040  0.4729  0.2084
   64SAPC   H3X 5217   4.731   6.756   6.881  1.2855  0.2276 -0.5921
   64SAPC   H3Y 5218   4.701   6.585   6.849 -0.0899 -0.1003 -1.4418
   64SAPC   C34 5219   4.523   6.706   6.850 -0.0623 -0.6457  0.7171
   64SAPC   H4X 5220   4.463   6.642   6.782  1.5040 -1.1021 -0.2546
   64SAPC   H4Y 5221   4.499   6.813   6.834 -2.0642 -0.8424  2.2427
   64SAPC   C35 5222   4.504   6.687   7.008  0.1196 -0.0991  0.0688
   64SAPC   H5X 5223   4.581   6.617   7.047 -0.9132 -1.1557  0.2138
   64SAPC   H5Y 5224   4.403   6.646   7.027 -0.4029  1.2237  0.2160
   64SAPC   C36 5225   4.513   6.824   7.076  0.0143  0.1656  0.5260
   64SAPC   H6X 5226   4.434   6.890   7.033 -0.2096 -1.1382 -1.1146
   64SAPC   H6Y 5227   4.612   6.871   7.059 -0.3386  0.3088 -1.1967
   64SAPC   C37 5228   4.489   6.800   7.222  0.5677  0.6642 -0.3972
   64SAPC   H7X 5229   4.567   6.761   7.292  2.0006 -0.6043 -2.6341
   64SAPC   H7Y 5230   4.407   6.726   7.233  1.4780 -0.3274 -0.1926
   64SAPC   C38 5231   4.473   6.937   7.296  0.1775  0.7875 -0.6635
   64SAPC   H8X 5232   4.390   6.994   7.249 -0.5133  0.4922  0.2077
   64SAPC   H8Y 5233   4.565   6.991   7.264  2.5252 -1.1659  2.4566
   64SAPC   C39 5234   4.469   6.936   7.449  0.6164  0.3304 -0.0745
   64SAPC   H9X 5235   4.564   6.899   7.493  0.0831  1.0822  1.7390
   64SAPC   H9Y 5236   4.401   6.851   7.474  0.2904 -0.2255 -2.6950
   64SAPC  C310 5237   4.439   7.077   7.487  0.7115 -0.6269  0.2375
   64SAPC  H10X 5238   4.343   7.092   7.434 -0.3354 -3.1349  1.3260
   64SAPC  H10Y 5239   4.506   7.158   7.450  0.2046 -1.4587 -2.5501
   64SAPC  C311 5240   4.398   7.101   7.634 -0.1424  0.5164  0.7580
   64SAPC  H11X 5241   4.483   7.083   7.703 -0.3683  1.5679  1.3166
   64SAPC  H11Y 5242   4.310   7.040   7.660  0.2270 -0.0011  0.7985
   64SAPC  C312 5243   4.372   7.253   7.658  0.2061 -0.1803  0.4632
   64SAPC  H12X 5244   4.279   7.263   7.598 -0.1640 -0.7475  0.9326
   64SAPC  H12Y 5245   4.455   7.316   7.619 -0.3878  1.3041  1.5399
   64SAPC  C313 5246   4.350   7.292   7.801  0.0380  0.0582 -0.5899
   64SAPC  H13X 5247   4.446   7.292   7.857 -0.4775 -3.4396  0.4185
   64SAPC  H13Y 5248   4.283   7.216   7.846  1.6870 -2.0946 -1.6418
   64SAPC  C314 5249   4.288   7.431   7.798  0.6268 -0.0381  0.7200
   64SAPC  H14X 5250   4.203   7.449   7.728  0.4662  1.3085  1.2339
   64SAPC  H14Y 5251   4.356   7.511   7.763 -0.6859  0.6793 -0.2643
   64SAPC  C315 5252   4.214   7.464   7.926 -0.1558 -0.3887 -0.5610
   64SAPC  H15X 5253   4.283   7.460   8.012 -0.8380 -1.1299 -0.0429
   64SAPC  H15Y 5254   4.143   7.380   7.939 -0.5599 -0.2567 -1.8076
   64SAPC  C316 5255   4.143   7.604   7.919  1.1347  0.0895 -0.2524
   64SAPC  H16X 5256   4.067   7.610   7.838 -0.1687 -1.4376  0.8209
   64SAPC  H16Y 5257   4.220   7.681   7.895  2.8794 -1.3964  0.4341
   64SAPC  C317 5258   4.068   7.637   8.052  0.5564  0.3915  0.5438
   64SAPC  H17X 5259   4.146   7.642   8.131  1.0209 -1.8372  0.2810
   64SAPC  H17Y 5260   3.988   7.564   8.079  1.2185  0.0558  1.6165
   64SAPC  C318 5261   3.991   7.768   8.038  0.0768 -0.2506 -0.2005
   64SAPC  H18X 5262   3.930   7.793   8.128  0.3662 -1.3829  0.3137
   64SAPC  H18Y 5263   3.922   7.766   7.951 -0.9880  0.8688  0.5970
   64SAPC  H18Z 5264   4.056   7.858   8.038 -1.8804  1.2191  0.4992
   65SAPC     N 5265   5.245   2.240   5.918 -0.3331 -0.1134 -0.5323
   65SAPC   C12 5266   5.198   2.234   6.065  0.0441 -0.5566 -0.3169
   65SAPC  H12A 5267   5.091   2.245   6.063 -0.0646 -1.6440 -1.5294
   65SAPC  H12B 5268   5.239   2.321   6.115 -2.8516  1.9513 -2.1441
   65SAPC   C13 5269   5.192   2.360   5.846 -0.2035 -0.6404 -0.1361
   65SAPC  H13A 5270   5.243   2.382   5.754 -0.3842 -1.6213 -0.4810
   65SAPC  H13B 5271   5.087   2.352   5.821 -1.0702 -1.3068  3.3399
   65SAPC  H13C 5272   5.192   2.446   5.911  2.0143 -1.0121  0.3972
   65SAPC   C14 5273   5.398   2.253   5.918 -0.1305  0.1872  0.1016
   65SAPC  H14A 5274   5.443   2.175   5.977  0.0049  0.2196  0.0439
   65SAPC  H14B 5275   5.452   2.247   5.824  0.0131  0.6812  0.1499
   65SAPC  H14C 5276   5.436   2.340   5.970  2.0154  0.1001 -1.2306
   65SAPC   C15 5277   5.207   2.113   5.843 -0.3768 -0.6349 -1.4278
   65SAPC  H15A 5278   5.099   2.116   5.846 -0.3922 -1.8724  0.4629
   65SAPC  H15B 5279   5.235   2.118   5.739  1.9327  1.7826 -0.7487
   65SAPC  H15C 5280   5.249   2.023   5.886  1.4176  1.1254  0.5815
   65SAPC   C11 5281   5.235   2.107   6.144 -0.3461 -0.4616 -0.4178
   65SAPC  H11A 5282   5.167   2.031   6.099  0.1552 -1.3439  0.3112
   65SAPC  H11B 5283   5.195   2.123   6.246 -0.8585 -1.4677 -0.4564
   65SAPC     P 5284   5.413   1.910   6.110 -0.0876 -0.3806 -0.4122
   65SAPC   O13 5285   5.344   1.865   5.989 -0.0920 -0.1100 -0.3729
   65SAPC   O14 5286   5.560   1.894   6.113  0.1931  0.0424 -0.5602
   65SAPC   O12 5287   5.371   2.063   6.142  0.1621 -0.1223 -0.1111
   65SAPC   O11 5288   5.350   1.838   6.229  0.2651 -0.7011 -0.2375
   65SAPC    C1 5289   5.353   1.877   6.363 -0.1186  0.0768 -0.0545
   65SAPC    HA 5290   5.429   1.956   6.380  0.7756 -0.5686 -1.0036
   65SAPC    HB 5291   5.255   1.928   6.381  0.5810  1.6683 -0.6552
   65SAPC    C2 5292   5.367   1.760   6.469  0.5755 -0.0927  0.0286
   65SAPC    HS 5293   5.266   1.730   6.502  0.1839  1.2246  0.0803
   65SAPC   O21 5294   5.444   1.811   6.581  0.4832  0.5227 -0.2977
   65SAPC   C21 5295   5.389   1.904   6.647  0.4954 -0.0642 -0.8639
   65SAPC   O22 5296   5.278   1.953   6.637 -0.2084  0.3170  0.4558
   65SAPC   C22 5297   5.468   1.930   6.767 -0.4066  0.1117 -0.4069
   65SAPC   H2R 5298   5.557   1.987   6.734 -1.9163  1.8303 -1.6334
   65SAPC   H2S 5299   5.423   2.003   6.839 -1.6381 -0.8842 -0.1573
   65SAPC    C3 5300   5.441   1.641   6.406 -0.2466 -0.5977  0.5383
   65SAPC    HX 5301   5.532   1.688   6.364 -0.2539  0.9592  2.2209
   65SAPC    HY 5302   5.389   1.595   6.319  0.8227 -1.0163  0.1159
   65SAPC   O31 5303   5.496   1.545   6.498 -0.2353  0.5941 -0.0616
   65SAPC   C31 5304   5.421   1.436   6.528  0.0604  0.6097  0.9135
   65SAPC   O32 5305   5.306   1.424   6.493 -0.7370  0.3726 -0.1434
   65SAPC   C32 5306   5.503   1.334   6.606  0.9949  0.1024 -0.8845
   65SAPC   H2X 5307   5.558   1.394   6.681  2.0507 -0.9021 -0.8553
   65SAPC   H2Y 5308   5.583   1.291   6.543  2.7205  1.6278  0.2003
   65SAPC   C23 5309   5.517   1.805   6.850 -0.3711 -0.3104  0.7426
   65SAPC   H3R 5310   5.541   1.842   6.952 -2.8057 -1.0204  1.6075
   65SAPC   H3S 5311   5.603   1.752   6.804 -1.3988 -4.4263  3.3602
   65SAPC   C24 5312   5.416   1.690   6.862 -0.2272 -0.2747  0.2490
   65SAPC   H4R 5313   5.470   1.606   6.910  2.4400  0.3005 -1.6734
   65SAPC   H4S 5314   5.394   1.658   6.758  0.6146  0.5254 -0.1735
   65SAPC   C25 5315   5.283   1.724   6.924  0.4299 -0.0527  0.3697
   65SAPC   H5R 5316   5.197   1.752   6.861  0.8050  1.5552  0.5447
   65SAPC   C26 5317   5.247   1.728   7.050 -0.1552  0.4146 -0.5442
   65SAPC   H6R 5318   5.142   1.744   7.076 -0.3274 -0.3087 -0.7970
   65SAPC   C27 5319   5.327   1.689   7.173  0.2416  0.3285 -0.1509
   65SAPC   H7R 5320   5.405   1.619   7.137 -1.5424 -1.8373  0.0730
   65SAPC   H7S 5321   5.259   1.633   7.241 -1.7797  0.5127 -1.9941
   65SAPC   C28 5322   5.394   1.810   7.230 -1.3467  0.2922 -0.7248
   65SAPC   H8R 5323   5.428   1.881   7.153 -0.2493  1.5658  0.9206
   65SAPC   C29 5324   5.419   1.836   7.359 -0.6817  0.6454 -0.1265
   65SAPC   H9R 5325   5.493   1.917   7.373  1.4922 -1.0012 -1.7263
   65SAPC  C210 5326   5.391   1.751   7.482 -0.4962 -0.0205  0.1049
   65SAPC  H10R 5327   5.464   1.668   7.489 -2.1135 -1.5916 -1.4125
   65SAPC  H10S 5328   5.294   1.701   7.465  0.0177 -1.8096  2.2147
   65SAPC  C211 5329   5.391   1.825   7.614  0.1856  0.1835  0.0457
   65SAPC  H11R 5330   5.430   1.927   7.623 -0.5386  0.5668 -0.9468
   65SAPC  C212 5331   5.351   1.771   7.733  0.4714  0.7927 -0.1756
   65SAPC  H12R 5332   5.352   1.831   7.825 -0.1093  0.8589 -0.2131
   65SAPC  C213 5333   5.299   1.630   7.758  0.0561 -0.1371  0.0642
   65SAPC  H13R 5334   5.333   1.557   7.680  0.6423 -0.2804  0.4509
   65SAPC  H13S 5335   5.188   1.627   7.751 -0.0938  1.6140  1.5718
   65SAPC  C214 5336   5.347   1.581   7.893  0.7495  0.0693 -0.3035
   65SAPC  H14R 5337   5.441   1.525   7.902  0.5697 -0.1841  0.0495
   65SAPC  C215 5338   5.281   1.609   8.003  0.7851 -0.9879 -0.4177
   65SAPC  H15R 5339   5.326   1.558   8.089 -1.3335 -1.8784  0.2059
   65SAPC  C216 5340   5.146   1.686   8.017  0.3660  0.4712 -0.1364
   65SAPC  H16R 5341   5.144   1.761   7.935 -0.2170  0.4079 -0.1790
   65SAPC  H16S 5342   5.151   1.738   8.116 -2.2182 -3.6492  2.3103
   65SAPC  C217 5343   5.027   1.590   8.005 -0.1596 -0.0951  0.0598
   65SAPC  H17R 5344   5.052   1.512   7.931 -2.1567  0.2267 -0.9766
   65SAPC  H17S 5345   4.934   1.643   7.977 -1.3096 -2.0006  0.2148
   65SAPC  C218 5346   4.995   1.497   8.131 -0.2348 -0.2383  0.7135
   65SAPC  H18R 5347   5.086   1.434   8.140  0.1759 -0.0430 -1.7963
   65SAPC  H18S 5348   4.898   1.443   8.120  0.7330 -1.2042 -4.0368
   65SAPC  C219 5349   4.982   1.576   8.263  0.3184  0.0077 -0.2421
   65SAPC  H19R 5350   4.944   1.678   8.241 -2.4218 -0.9624 -0.1742
   65SAPC  H19S 5351   5.086   1.592   8.298  1.4474 -2.3526 -2.3786
   65SAPC  C220 5352   4.903   1.507   8.369 -0.5506 -0.0611  0.2483
   65SAPC  H20R 5353   4.959   1.416   8.401 -0.5249  0.3211  1.2880
   65SAPC  H20S 5354   4.799   1.488   8.336 -0.1401  3.5661 -3.5431
   65SAPC  H20T 5355   4.904   1.571   8.459  0.5162 -1.5501  1.3281
   65SAPC   C33 5356   5.413   1.231   6.674  0.3813 -0.4407  0.5040
   65SAPC   H3X 5357   5.485   1.166   6.728  2.0671  1.0767  0.1325
   65SAPC   H3Y 5358   5.356   1.165   6.605 -0.0141 -0.8763  1.2354
   65SAPC   C34 5359   5.315   1.284   6.787  0.0942  0.4334  0.1060
   65SAPC   H4X 5360   5.229   1.336   6.741 -0.2550  0.3632  0.6784
   65SAPC   H4Y 5361   5.365   1.357   6.854  2.3126 -0.0294 -0.9767
   65SAPC   C35 5362   5.266   1.166   6.878  0.5693 -0.2091 -1.0528
   65SAPC   H5X 5363   5.347   1.115   6.934 -0.9962 -3.6796 -1.8534
   65SAPC   H5Y 5364   5.222   1.089   6.811  0.5344  0.3420 -1.6670
   65SAPC   C36 5365   5.152   1.208   6.980 -0.2599  0.6173 -0.1563
   65SAPC   H6X 5366   5.059   1.152   6.955  0.8185 -0.7338 -1.2078
   65SAPC   H6Y 5367   5.140   1.317   6.963 -1.5194  0.2638 -1.7080
   65SAPC   C37 5368   5.180   1.189   7.133 -0.1642 -0.9870 -0.0191
   65SAPC   H7X 5369   5.085   1.193   7.191  1.6547 -0.6465  3.0355
   65SAPC   H7Y 5370   5.244   1.271   7.172  1.1892  0.6312 -5.1781
   65SAPC   C38 5371   5.226   1.046   7.161 -0.2937  0.1911 -0.6694
   65SAPC   H8X 5372   5.331   1.016   7.140  0.4347  0.9718  1.6737
   65SAPC   H8Y 5373   5.167   0.985   7.090 -0.7356  1.1381 -1.1251
   65SAPC   C39 5374   5.193   0.993   7.306  0.3651 -0.0619  0.2952
   65SAPC   H9X 5375   5.170   0.884   7.304 -0.1891  0.0653 -0.3596
   65SAPC   H9Y 5376   5.103   1.042   7.348  1.4452  0.4817  1.9995
   65SAPC  C310 5377   5.323   1.009   7.396 -0.6681  0.0811 -0.3654
   65SAPC  H10X 5378   5.393   1.085   7.354 -1.5394  1.0572 -0.0606
   65SAPC  H10Y 5379   5.380   0.915   7.383  1.4081  1.0322  1.5025
   65SAPC  C311 5380   5.295   1.026   7.548  0.2258 -0.2790  0.7538
   65SAPC  H11X 5381   5.392   1.028   7.602 -0.1105 -1.6547  1.4488
   65SAPC  H11Y 5382   5.239   0.932   7.568  0.0796 -1.1139 -3.1496
   65SAPC  C312 5383   5.208   1.149   7.580 -0.4008  0.1025  0.1286
   65SAPC  H12X 5384   5.099   1.135   7.570  0.0743 -3.0804 -1.3290
   65SAPC  H12Y 5385   5.240   1.233   7.514 -0.7869  0.1674  0.0266
   65SAPC  C313 5386   5.236   1.196   7.722  0.2174  0.3539  0.3921
   65SAPC  H13X 5387   5.188   1.295   7.737  1.5247  0.9643  0.5429
   65SAPC  H13Y 5388   5.344   1.218   7.731 -0.5580  3.8593  2.1238
   65SAPC  C314 5389   5.188   1.093   7.820 -0.0259 -0.8818 -0.6607
   65SAPC  H14X 5390   5.275   1.028   7.843 -0.2837 -1.9431 -2.5693
   65SAPC  H14Y 5391   5.106   1.039   7.768 -2.3816  1.5840  0.3281
   65SAPC  C315 5392   5.123   1.158   7.938 -0.3210  0.3581 -0.4672
   65SAPC  H15X 5393   5.062   1.246   7.908 -0.3286  0.1883 -0.9535
   65SAPC  H15Y 5394   5.196   1.203   8.008  1.0089 -0.0584 -1.5531
   65SAPC  C316 5395   5.043   1.057   8.024 -0.1386  0.0322 -0.2483
   65SAPC  H16X 5396   5.091   0.957   8.034 -0.3464 -0.3161 -2.4919
   65SAPC  H16Y 5397   4.949   1.028   7.973 -0.1360 -1.7535  0.7240
   65SAPC  C317 5398   5.024   1.086   8.168  0.2204 -0.3028  0.3239
   65SAPC  H17X 5399   4.989   1.190   8.183 -1.6541 -0.5263 -2.0059
   65SAPC  H17Y 5400   5.128   1.082   8.207  0.8262 -1.4807 -1.3412
   65SAPC  C318 5401   4.934   0.983   8.243 -0.4093 -0.0939 -0.3235
   65SAPC  H18X 5402   4.934   1.014   8.349  2.9792  0.1009 -0.3177
   65SAPC  H18Y 5403   4.974   0.880   8.228  0.1426  0.5843 -4.1528
   65SAPC  H18Z 5404   4.834   0.976   8.197 -0.2905 -1.9406 -0.3544
   66SAPC     N 5405   2.725   0.590   5.779 -0.0985 -1.5633  0.4988
   66SAPC   C12 5406   2.716   0.620   5.929  0.2847 -0.2239  0.5041
   66SAPC  H12A 5407   2.677   0.718   5.952 -0.8731 -0.3331 -0.9247
   66SAPC  H12B 5408   2.817   0.636   5.964 -0.0789  0.1817  1.3863
   66SAPC   C13 5409   2.585   0.591   5.717  0.0059  0.5265 -0.0490
   66SAPC  H13A 5410   2.521   0.522   5.771  0.1684  0.7802  0.4647
   66SAPC  H13B 5411   2.537   0.687   5.720 -0.1915  0.5290 -2.3658
   66SAPC  H13C 5412   2.584   0.572   5.611  2.4522 -2.9972  0.4575
   66SAPC   C14 5413   2.802   0.706   5.719  0.0163  0.0615 -0.2998
   66SAPC  H14A 5414   2.821   0.688   5.614  1.8693 -0.5039  0.1252
   66SAPC  H14B 5415   2.744   0.797   5.720  0.9771  0.6666  0.6782
   66SAPC  H14C 5416   2.899   0.717   5.765  0.7488 -2.4745 -1.1302
   66SAPC   C15 5417   2.788   0.463   5.743 -0.1000  0.1401 -0.6109
   66SAPC  H15A 5418   2.732   0.379   5.780 -0.0952  1.5377  2.7610
   66SAPC  H15B 5419   2.807   0.438   5.639 -2.0303 -3.5998 -0.1286
   66SAPC  H15C 5420   2.886   0.450   5.788 -0.5536  0.3373  0.4515
   66SAPC   C11 5421   2.653   0.512   6.025  0.0777  0.1398  0.0679
   66SAPC  H11A 5422   2.552   0.489   5.984  0.4224 -1.5444  0.1253
   66SAPC  H11B 5423   2.649   0.560   6.126  2.5380 -1.5631  1.0088
   66SAPC     P 5424   2.714   0.263   6.070 -0.2711 -0.1912  0.0318
   66SAPC   O13 5425   2.646   0.187   5.961 -0.3912  0.4636 -0.7892
   66SAPC   O14 5426   2.846   0.214   6.117  0.3933  0.2575 -0.1128
   66SAPC   O12 5427   2.736   0.401   6.019  0.0313 -0.5264 -0.2860
   66SAPC   O11 5428   2.607   0.268   6.190 -0.3347  0.3241  0.0613
   66SAPC    C1 5429   2.469   0.256   6.165 -0.4527  0.4491  0.1337
   66SAPC    HA 5430   2.434   0.332   6.092 -0.1903  1.1584  0.7360
   66SAPC    HB 5431   2.437   0.163   6.113 -3.3336  1.2691  0.3517
   66SAPC    C2 5432   2.382   0.278   6.287 -0.2389 -0.0875  1.0283
   66SAPC    HS 5433   2.275   0.290   6.259  0.1738  0.2803 -0.4781
   66SAPC   O21 5434   2.431   0.387   6.362 -0.1882  0.3585  0.1780
   66SAPC   C21 5435   2.429   0.513   6.300 -0.6872  0.1087 -0.6373
   66SAPC   O22 5436   2.387   0.538   6.190 -0.4082 -0.3028 -0.3740
   66SAPC   C22 5437   2.487   0.620   6.392  0.0183 -0.0876 -0.4170
   66SAPC   H2R 5438   2.576   0.669   6.347  0.3576  0.8652  1.2475
   66SAPC   H2S 5439   2.413   0.703   6.398  2.0794  1.6986  1.2170
   66SAPC    C3 5440   2.385   0.155   6.386  0.0856 -1.0824  0.0466
   66SAPC    HX 5441   2.491   0.125   6.378 -0.1092 -1.4318 -1.2851
   66SAPC    HY 5442   2.329   0.068   6.345 -0.0549 -1.2033  0.4851
   66SAPC   O31 5443   2.314   0.180   6.511  0.6429 -0.0178 -0.1871
   66SAPC   C31 5444   2.391   0.179   6.615 -0.6068  0.8079 -1.3761
   66SAPC   O32 5445   2.513   0.166   6.619 -0.1381  0.3887  0.5401
   66SAPC   C32 5446   2.303   0.206   6.742 -0.4675 -0.4089 -0.2848
   66SAPC   H2X 5447   2.235   0.118   6.739  0.7636 -1.3513 -1.3952
   66SAPC   H2Y 5448   2.254   0.302   6.717 -0.3858 -0.5083 -0.8471
   66SAPC   C23 5449   2.532   0.576   6.531 -0.2085 -0.6724 -0.2431
   66SAPC   H3R 5450   2.623   0.516   6.511  0.8970  0.7677  0.4068
   66SAPC   H3S 5451   2.450   0.516   6.576 -0.2666  0.5825  1.3735
   66SAPC   C24 5452   2.565   0.687   6.636  0.0272  0.6047  0.6519
   66SAPC   H4R 5453   2.652   0.739   6.588  0.0211  0.5074  0.5360
   66SAPC   H4S 5454   2.603   0.634   6.726  0.2836 -1.7854 -0.8316
   66SAPC   C25 5455   2.451   0.780   6.669 -0.3418  0.1515  0.6107
   66SAPC   H5R 5456   2.399   0.827   6.584  1.2932  3.3079  1.2766
   66SAPC   C26 5457   2.406   0.806   6.796  0.0952 -0.1806  0.3584
   66SAPC   H6R 5458   2.318   0.872   6.799  1.9647  2.3239  1.5487
   66SAPC   C27 5459   2.466   0.757   6.930 -0.3905  0.2539  0.5019
   66SAPC   H7R 5460   2.465   0.841   7.003 -1.5529  0.6753  0.0118
   66SAPC   H7S 5461   2.576   0.753   6.922 -0.3977  1.9229 -0.7595
   66SAPC   C28 5462   2.421   0.614   6.979  0.0719 -0.7329 -0.1730
   66SAPC   H8R 5463   2.378   0.547   6.902 -0.0310  0.6190 -1.3072
   66SAPC   C29 5464   2.418   0.571   7.110  0.1807  0.0744  0.3337
   66SAPC   H9R 5465   2.384   0.469   7.131  0.7374  0.2290  2.0174
   66SAPC  C210 5466   2.455   0.644   7.232  0.3264  0.5193  0.4389
   66SAPC  H10R 5467   2.541   0.710   7.205  0.8084 -0.3208 -0.0986
   66SAPC  H10S 5468   2.496   0.571   7.306 -0.3349 -1.4132 -1.0600
   66SAPC  C211 5469   2.344   0.725   7.290  0.7892 -0.0724  0.1476
   66SAPC  H11R 5470   2.269   0.766   7.220  0.0120 -2.0501 -0.1939
   66SAPC  C212 5471   2.348   0.775   7.417  1.1449  0.2031 -0.1292
   66SAPC  H12R 5472   2.264   0.840   7.449  1.4864  1.6031 -1.9983
   66SAPC  C213 5473   2.460   0.750   7.522 -0.1934  0.3222  0.4438
   66SAPC  H13R 5474   2.490   0.841   7.579  3.3026 -1.9571  2.3886
   66SAPC  H13S 5475   2.560   0.727   7.479 -0.2663  0.8763 -0.0405
   66SAPC  C214 5476   2.418   0.637   7.618  0.2427 -0.6029  0.4275
   66SAPC  H14R 5477   2.344   0.565   7.580  0.0617 -1.3648  2.1866
   66SAPC  C215 5478   2.456   0.615   7.741 -0.4870 -0.9765  0.2356
   66SAPC  H15R 5479   2.417   0.523   7.788 -3.5708 -0.2187 -0.6733
   66SAPC  C216 5480   2.562   0.689   7.823  0.1326  0.6028 -0.3225
   66SAPC  H16R 5481   2.517   0.736   7.914  0.9578 -2.3935  1.7003
   66SAPC  H16S 5482   2.604   0.763   7.751 -2.7041  1.4016 -1.1897
   66SAPC  C217 5483   2.675   0.602   7.881  0.0757 -0.2389  0.7879
   66SAPC  H17R 5484   2.763   0.665   7.905 -0.2393  0.3090  0.5079
   66SAPC  H17S 5485   2.707   0.538   7.797 -1.5699  1.5228 -1.2297
   66SAPC  C218 5486   2.634   0.520   8.001 -0.2273  0.9662  0.0880
   66SAPC  H18R 5487   2.547   0.456   7.975 -0.4379  1.5776 -0.7051
   66SAPC  H18S 5488   2.603   0.593   8.079  0.4363 -2.4376  3.6892
   66SAPC  C219 5489   2.742   0.421   8.056  0.1540 -0.2351 -0.4645
   66SAPC  H19R 5490   2.721   0.406   8.164 -0.2173 -2.5806 -0.8306
   66SAPC  H19S 5491   2.847   0.458   8.054  0.2386 -0.4290  0.1350
   66SAPC  C220 5492   2.745   0.290   7.990  0.4613 -0.0143 -0.0747
   66SAPC  H20R 5493   2.646   0.243   8.010 -0.3053  0.8478 -1.7452
   66SAPC  H20S 5494   2.821   0.217   8.026  0.0536  0.0429  0.9123
   66SAPC  H20T 5495   2.758   0.296   7.879  0.9794 -0.8564 -0.0693
   66SAPC   C33 5496   2.397   0.215   6.865  0.5833  0.6350 -0.5861
   66SAPC   H3X 5497   2.451   0.312   6.871 -1.7171  1.7997  2.3403
   66SAPC   H3Y 5498   2.472   0.134   6.872  1.3157  1.4650  1.7883
   66SAPC   C34 5499   2.304   0.217   6.990 -0.0358  0.5018 -0.8686
   66SAPC   H4X 5500   2.228   0.137   6.978  1.8420 -1.4898  0.4447
   66SAPC   H4Y 5501   2.247   0.313   7.000  2.6061  1.9839  0.5210
   66SAPC   C35 5502   2.371   0.183   7.116 -0.1897  0.1042  0.4528
   66SAPC   H5X 5503   2.463   0.243   7.128 -0.4535  0.8994 -1.2369
   66SAPC   H5Y 5504   2.413   0.080   7.114  0.4394  0.3426  1.3276
   66SAPC   C36 5505   2.289   0.211   7.238 -0.0711 -0.3893  0.5438
   66SAPC   H6X 5506   2.214   0.130   7.246 -2.2785  1.5809  0.4231
   66SAPC   H6Y 5507   2.225   0.300   7.218  0.8049  0.1544  0.1359
   66SAPC   C37 5508   2.356   0.240   7.371 -0.2813  0.0181  0.4920
   66SAPC   H7X 5509   2.383   0.347   7.382  1.5535 -0.5596  1.8316
   66SAPC   H7Y 5510   2.459   0.197   7.363 -0.8689 -0.8108 -4.0799
   66SAPC   C38 5511   2.283   0.203   7.498  0.5220 -0.4589  1.0551
   66SAPC   H8X 5512   2.279   0.093   7.514  1.2247 -0.4046  1.6412
   66SAPC   H8Y 5513   2.178   0.240   7.495 -0.4787 -3.2169 -0.1480
   66SAPC   C39 5514   2.359   0.246   7.619  0.6104 -0.0289  0.1026
   66SAPC   H9X 5515   2.365   0.357   7.617 -0.1261  0.0071 -0.0425
   66SAPC   H9Y 5516   2.467   0.219   7.624  0.0368 -2.3156  0.8812
   66SAPC  C310 5517   2.287   0.192   7.751  0.3045 -0.3652  0.4624
   66SAPC  H10X 5518   2.252   0.087   7.742 -1.8828  0.4519 -0.9626
   66SAPC  H10Y 5519   2.197   0.257   7.752  0.7292  0.2463 -0.5110
   66SAPC  C311 5520   2.366   0.216   7.881 -0.2047  0.2590  0.3016
   66SAPC  H11X 5521   2.372   0.326   7.892  2.6212 -0.0023  1.8523
   66SAPC  H11Y 5522   2.470   0.180   7.867 -0.4215 -0.0907 -0.4088
   66SAPC  C312 5523   2.307   0.139   8.004 -0.2289 -0.0239 -0.9211
   66SAPC  H12X 5524   2.327   0.032   7.980  1.5770 -0.4615  2.2221
   66SAPC  H12Y 5525   2.198   0.158   8.014 -0.3231 -1.3376  0.7560
   66SAPC  C313 5526   2.364   0.181   8.140  0.1749 -0.2247  0.4635
   66SAPC  H13X 5527   2.354   0.292   8.133 -1.9492 -0.4854 -0.9740
   66SAPC  H13Y 5528   2.472   0.159   8.132 -0.2273 -1.8770 -0.5665
   66SAPC  C314 5529   2.308   0.108   8.265  0.2697  0.3834  0.5604
   66SAPC  H14X 5530   2.351   0.007   8.280 -0.1904 -0.2164 -1.8939
   66SAPC  H14Y 5531   2.199   0.116   8.249  0.3289  2.4495  1.0303
   66SAPC  C315 5532   2.336   0.186   8.392 -0.3765 -0.5105  0.1776
   66SAPC  H15X 5533   2.271   0.136   8.467  1.4266 -1.5656  1.0655
   66SAPC  H15Y 5534   2.294   0.285   8.367  0.3262 -0.8042 -2.3522
   66SAPC  C316 5535   2.479   0.187   8.441  0.1146 -0.5268 -0.4312
   66SAPC  H16X 5536   2.540   0.241   8.365  2.2007 -0.4040  1.2769
   66SAPC  H16Y 5537   2.522   0.085   8.448  0.9757 -0.2064 -0.9863
   66SAPC  C317 5538   2.499   0.268   8.574  0.0658 -0.0571  0.4981
   66SAPC  H17X 5539   2.428   0.353   8.568 -1.2066 -0.9456  2.2647
   66SAPC  H17Y 5540   2.596   0.321   8.583 -1.1322  1.9998  1.4376
   66SAPC  C318 5541   2.465   0.179   8.697  0.1972 -0.0152 -0.2100
   66SAPC  H18X 5542   2.445   0.241   8.787 -1.5614  0.0031 -0.5909
   66SAPC  H18Y 5543   2.541   0.104   8.727 -0.0306 -0.6697 -1.2407
   66SAPC  H18Z 5544   2.380   0.111   8.674 -0.3795 -0.0263  1.8778
   67SAPC     N 5545   4.157   2.612   6.232 -0.2185  0.5925  0.3064
   67SAPC   C12 5546   4.153   2.575   6.377 -0.4756  0.2431 -0.3178
   67SAPC  H12A 5547   4.057   2.532   6.400 -1.6988  2.8223 -0.3981
   67SAPC  H12B 5548   4.159   2.665   6.437 -1.7196  0.1590 -0.0671
   67SAPC   C13 5549   4.264   2.719   6.207  0.2185 -0.2875  0.0572
   67SAPC  H13A 5550   4.240   2.813   6.254 -1.1163  0.5297 -2.1752
   67SAPC  H13B 5551   4.354   2.681   6.254 -1.5761 -1.3398  2.7448
   67SAPC  H13C 5552   4.279   2.736   6.102 -0.8456 -1.0710 -0.2232
   67SAPC   C14 5553   4.193   2.490   6.149 -0.0055  0.2959 -0.0930
   67SAPC  H14A 5554   4.112   2.419   6.156 -0.7169  0.9068 -1.9751
   67SAPC  H14B 5555   4.211   2.520   6.047  0.7335  0.6045  0.1231
   67SAPC  H14C 5556   4.279   2.441   6.193  1.6327  1.5333 -1.8807
   67SAPC   C15 5557   4.022   2.651   6.187 -0.1268 -0.1549  0.8296
   67SAPC  H15A 5558   3.987   2.746   6.226  1.8042  1.4041 -1.0908
   67SAPC  H15B 5559   4.016   2.666   6.081  1.7815 -2.3719  0.3684
   67SAPC  H15C 5560   3.955   2.570   6.210  2.3043 -2.1830  0.9488
   67SAPC   C11 5561   4.257   2.468   6.432  0.1425  0.0082 -0.3647
   67SAPC  H11A 5562   4.214   2.372   6.397  0.7615 -0.4488  0.1292
   67SAPC  H11B 5563   4.257   2.453   6.542  4.0746  1.2774 -0.0882
   67SAPC     P 5564   4.499   2.573   6.461 -0.3185 -0.1118  0.1503
   67SAPC   O13 5565   4.633   2.520   6.438  0.6576  0.3105 -0.5735
   67SAPC   O14 5566   4.486   2.715   6.431  0.3263  0.0112  0.0608
   67SAPC   O12 5567   4.393   2.480   6.388  0.1365 -0.0820 -0.2809
   67SAPC   O11 5568   4.464   2.546   6.614  0.0243  0.3904  0.1629
   67SAPC    C1 5569   4.495   2.413   6.671 -0.5788 -0.7115  0.6238
   67SAPC    HA 5570   4.489   2.341   6.586 -0.7415  0.6161 -0.5259
   67SAPC    HB 5571   4.603   2.411   6.699 -0.4256 -0.6500  0.0679
   67SAPC    C2 5572   4.406   2.372   6.794  0.0046 -0.3353  0.1726
   67SAPC    HS 5573   4.299   2.361   6.767 -0.3889 -0.0922  1.5593
   67SAPC   O21 5574   4.424   2.469   6.904 -0.5103  0.2081  0.7339
   67SAPC   C21 5575   4.335   2.567   6.890  0.1501  0.2284  0.0808
   67SAPC   O22 5576   4.244   2.569   6.811 -0.1843  0.1392  0.5742
   67SAPC   C22 5577   4.361   2.675   6.998  0.5846  0.1081  0.2001
   67SAPC   H2R 5578   4.259   2.688   7.039  0.5605 -0.7899  0.4282
   67SAPC   H2S 5579   4.432   2.623   7.065  1.5733 -1.9374 -2.3116
   67SAPC    C3 5580   4.453   2.229   6.837  0.2999  0.5473 -0.9000
   67SAPC    HX 5581   4.563   2.217   6.845 -0.1402 -1.8044  3.0891
   67SAPC    HY 5582   4.417   2.166   6.753 -3.5550 -1.1168  1.8607
   67SAPC   O31 5583   4.388   2.198   6.966 -0.5459 -0.4097  0.7134
   67SAPC   C31 5584   4.282   2.124   6.970  0.0947 -0.4346  0.0596
   67SAPC   O32 5585   4.217   2.095   6.871  0.7746  0.0670 -0.4025
   67SAPC   C32 5586   4.253   2.081   7.114  0.4348 -1.0000 -0.2846
   67SAPC   H2X 5587   4.259   2.169   7.181  1.8835 -0.0841 -1.5821
   67SAPC   H2Y 5588   4.340   2.021   7.149  0.6255 -1.2890 -1.2360
   67SAPC   C23 5589   4.404   2.808   6.926 -0.1858  0.1672 -0.1257
   67SAPC   H3R 5590   4.320   2.833   6.858  0.5189  0.3300 -0.9482
   67SAPC   H3S 5591   4.492   2.775   6.868 -0.8259  0.3264 -1.1912
   67SAPC   C24 5592   4.436   2.931   7.014 -0.2226  0.2101  0.5363
   67SAPC   H4R 5593   4.476   3.011   6.949 -1.4820 -0.6068 -1.2915
   67SAPC   H4S 5594   4.521   2.901   7.079 -1.7424 -0.5739  2.2101
   67SAPC   C25 5595   4.324   2.993   7.094  0.3580  0.6201 -0.2657
   67SAPC   H5R 5596   4.269   3.076   7.046  0.1433  1.4592  1.3653
   67SAPC   C26 5597   4.298   2.978   7.226  0.2460 -0.2021 -0.2740
   67SAPC   H6R 5598   4.212   3.033   7.265 -0.3101 -2.2186  1.4748
   67SAPC   C27 5599   4.378   2.893   7.317 -0.7593 -0.0010 -0.7593
   67SAPC   H7R 5600   4.463   2.960   7.346 -0.4821  0.1679 -1.9460
   67SAPC   H7S 5601   4.419   2.806   7.262  0.2641  0.3916 -0.6345
   67SAPC   C28 5602   4.311   2.852   7.449 -0.3662 -0.4183  0.4115
   67SAPC   H8R 5603   4.235   2.776   7.428 -0.7172 -0.6147  2.3524
   67SAPC   C29 5604   4.341   2.893   7.572  0.3121  0.5917 -0.4645
   67SAPC   H9R 5605   4.287   2.857   7.660  4.2050 -0.5207  1.5938
   67SAPC  C210 5606   4.441   3.001   7.612  0.3362 -0.0565 -0.0224
   67SAPC  H10R 5607   4.401   3.059   7.698 -0.6862  0.1795 -0.6514
   67SAPC  H10S 5608   4.471   3.072   7.532  0.2879  0.3008  0.2747
   67SAPC  C211 5609   4.566   2.937   7.650 -0.2862  0.2579  0.1863
   67SAPC  H11R 5610   4.623   2.894   7.567 -0.5411  3.8958 -1.9702
   67SAPC  C212 5611   4.615   2.916   7.777 -0.1623  0.7903  0.0916
   67SAPC  H12R 5612   4.707   2.856   7.787 -1.4054 -1.4558 -1.4481
   67SAPC  C213 5613   4.562   2.975   7.905  0.1277 -0.0975  0.4502
   67SAPC  H13R 5614   4.504   3.068   7.884 -0.3295 -0.7796 -1.4063
   67SAPC  H13S 5615   4.649   3.000   7.969  1.9944  0.9075 -2.4002
   67SAPC  C214 5616   4.471   2.877   7.972 -0.1587  0.0755  0.3890
   67SAPC  H14R 5617   4.372   2.871   7.924 -0.0312  1.1898 -0.0230
   67SAPC  C215 5618   4.502   2.800   8.075  0.3256 -0.6233 -0.5530
   67SAPC  H15R 5619   4.435   2.721   8.111  0.2125 -0.4727 -0.4370
   67SAPC  C216 5620   4.625   2.794   8.167 -0.5185 -0.0252  0.0523
   67SAPC  H16R 5621   4.714   2.830   8.112 -0.5214 -2.6114 -1.7649
   67SAPC  H16S 5622   4.659   2.689   8.178  0.8362  0.4700  0.6921
   67SAPC  C217 5623   4.626   2.864   8.301  0.3255  0.4863  0.2154
   67SAPC  H17R 5624   4.584   2.965   8.284  2.0943  1.0271 -1.1178
   67SAPC  H17S 5625   4.729   2.871   8.341  1.0051 -0.5331 -1.2863
   67SAPC  C218 5626   4.529   2.800   8.404 -1.1026  0.1900  0.4193
   67SAPC  H18R 5627   4.578   2.702   8.422 -0.0328  0.7308  0.4975
   67SAPC  H18S 5628   4.427   2.787   8.362 -0.1506 -0.9160 -1.5946
   67SAPC  C219 5629   4.520   2.883   8.537  0.4211 -0.3623  0.3135
   67SAPC  H19R 5630   4.480   2.986   8.525 -0.6661 -0.8665 -0.4425
   67SAPC  H19S 5631   4.627   2.888   8.568  0.2981  0.9986  0.5811
   67SAPC  C220 5632   4.429   2.810   8.641  0.1351 -0.3700 -0.4489
   67SAPC  H20R 5633   4.325   2.806   8.602 -0.3447  1.0636  0.6167
   67SAPC  H20S 5634   4.416   2.880   8.727 -0.1783 -0.6125 -0.2948
   67SAPC  H20T 5635   4.472   2.714   8.677  0.0194  0.9887  3.5602
   67SAPC   C33 5636   4.125   1.992   7.123  0.0230 -0.2797  0.8612
   67SAPC   H3X 5637   4.138   1.888   7.088  1.6087  0.1334  0.2024
   67SAPC   H3Y 5638   4.040   2.039   7.069 -1.1880 -0.0813  2.8709
   67SAPC   C34 5639   4.081   1.981   7.273 -0.9467  0.3592  0.0519
   67SAPC   H4X 5640   3.988   1.920   7.285 -0.6584 -0.4131 -1.4984
   67SAPC   H4Y 5641   4.051   2.079   7.316  0.2768 -0.1752  2.2426
   67SAPC   C35 5642   4.183   1.905   7.354 -0.0731 -0.0905 -0.8219
   67SAPC   H5X 5643   4.283   1.953   7.357  1.2600 -2.8243  1.1722
   67SAPC   H5Y 5644   4.207   1.811   7.301  1.0643  1.3045 -2.8106
   67SAPC   C36 5645   4.145   1.880   7.494  0.1350 -0.0948  0.4857
   67SAPC   H6X 5646   4.242   1.845   7.537  0.0911  0.2045  0.8301
   67SAPC   H6Y 5647   4.066   1.803   7.505 -2.5512  2.6072  0.8161
   67SAPC   C37 5648   4.107   2.005   7.573 -0.2688  0.2690  0.6341
   67SAPC   H7X 5649   4.010   2.040   7.534 -0.0958  2.2581  1.9175
   67SAPC   H7Y 5650   4.187   2.081   7.556 -1.3332  0.8610 -2.0115
   67SAPC   C38 5651   4.097   1.996   7.726 -0.0784 -0.0400 -0.5484
   67SAPC   H8X 5652   4.039   1.902   7.740  2.6139 -1.6701 -0.1446
   67SAPC   H8Y 5653   4.036   2.085   7.751  0.2480  0.0133  0.0703
   67SAPC   C39 5654   4.232   1.998   7.786  0.0852  0.5917  0.3403
   67SAPC   H9X 5655   4.287   2.095   7.783  3.1662 -1.0539  1.0919
   67SAPC   H9Y 5656   4.294   1.926   7.728 -0.4427  0.3535  0.0757
   67SAPC  C310 5657   4.222   1.962   7.934  0.7397  0.2887 -0.4776
   67SAPC  H10X 5658   4.153   1.878   7.956  2.4313 -0.5770  1.6391
   67SAPC  H10Y 5659   4.178   2.047   7.989 -0.0955 -0.6713  0.3447
   67SAPC  C311 5660   4.361   1.929   7.990 -0.5480 -0.0202  0.0261
   67SAPC  H11X 5661   4.431   2.015   7.988  1.5602 -1.7186 -0.7878
   67SAPC  H11Y 5662   4.410   1.845   7.937  1.5719 -0.2960  2.2973
   67SAPC  C312 5663   4.360   1.886   8.134 -0.1756 -0.6143  0.1957
   67SAPC  H12X 5664   4.292   1.799   8.143 -3.1498  1.3395 -2.5382
   67SAPC  H12Y 5665   4.322   1.965   8.203  0.6719 -0.4558  0.4845
   67SAPC  C313 5666   4.500   1.853   8.187  0.2545  0.1083 -0.4644
   67SAPC  H13X 5667   4.563   1.944   8.176  2.5011 -1.3690 -0.2496
   67SAPC  H13Y 5668   4.538   1.771   8.121  1.6496  0.7300 -0.4548
   67SAPC  C314 5669   4.495   1.824   8.333  0.2204  0.6395  0.3510
   67SAPC  H14X 5670   4.438   1.729   8.343  1.7428 -0.6049 -2.3359
   67SAPC  H14Y 5671   4.437   1.907   8.379 -2.9365 -1.0412 -0.4009
   67SAPC  C315 5672   4.629   1.811   8.401  0.3787  0.5968 -0.2017
   67SAPC  H15X 5673   4.691   1.884   8.344  0.2769 -0.5670 -1.8474
   67SAPC  H15Y 5674   4.664   1.710   8.371 -0.5165  0.5074 -0.9822
   67SAPC  C316 5675   4.619   1.839   8.552  0.9052  0.1796  0.3053
   67SAPC  H16X 5676   4.536   1.905   8.585  1.5814  0.5985  1.2029
   67SAPC  H16Y 5677   4.716   1.880   8.588  1.2980 -0.7586  0.3175
   67SAPC  C317 5678   4.601   1.704   8.629  0.3226 -0.1970 -0.3497
   67SAPC  H17X 5679   4.629   1.728   8.733 -3.8224 -2.1375  1.3220
   67SAPC  H17Y 5680   4.669   1.625   8.591 -1.0997 -1.5890 -0.0814
   67SAPC  C318 5681   4.459   1.640   8.627  0.1766 -0.1462 -0.1301
   67SAPC  H18X 5682   4.413   1.630   8.527  3.1269 -0.4426 -1.5196
   67SAPC  H18Y 5683   4.383   1.691   8.690 -0.8861 -0.8211 -0.8496
   67SAPC  H18Z 5684   4.463   1.538   8.670 -2.5181 -0.4196 -0.4916
   68SAPC     N 5685   2.722   1.387   5.962 -0.3919 -0.3405 -0.9874
   68SAPC   C12 5686   2.696   1.277   6.068  0.2724 -0.1033 -0.1972
   68SAPC  H12A 5687   2.624   1.315   6.139 -0.1571  0.5278 -0.9611
   68SAPC  H12B 5688   2.786   1.259   6.125  0.7705 -0.3345 -1.0454
   68SAPC   C13 5689   2.821   1.349   5.855 -0.6170  0.2069 -0.2467
   68SAPC  H13A 5690   2.834   1.426   5.781 -0.2711 -1.0738 -1.5477
   68SAPC  H13B 5691   2.914   1.321   5.901  0.0261  2.5999 -0.0247
   68SAPC  H13C 5692   2.786   1.256   5.811 -2.9526  1.5077 -1.2609
   68SAPC   C14 5693   2.598   1.429   5.892 -0.1657 -0.5497  0.0048
   68SAPC  H14A 5694   2.617   1.515   5.830 -0.1448 -0.6435 -0.1177
   68SAPC  H14B 5695   2.571   1.345   5.830  1.4654  1.6727 -3.8115
   68SAPC  H14C 5696   2.516   1.455   5.957 -0.4432  0.2098 -0.6413
   68SAPC   C15 5697   2.781   1.511   6.029  0.0850 -0.5357 -0.3339
   68SAPC  H15A 5698   2.711   1.546   6.104  0.5937  2.0694 -1.0156
   68SAPC  H15B 5699   2.880   1.491   6.066 -1.6527 -1.9479  3.8088
   68SAPC  H15C 5700   2.779   1.595   5.961 -1.9451  0.7997  1.3024
   68SAPC   C11 5701   2.650   1.144   6.008 -0.4054 -0.4833  0.4971
   68SAPC  H11A 5702   2.555   1.151   5.950 -0.3968 -0.4280  0.4889
   68SAPC  H11B 5703   2.628   1.087   6.100 -0.5701  0.4859  1.0647
   68SAPC     P 5704   2.882   1.013   5.987  0.0615  0.0182  0.2260
   68SAPC   O13 5705   2.864   0.874   6.018  0.0350  0.0688 -0.2661
   68SAPC   O14 5706   2.988   1.052   5.894 -0.3864  0.4921  0.2197
   68SAPC   O12 5707   2.752   1.078   5.929  0.3584  0.8203  0.4496
   68SAPC   O11 5708   2.903   1.095   6.123 -0.2353 -0.0127  0.6126
   68SAPC    C1 5709   3.027   1.169   6.151  0.0622  0.3486 -0.1763
   68SAPC    HA 5710   3.050   1.239   6.068  1.2343 -2.6850 -2.5260
   68SAPC    HB 5711   3.013   1.231   6.243 -1.8064 -1.0431  0.5189
   68SAPC    C2 5712   3.156   1.083   6.164  0.0020  0.3323  0.5783
   68SAPC    HS 5713   3.179   1.065   6.057 -2.4773  0.8692 -0.0833
   68SAPC   O21 5714   3.120   0.964   6.234 -0.2787 -0.5626  0.5649
   68SAPC   C21 5715   3.201   0.861   6.209  0.0932  0.0481  0.0672
   68SAPC   O22 5716   3.290   0.862   6.125  0.1939  0.6743 -0.3225
   68SAPC   C22 5717   3.160   0.745   6.296 -0.8136 -0.4443  0.1653
   68SAPC   H2R 5718   3.122   0.782   6.394 -1.2573 -1.1081  0.2488
   68SAPC   H2S 5719   3.077   0.697   6.239  0.0847  0.2919 -1.8114
   68SAPC    C3 5720   3.272   1.165   6.229  0.1417 -0.5954  0.1291
   68SAPC    HX 5721   3.292   1.250   6.160  1.6428 -0.4153  0.7670
   68SAPC    HY 5722   3.368   1.111   6.225  0.7957  0.4445  1.3067
   68SAPC   O31 5723   3.241   1.228   6.354 -0.3267  0.3420 -0.8016
   68SAPC   C31 5724   3.289   1.158   6.456 -0.1908 -0.2364  1.3106
   68SAPC   O32 5725   3.345   1.049   6.453  0.1304  0.3036 -0.2744
   68SAPC   C32 5726   3.280   1.253   6.574  0.5082 -0.6137 -0.7363
   68SAPC   H2X 5727   3.177   1.293   6.567  0.8665  0.3843 -0.4486
   68SAPC   H2Y 5728   3.356   1.334   6.566 -0.3640  0.2496 -0.3244
   68SAPC   C23 5729   3.275   0.654   6.324 -0.0395 -0.2261  0.5001
   68SAPC   H3R 5730   3.345   0.645   6.238 -0.5182 -0.4464  0.1321
   68SAPC   H3S 5731   3.233   0.551   6.334 -1.3021  0.4872  2.8463
   68SAPC   C24 5732   3.362   0.680   6.448  0.0007  0.6025  0.2669
   68SAPC   H4R 5733   3.379   0.790   6.451 -1.1656  0.8745 -1.9846
   68SAPC   H4S 5734   3.461   0.630   6.438 -0.0048  0.7857 -0.8120
   68SAPC   C25 5735   3.291   0.621   6.569 -0.4139  0.8362  0.5736
   68SAPC   H5R 5736   3.238   0.528   6.544  1.8091 -0.3561  0.1439
   68SAPC   C26 5737   3.290   0.679   6.698  0.6508  0.0428 -0.0865
   68SAPC   H6R 5738   3.225   0.627   6.771 -0.5942 -0.6702 -1.6746
   68SAPC   C27 5739   3.350   0.802   6.756 -0.1863  0.3375 -0.5364
   68SAPC   H7R 5740   3.277   0.873   6.800 -1.6447 -1.1849 -0.4232
   68SAPC   H7S 5741   3.401   0.856   6.673 -0.1790  1.5797  0.2647
   68SAPC   C28 5742   3.447   0.757   6.865 -0.6746 -0.0643 -0.4331
   68SAPC   H8R 5743   3.551   0.770   6.832 -1.1006  0.6456 -1.5228
   68SAPC   C29 5744   3.415   0.710   6.996  0.5803 -0.3274  1.1068
   68SAPC   H9R 5745   3.495   0.671   7.060  1.3216 -1.2450 -0.3542
   68SAPC  C210 5746   3.271   0.697   7.040 -0.0247 -0.2221 -0.0408
   68SAPC  H10R 5747   3.229   0.607   6.989 -0.5618  0.5926 -1.0445
   68SAPC  H10S 5748   3.221   0.790   7.007 -0.8178  0.2295  2.3588
   68SAPC  C211 5749   3.276   0.677   7.189 -0.0007  0.3734 -0.0941
   68SAPC  H11R 5750   3.337   0.593   7.225 -1.7550 -0.6274  0.6405
   68SAPC  C212 5751   3.208   0.750   7.276  0.1883 -0.4205  0.8388
   68SAPC  H12R 5752   3.216   0.738   7.385 -0.3392  1.7059  1.1334
   68SAPC  C213 5753   3.107   0.861   7.235  1.0674  0.0220 -0.1830
   68SAPC  H13R 5754   3.149   0.909   7.144 -1.3443  0.8044 -0.9327
   68SAPC  H13S 5755   3.103   0.937   7.316 -2.6935 -2.0199  1.6772
   68SAPC  C214 5756   2.976   0.791   7.212  0.0419 -0.8187 -0.5389
   68SAPC  H14R 5757   2.958   0.692   7.256 -2.2401 -0.3254 -0.3012
   68SAPC  C215 5758   2.891   0.836   7.120 -0.0210  0.3831  0.2532
   68SAPC  H15R 5759   2.791   0.791   7.118 -0.1741  0.7612 -0.7557
   68SAPC  C216 5760   2.896   0.962   7.046 -0.1558 -0.3871 -0.1874
   68SAPC  H16R 5761   2.971   1.032   7.089 -0.0288  0.1171 -1.1975
   68SAPC  H16S 5762   2.798   1.014   7.044 -1.1457 -2.2299 -1.7350
   68SAPC  C217 5763   2.931   0.946   6.898 -0.1114 -1.2767 -0.2807
   68SAPC  H17R 5764   3.039   0.920   6.896 -0.0532 -1.2107  1.2268
   68SAPC  H17S 5765   2.904   1.042   6.849  0.1618 -0.9110  0.2779
   68SAPC  C218 5766   2.864   0.837   6.811 -0.6975  0.3976 -0.1628
   68SAPC  H18R 5767   2.753   0.837   6.811 -0.7255 -0.8993 -1.8654
   68SAPC  H18S 5768   2.891   0.735   6.847 -0.0716  1.1058  1.3945
   68SAPC  C219 5769   2.934   0.816   6.681  0.1222  0.3761 -0.8154
   68SAPC  H19R 5770   2.892   0.730   6.625  2.1304 -0.3745 -1.2041
   68SAPC  H19S 5771   3.037   0.782   6.707 -0.0004  2.9317  3.3850
   68SAPC  C220 5772   2.951   0.933   6.587  0.2181  0.2220  0.1869
   68SAPC  H20R 5773   2.999   1.017   6.642  0.9961 -0.4795  0.5901
   68SAPC  H20S 5774   2.849   0.966   6.557  0.8343  1.9475 -0.0631
   68SAPC  H20T 5775   3.003   0.916   6.490 -3.0218 -0.3960 -1.5370
   68SAPC   C33 5776   3.307   1.189   6.707 -0.1498  0.1133  0.2908
   68SAPC   H3X 5777   3.413   1.157   6.713  0.0319  0.6707  0.0462
   68SAPC   H3Y 5778   3.248   1.096   6.720 -0.2282 -0.6248 -4.4621
   68SAPC   C34 5779   3.288   1.277   6.827 -0.5932 -0.4913  0.4705
   68SAPC   H4X 5780   3.180   1.304   6.831 -0.3192  0.8504 -0.8074
   68SAPC   H4Y 5781   3.347   1.371   6.818 -2.2544  0.7479  2.1069
   68SAPC   C35 5782   3.311   1.193   6.955  0.0795 -0.5187 -0.3571
   68SAPC   H5X 5783   3.416   1.216   6.981  0.4648 -1.6060 -0.9207
   68SAPC   H5Y 5784   3.295   1.087   6.927 -1.2393 -1.1362  2.5712
   68SAPC   C36 5785   3.238   1.242   7.075  0.1194  0.0235  0.1389
   68SAPC   H6X 5786   3.270   1.190   7.168 -0.3703  0.2019  0.4093
   68SAPC   H6Y 5787   3.129   1.230   7.059 -0.2483  1.5087  1.4354
   68SAPC   C37 5788   3.258   1.392   7.117  0.5464 -0.5833 -0.4811
   68SAPC   H7X 5789   3.198   1.459   7.051  0.7528  0.9039  0.7937
   68SAPC   H7Y 5790   3.365   1.417   7.099  0.4763 -0.5447 -0.8620
   68SAPC   C38 5791   3.211   1.430   7.259  0.2131 -0.1104  0.5725
   68SAPC   H8X 5792   3.213   1.541   7.265  0.7568 -0.0352 -0.7775
   68SAPC   H8Y 5793   3.290   1.392   7.327  1.7344  0.6839 -0.7010
   68SAPC   C39 5794   3.074   1.379   7.312 -0.0492 -0.2825 -0.1300
   68SAPC   H9X 5795   3.071   1.270   7.290 -2.4562 -0.0665 -0.9511
   68SAPC   H9Y 5796   2.987   1.420   7.256 -1.0727  1.5652  2.7041
   68SAPC  C310 5797   3.055   1.398   7.465  0.0894 -0.0741 -0.6697
   68SAPC  H10X 5798   3.049   1.509   7.476 -0.8700  0.0601 -2.4610
   68SAPC  H10Y 5799   3.127   1.358   7.539 -1.3654  0.0456  0.8452
   68SAPC  C311 5800   2.916   1.341   7.508  0.1379 -0.8793  1.4598
   68SAPC  H11X 5801   2.910   1.238   7.468  0.6221  0.5030 -2.3448
   68SAPC  H11Y 5802   2.841   1.393   7.445  0.3895 -1.3863  0.7432
   68SAPC  C312 5803   2.895   1.369   7.659 -0.2886  0.1040  0.0524
   68SAPC  H12X 5804   2.784   1.372   7.668 -0.4409 -3.3464 -0.0118
   68SAPC  H12Y 5805   2.913   1.475   7.688 -3.0397  0.4686  0.5800
   68SAPC  C313 5806   2.953   1.276   7.758 -0.6481 -0.7685 -0.1317
   68SAPC  H13X 5807   3.061   1.297   7.771 -0.5194 -1.1711 -0.5511
   68SAPC  H13Y 5808   2.946   1.171   7.723 -2.6951 -0.5233 -0.5370
   68SAPC  C314 5809   2.899   1.292   7.899  0.0681  1.0611  0.9747
   68SAPC  H14X 5810   2.950   1.224   7.971  1.5637  2.0492  0.8585
   68SAPC  H14Y 5811   2.791   1.265   7.896  0.4966 -0.6296 -0.0382
   68SAPC  C315 5812   2.933   1.427   7.952 -0.0001 -0.2022  0.0200
   68SAPC  H15X 5813   2.881   1.508   7.897 -1.0515 -0.2618  0.8973
   68SAPC  H15Y 5814   3.043   1.440   7.945 -0.1088 -0.4116 -2.2973
   68SAPC  C316 5815   2.902   1.438   8.104 -0.0397 -0.0593  0.1272
   68SAPC  H16X 5816   2.950   1.534   8.134  0.5610 -1.4356  3.9184
   68SAPC  H16Y 5817   2.949   1.354   8.159 -0.4981 -0.2726  0.1947
   68SAPC  C317 5818   2.756   1.437   8.150  0.3360  0.6748  0.1021
   68SAPC  H17X 5819   2.751   1.451   8.261  0.0462  1.1763  0.0264
   68SAPC  H17Y 5820   2.711   1.341   8.121 -0.8149  0.2406  3.1770
   68SAPC  C318 5821   2.668   1.551   8.084 -0.0864  0.1360 -0.0612
   68SAPC  H18X 5822   2.678   1.559   7.974  1.0557  2.4730  0.1881
   68SAPC  H18Y 5823   2.708   1.649   8.117  1.9639 -1.1049  1.2262
   68SAPC  H18Z 5824   2.562   1.543   8.115 -0.4681  0.2999 -1.2815
   69SLPC     N 5825   0.541   6.356  10.883  0.6738 -0.2559 -0.2047
   69SLPC   C13 5826   0.549   6.288  11.018 -0.1376 -0.9805  0.7900
   69SLPC  H13A 5827   0.455   6.291  11.070 -0.7272 -2.3081 -0.1843
   69SLPC  H13B 5828   0.561   6.182  11.002  0.0027 -0.4712 -2.9419
   69SLPC  H13C 5829   0.629   6.333  11.075 -0.1940 -2.2430  1.9156
   69SLPC   C14 5830   0.677   6.359  10.812 -0.2305  0.1687  0.0514
   69SLPC  H14A 5831   0.750   6.438  10.822 -0.5633  0.1929  2.4668
   69SLPC  H14B 5832   0.731   6.266  10.822  1.0387  0.7129 -1.5107
   69SLPC  H14C 5833   0.654   6.357  10.706 -0.5936 -0.1928  0.1354
   69SLPC   C15 5834   0.492   6.490  10.912  0.0643  0.0378  0.1801
   69SLPC  H15A 5835   0.559   6.555  10.966 -1.4594  0.0212  2.1451
   69SLPC  H15B 5836   0.461   6.548  10.826 -0.7367  0.1691  0.5514
   69SLPC  H15C 5837   0.404   6.471  10.972 -0.8643 -0.1344 -1.2000
   69SLPC   C12 5838   0.444   6.284  10.793 -0.1074 -0.2997 -0.3859
   69SLPC  H12A 5839   0.446   6.336  10.699  0.4621 -0.1336 -0.2834
   69SLPC  H12B 5840   0.339   6.286  10.821  0.1350  1.3884  0.4629
   69SLPC   C11 5841   0.483   6.135  10.782 -0.0958 -0.6630 -0.4126
   69SLPC  H11A 5842   0.586   6.124  10.742  1.1432 -0.5650  2.6434
   69SLPC  H11B 5843   0.434   6.082  10.697  0.1791  1.2199 -1.7950
   69SLPC     P 5844   0.333   5.958  10.917  0.1777 -0.1194 -0.0245
   69SLPC   O13 5845   0.322   5.915  11.057 -0.2308  0.9736  0.4125
   69SLPC   O14 5846   0.209   6.010  10.858  0.5533 -0.0995  0.1328
   69SLPC   O12 5847   0.451   6.065  10.905 -0.3141 -0.1900  0.3545
   69SLPC   O11 5848   0.384   5.838  10.828 -0.2738  0.0605  0.0302
   69SLPC    C1 5849   0.518   5.784  10.836  0.3480 -0.1142  0.5415
   69SLPC    HA 5850   0.588   5.855  10.883 -0.5647  2.1332 -1.4127
   69SLPC    HB 5851   0.518   5.690  10.896 -0.3624 -0.4972 -0.0403
   69SLPC    C2 5852   0.577   5.748  10.691 -0.4267 -0.2830 -0.2216
   69SLPC    HS 5853   0.666   5.687  10.714  0.0444 -0.0384 -1.3460
   69SLPC   O21 5854   0.626   5.876  10.634 -0.2888 -0.5946  0.0521
   69SLPC   C21 5855   0.732   5.874  10.556 -0.0396 -0.5437 -0.0877
   69SLPC   O22 5856   0.809   5.781  10.539  0.2813  0.0447 -0.2022
   69SLPC   C22 5857   0.759   6.009  10.486 -0.0870 -0.4362 -0.6200
   69SLPC   H2R 5858   0.661   6.038  10.441 -0.2139 -0.9801 -0.6912
   69SLPC   H2S 5859   0.785   6.087  10.561  1.4524 -1.1506 -0.4031
   69SLPC    C3 5860   0.480   5.674  10.598  0.3386  0.1978 -0.3064
   69SLPC    HX 5861   0.395   5.740  10.571  1.7302  2.6344  1.0920
   69SLPC    HY 5862   0.444   5.590  10.662 -2.4610  3.0543  2.0382
   69SLPC   O31 5863   0.542   5.635  10.477  0.4222 -0.1610  0.4184
   69SLPC   C31 5864   0.617   5.527  10.495  0.0965 -0.6351 -1.0145
   69SLPC   O32 5865   0.646   5.475  10.601  0.0429 -0.1938  0.1993
   69SLPC   C32 5866   0.661   5.482  10.353 -0.1551 -0.3426 -0.8242
   69SLPC   H2X 5867   0.567   5.485  10.293 -0.0921 -0.1948 -0.9146
   69SLPC   H2Y 5868   0.693   5.376  10.367 -0.1515 -0.1766  0.4990
   69SLPC   C23 5869   0.871   6.021  10.367 -0.4332  0.2534 -0.2970
   69SLPC   H3R 5870   0.868   5.927  10.307  0.6209 -0.2976  0.4950
   69SLPC   H3S 5871   0.972   6.019  10.412 -0.9426 -2.0450  0.8670
   69SLPC   C24 5872   0.858   6.135  10.270  0.1565 -0.1475  0.7052
   69SLPC   H4R 5873   0.933   6.119  10.190  1.3794 -1.1387  2.0153
   69SLPC   H4S 5874   0.885   6.233  10.316 -3.2568  0.4814  1.5483
   69SLPC   C25 5875   0.726   6.151  10.204  0.2015  0.2161 -0.0268
   69SLPC   H5R 5876   0.649   6.173  10.281 -0.7492 -1.0023 -0.6203
   69SLPC   H5S 5877   0.702   6.050  10.164 -2.6549  0.8677 -0.0359
   69SLPC   C26 5878   0.731   6.257  10.095 -0.4118 -0.0248 -0.4051
   69SLPC   H6R 5879   0.837   6.267  10.063 -1.1143  2.2091 -2.1130
   69SLPC   H6S 5880   0.709   6.357  10.139  0.5161 -0.0546  0.1345
   69SLPC   C27 5881   0.636   6.219   9.982  0.6587  0.0519 -0.0863
   69SLPC   H7R 5882   0.618   6.312   9.923  1.8729  0.1951 -0.2569
   69SLPC   H7S 5883   0.537   6.192  10.023  0.7589 -1.3282 -0.7139
   69SLPC   C28 5884   0.680   6.106   9.882  0.6135  0.2686 -0.2968
   69SLPC   H8R 5885   0.599   6.092   9.807  0.4256  2.1586 -0.4636
   69SLPC   H8S 5886   0.690   6.008   9.934  2.0447  0.5543 -0.0080
   69SLPC   C29 5887   0.815   6.121   9.814  1.0915 -0.2929 -0.4106
   69SLPC   H9R 5888   0.884   6.189   9.867 -1.5068  0.9316  1.4976
   69SLPC  C210 5889   0.851   6.065   9.699 -0.0882  1.1049  0.5982
   69SLPC  H10R 5890   0.953   6.081   9.661  0.1633 -1.4197  0.0921
   69SLPC  C211 5891   0.762   5.970   9.618  0.4551 -0.4036  0.4291
   69SLPC  H11R 5892   0.692   6.040   9.567  0.9621  0.9828  1.5850
   69SLPC  H11S 5893   0.703   5.909   9.690 -2.1245  2.3115  0.7221
   69SLPC  C212 5894   0.856   5.888   9.528  0.0960 -0.1320 -0.5262
   69SLPC  H12R 5895   0.927   5.827   9.586 -1.4515  0.0710  1.6920
   69SLPC  C213 5896   0.874   5.898   9.398  0.5100 -0.0360  0.1368
   69SLPC  H13R 5897   0.940   5.833   9.339 -0.3587 -1.7101  0.9848
   69SLPC  C214 5898   0.800   5.994   9.300 -0.0913  0.2465 -0.1719
   69SLPC  H14R 5899   0.837   6.099   9.306  1.0799 -0.1544 -0.3207
   69SLPC  H14S 5900   0.704   6.012   9.353 -1.6374 -0.6755 -2.5622
   69SLPC  C215 5901   0.802   5.937   9.161  0.1604  0.3974  0.1865
   69SLPC  H15R 5902   0.790   5.827   9.162 -0.0374  0.3686 -2.0403
   69SLPC  H15S 5903   0.900   5.954   9.111 -0.2835  2.5074 -0.0480
   69SLPC  C216 5904   0.693   5.994   9.067  0.0987  0.2393  1.1065
   69SLPC  H16R 5905   0.699   6.103   9.089 -1.4898  0.6646 -0.4292
   69SLPC  H16S 5906   0.597   5.958   9.110 -1.3770  1.7362 -0.8465
   69SLPC  C217 5907   0.690   5.965   8.917  0.9189 -0.3857  0.0470
   69SLPC  H17R 5908   0.679   5.855   8.905  1.4379 -0.4054 -0.2422
   69SLPC  H17S 5909   0.788   5.992   8.872  0.7954  0.2282  0.1376
   69SLPC  C218 5910   0.567   6.023   8.844 -0.4311 -0.2177  0.3709
   69SLPC  H18R 5911   0.598   6.127   8.818  1.3933 -1.0707 -0.9713
   69SLPC  H18S 5912   0.483   6.027   8.916 -0.5152  0.9794  0.2262
   69SLPC  H18T 5913   0.528   5.963   8.759 -2.9563  0.0121  1.3151
   69SLPC   C33 5914   0.758   5.571  10.287 -0.0417  0.4836 -0.2631
   69SLPC   H3X 5915   0.863   5.554  10.320 -0.5259  2.8997  2.7426
   69SLPC   H3Y 5916   0.728   5.678  10.299  1.2227  0.6639  1.4675
   69SLPC   C34 5917   0.765   5.547  10.137 -0.2576 -1.2657  0.8364
   69SLPC   H4X 5918   0.793   5.642  10.086 -2.9348 -1.1978 -0.5985
   69SLPC   H4Y 5919   0.663   5.520  10.104 -0.4323 -2.6263  2.4330
   69SLPC   C35 5920   0.866   5.443  10.099  0.3600 -0.7323  1.0138
   69SLPC   H5X 5921   0.846   5.348  10.152 -2.2608 -1.8071 -1.7334
   69SLPC   H5Y 5922   0.966   5.476  10.133  0.1897 -1.0726  1.8316
   69SLPC   C36 5923   0.863   5.414   9.945 -0.5593 -0.3402  0.4707
   69SLPC   H6X 5924   0.886   5.514   9.904  1.0298 -0.9029 -0.0129
   69SLPC   H6Y 5925   0.767   5.376   9.903  0.8515 -2.4929 -0.9040
   69SLPC   C37 5926   0.971   5.312   9.920  0.0794  0.5357  0.2410
   69SLPC   H7X 5927   0.940   5.221   9.976  0.1439 -0.2664 -1.0135
   69SLPC   H7Y 5928   1.071   5.349   9.952 -0.5885  1.1750  1.6158
   69SLPC   C38 5929   0.987   5.280   9.771 -0.3723 -0.6609  0.4761
   69SLPC   H8X 5930   0.988   5.377   9.718  2.9676 -1.2611 -0.6564
   69SLPC   H8Y 5931   0.896   5.223   9.741 -0.3775 -0.1218 -0.5245
   69SLPC   C39 5932   1.109   5.202   9.739 -0.0302 -0.6780 -0.3388
   69SLPC   H9X 5933   1.096   5.106   9.793 -0.3681 -0.4108  0.0580
   69SLPC   H9Y 5934   1.198   5.258   9.775 -0.7936 -0.5516  1.3925
   69SLPC  C310 5935   1.136   5.180   9.586  0.0170 -0.1716  0.8671
   69SLPC  H10X 5936   1.147   5.275   9.531 -1.1896 -0.5144  0.0339
   69SLPC  H10Y 5937   1.041   5.135   9.551 -0.0232  1.5516 -1.2851
   69SLPC  C311 5938   1.260   5.097   9.575  0.6346  0.1023  0.1414
   69SLPC  H11X 5939   1.247   4.999   9.625 -0.9007 -0.3928 -1.1981
   69SLPC  H11Y 5940   1.333   5.160   9.632 -0.7808  0.2414  1.8366
   69SLPC  C312 5941   1.321   5.073   9.435 -0.1068  0.3013  0.0328
   69SLPC  H12X 5942   1.243   5.013   9.383 -0.1437  1.5393 -1.4155
   69SLPC  H12Y 5943   1.412   5.011   9.444 -1.0133 -1.0758 -0.1673
   69SLPC  C313 5944   1.355   5.204   9.357 -0.4670  0.7533  0.8628
   69SLPC  H13X 5945   1.428   5.257   9.422  0.1241  0.7330  0.2346
   69SLPC  H13Y 5946   1.269   5.268   9.331 -0.3132  0.9750  0.9032
   69SLPC  C314 5947   1.438   5.176   9.232 -0.0536  0.4708  0.4121
   69SLPC  H14X 5948   1.365   5.148   9.153  0.3368 -3.3093  1.3128
   69SLPC  H14Y 5949   1.491   5.080   9.244  1.8209  1.1865 -1.7729
   69SLPC  C315 5950   1.527   5.290   9.200 -0.2445 -1.1276  0.4565
   69SLPC  H15X 5951   1.616   5.284   9.266 -0.4055  0.4918  0.8505
   69SLPC  H15Y 5952   1.476   5.382   9.236  1.1638  0.2285 -0.9526
   69SLPC  C316 5953   1.571   5.309   9.052 -1.1188  0.6804 -0.4066
   69SLPC  H16X 5954   1.602   5.207   9.020  2.2284  2.0333 -1.7352
   69SLPC  H16Y 5955   1.657   5.378   9.033  0.5625 -1.1735  0.2744
   69SLPC  C317 5956   1.459   5.361   8.961 -0.1122 -0.0848 -0.5617
   69SLPC  H17X 5957   1.411   5.442   9.019 -0.2106  1.8356 -3.2739
   69SLPC  H17Y 5958   1.393   5.273   8.942 -0.4310 -0.1406  0.7622
   69SLPC  C318 5959   1.519   5.414   8.834  0.4735 -0.2733 -0.1418
   69SLPC  H18X 5960   1.566   5.332   8.777 -0.4561 -2.0641  1.6127
   69SLPC  H18Y 5961   1.596   5.492   8.856  0.9860 -0.6497 -0.5991
   69SLPC  H18Z 5962   1.445   5.474   8.776 -1.8917  0.3849  3.4141
   70SLPC     N 5963   1.789   3.153  11.081 -0.0488  0.2541  0.4978
   70SLPC   C13 5964   1.661   3.093  11.114 -0.3407  0.4963  0.8038
   70SLPC  H13A 5965   1.595   3.157  11.171 -1.7526  0.5174 -0.8264
   70SLPC  H13B 5966   1.600   3.081  11.026 -0.2434  1.2997  0.6238
   70SLPC  H13C 5967   1.686   2.996  11.153 -0.0603  0.2622  0.0386
   70SLPC   C14 5968   1.867   3.053  11.010  0.7411 -0.3503  0.4127
   70SLPC  H14A 5969   1.959   3.094  10.971  0.9017 -0.2703  0.8725
   70SLPC  H14B 5970   1.904   2.974  11.072 -0.4909 -0.5502  0.8993
   70SLPC  H14C 5971   1.812   3.017  10.924  1.1464 -2.9544  1.2143
   70SLPC   C15 5972   1.847   3.191  11.213 -0.1378  0.1684  0.0590
   70SLPC  H15A 5973   1.945   3.237  11.206  0.5673 -1.2348  0.5905
   70SLPC  H15B 5974   1.792   3.267  11.267  0.5879  0.2531  0.6874
   70SLPC  H15C 5975   1.852   3.100  11.270  0.8966 -0.0050 -0.3158
   70SLPC   C12 5976   1.770   3.279  10.997  0.4150 -0.5155  0.9918
   70SLPC  H12A 5977   1.863   3.332  10.983  2.1048 -3.2493  1.5141
   70SLPC  H12B 5978   1.706   3.346  11.052  0.0605  1.4050 -1.7172
   70SLPC   C11 5979   1.707   3.269  10.852  0.9286  0.4798 -0.6336
   70SLPC  H11A 5980   1.772   3.191  10.807  1.1179  0.2881 -0.0435
   70SLPC  H11B 5981   1.703   3.367  10.799  2.2116  0.4464 -0.8273
   70SLPC     P 5982   1.443   3.293  10.849  0.5255  0.1734 -0.2660
   70SLPC   O13 5983   1.337   3.195  10.838 -0.0976 -0.0923  0.0176
   70SLPC   O14 5984   1.444   3.386  10.964 -0.1375  0.4306  0.0325
   70SLPC   O12 5985   1.577   3.209  10.847  0.2143 -0.3102 -0.3421
   70SLPC   O11 5986   1.449   3.374  10.721  0.1215 -0.1643  0.3099
   70SLPC    C1 5987   1.489   3.324  10.593 -0.2710 -0.5753 -0.2335
   70SLPC    HA 5988   1.580   3.377  10.557 -0.3263 -0.7013 -0.5559
   70SLPC    HB 5989   1.501   3.214  10.592 -0.0833 -0.6099  2.6742
   70SLPC    C2 5990   1.391   3.369  10.483  0.4048  0.7711 -0.0226
   70SLPC    HS 5991   1.287   3.339  10.510  0.4208 -0.8154 -1.6688
   70SLPC   O21 5992   1.425   3.315  10.360 -0.3307 -0.0779  0.4430
   70SLPC   C21 5993   1.327   3.255  10.283  0.7089  0.7424  0.4781
   70SLPC   O22 5994   1.210   3.270  10.302 -0.1294 -0.5546  0.1485
   70SLPC   C22 5995   1.387   3.195  10.161  0.2262 -0.3859  0.1249
   70SLPC   H2R 5996   1.498   3.190  10.164  0.4176  1.0378 -2.7572
   70SLPC   H2S 5997   1.333   3.097  10.154 -1.4003  0.1264  4.1064
   70SLPC    C3 5998   1.404   3.524  10.476 -0.4001 -0.2557 -0.1783
   70SLPC    HX 5999   1.510   3.550  10.457 -0.9251  1.8848 -0.2634
   70SLPC    HY 6000   1.379   3.560  10.578  1.3185  0.1053  0.1185
   70SLPC   O31 6001   1.326   3.583  10.370 -0.9013  0.3425 -0.3500
   70SLPC   C31 6002   1.198   3.615  10.395 -0.4677 -0.8165 -0.7487
   70SLPC   O32 6003   1.139   3.588  10.498  0.2684 -0.6071  0.0812
   70SLPC   C32 6004   1.144   3.689  10.273  0.0082 -0.4462 -0.5636
   70SLPC   H2X 6005   1.186   3.792  10.271 -0.6447 -0.1633 -0.0021
   70SLPC   H2Y 6006   1.034   3.699  10.286  0.1544 -0.1511  0.4281
   70SLPC   C23 6007   1.356   3.283  10.041  0.1367 -0.1320  0.2343
   70SLPC   H3R 6008   1.386   3.389  10.053 -0.4557 -0.1374  1.9585
   70SLPC   H3S 6009   1.246   3.266  10.036  0.1369  0.2488 -1.4786
   70SLPC   C24 6010   1.428   3.220   9.917 -0.0801 -0.3363  0.0014
   70SLPC   H4R 6011   1.402   3.112   9.912 -0.5122 -0.1604 -2.2586
   70SLPC   H4S 6012   1.538   3.229   9.929 -0.0920  0.7705 -0.6298
   70SLPC   C25 6013   1.375   3.296   9.789 -0.0876 -0.4009  0.0261
   70SLPC   H5R 6014   1.377   3.405   9.810  2.1380 -0.3962 -0.0785
   70SLPC   H5S 6015   1.269   3.280   9.758 -0.4121  2.3348 -0.3718
   70SLPC   C26 6016   1.457   3.258   9.663  0.0391 -0.0198  0.7091
   70SLPC   H6R 6017   1.478   3.150   9.649  0.4524  0.1077  0.3327
   70SLPC   H6S 6018   1.564   3.285   9.674  0.1970  0.0012 -0.7980
   70SLPC   C27 6019   1.408   3.322   9.533 -0.2516 -0.2880  0.0982
   70SLPC   H7R 6020   1.388   3.431   9.542 -1.3332 -0.5536  0.9683
   70SLPC   H7S 6021   1.314   3.277   9.496  1.2074 -0.9912 -2.9366
   70SLPC   C28 6022   1.509   3.303   9.412  0.1144 -0.0489 -0.4713
   70SLPC   H8R 6023   1.553   3.202   9.414 -1.3822 -0.7030  0.5726
   70SLPC   H8S 6024   1.602   3.360   9.430  0.4613  0.3286 -3.2609
   70SLPC   C29 6025   1.450   3.342   9.284 -0.3582  0.5532  0.2217
   70SLPC   H9R 6026   1.435   3.450   9.272  1.8335  1.2206  3.0452
   70SLPC  C210 6027   1.428   3.263   9.170 -0.1085  0.0856 -0.1317
   70SLPC  H10R 6028   1.394   3.326   9.086  0.3248  0.6509  0.1070
   70SLPC  C211 6029   1.464   3.116   9.163  0.8406  0.1380 -0.9091
   70SLPC  H11R 6030   1.440   3.072   9.262 -0.7101 -0.2109 -1.4306
   70SLPC  H11S 6031   1.573   3.101   9.149  0.9195 -1.2227  0.9704
   70SLPC  C212 6032   1.382   3.040   9.060 -0.3314  0.1115 -0.1516
   70SLPC  H12R 6033   1.281   3.016   9.097 -0.6271  0.6699 -0.5858
   70SLPC  C213 6034   1.425   3.025   8.936  0.1767  0.0536  0.5165
   70SLPC  H13R 6035   1.347   3.003   8.862  0.6557  0.7085 -0.1903
   70SLPC  C214 6036   1.555   3.082   8.873 -0.1677  0.3846  0.2562
   70SLPC  H14R 6037   1.611   3.143   8.947  1.5804  0.0530 -0.7513
   70SLPC  H14S 6038   1.532   3.146   8.786  0.2745  0.4901  0.2127
   70SLPC  C215 6039   1.650   2.974   8.830 -0.1271 -0.1602  0.0163
   70SLPC  H15R 6040   1.694   2.910   8.909 -1.1253 -0.1116  0.6288
   70SLPC  H15S 6041   1.741   3.021   8.788  0.2611  1.3700  2.4929
   70SLPC  C216 6042   1.598   2.882   8.720  0.4264 -0.1377 -0.0560
   70SLPC  H16R 6043   1.553   2.937   8.635 -1.9651  0.0765  1.2878
   70SLPC  H16S 6044   1.511   2.827   8.763  1.2694 -0.3374  1.4432
   70SLPC  C217 6045   1.691   2.785   8.656 -0.4610  0.4833 -0.0575
   70SLPC  H17R 6046   1.699   2.699   8.725  1.5379  1.6157  1.1940
   70SLPC  H17S 6047   1.793   2.828   8.642  0.4427 -2.0028 -1.4864
   70SLPC  C218 6048   1.641   2.738   8.519  0.2184 -0.4981 -0.2170
   70SLPC  H18R 6049   1.649   2.828   8.455 -0.6384 -0.6110 -0.4941
   70SLPC  H18S 6050   1.535   2.706   8.510  0.4618 -1.5761  0.5402
   70SLPC  H18T 6051   1.711   2.663   8.475 -1.2661 -0.9943 -1.8038
   70SLPC   C33 6052   1.173   3.613  10.145  0.3874  0.2801 -0.3396
   70SLPC   H3X 6053   1.134   3.509  10.149  1.1139  0.0725  2.2913
   70SLPC   H3Y 6054   1.282   3.594  10.132  0.2030  0.0151 -1.5566
   70SLPC   C34 6055   1.114   3.684  10.030 -0.0065  0.2483 -0.4672
   70SLPC   H4X 6056   1.107   3.795  10.035 -0.1380  0.2579 -0.8388
   70SLPC   H4Y 6057   1.009   3.649  10.031  0.0076  0.2344  0.7636
   70SLPC   C35 6058   1.183   3.654   9.896 -0.4734 -0.4628  0.3141
   70SLPC   H5X 6059   1.224   3.551   9.897  1.5339  0.3154  0.9378
   70SLPC   H5Y 6060   1.277   3.714   9.894 -0.6904 -0.1194  0.4359
   70SLPC   C36 6061   1.101   3.659   9.769  0.0482 -0.2526 -0.3062
   70SLPC   H6X 6062   1.075   3.762   9.738 -0.4033  0.3128  1.8395
   70SLPC   H6Y 6063   1.014   3.591   9.777  0.1558 -0.0908  2.7772
   70SLPC   C37 6064   1.184   3.607   9.644  0.3868  0.1956 -0.2535
   70SLPC   H7X 6065   1.226   3.505   9.660  0.5593  0.1249 -1.1753
   70SLPC   H7Y 6066   1.276   3.669   9.643 -0.7623  1.9723  1.2332
   70SLPC   C38 6067   1.106   3.629   9.516  0.0021  0.2979  0.0512
   70SLPC   H8X 6068   1.058   3.729   9.509 -1.4643 -0.3452  0.6965
   70SLPC   H8Y 6069   1.026   3.553   9.503  1.4324 -1.4632  1.2387
   70SLPC   C39 6070   1.199   3.593   9.394 -0.7034 -0.2801 -0.0657
   70SLPC   H9X 6071   1.221   3.484   9.396 -2.3889 -0.6900 -2.0844
   70SLPC   H9Y 6072   1.295   3.648   9.410 -0.9096 -0.4241  1.7498
   70SLPC  C310 6073   1.147   3.637   9.260 -0.4058 -0.1047  0.4532
   70SLPC  H10X 6074   1.110   3.742   9.262 -0.7589 -0.2339  0.7702
   70SLPC  H10Y 6075   1.064   3.570   9.232 -1.5183  0.9144  1.2619
   70SLPC  C311 6076   1.258   3.622   9.147 -0.4521 -0.0904  0.2017
   70SLPC  H11X 6077   1.273   3.517   9.114  1.5894  0.8545 -2.0564
   70SLPC  H11Y 6078   1.350   3.674   9.183  0.4835 -1.5970  0.0293
   70SLPC  C312 6079   1.215   3.677   9.007  0.2136 -0.3242 -0.6445
   70SLPC  H12X 6080   1.180   3.782   9.010  2.0399  0.3458 -1.5411
   70SLPC  H12Y 6081   1.128   3.617   8.971  1.5752 -1.9432 -1.3616
   70SLPC  C313 6082   1.338   3.669   8.911 -0.1048  0.4262  0.5981
   70SLPC  H13X 6083   1.399   3.576   8.915  0.4611  0.8072  1.0497
   70SLPC  H13Y 6084   1.408   3.748   8.948  0.0187 -0.6463  2.7787
   70SLPC  C314 6085   1.306   3.694   8.755  0.2748 -0.4105 -0.5054
   70SLPC  H14X 6086   1.404   3.682   8.704 -1.1902 -2.0764 -3.0741
   70SLPC  H14Y 6087   1.261   3.795   8.744  0.5020 -0.1518  0.9232
   70SLPC  C315 6088   1.207   3.594   8.692 -0.0731  0.1864  0.2112
   70SLPC  H15X 6089   1.101   3.617   8.718 -0.5384 -1.8653  0.1849
   70SLPC  H15Y 6090   1.222   3.491   8.731  1.0483 -0.3775 -1.6582
   70SLPC  C316 6091   1.231   3.572   8.542 -0.4389  0.1458  0.2713
   70SLPC  H16X 6092   1.335   3.555   8.510 -0.4336 -1.5172  1.1230
   70SLPC  H16Y 6093   1.213   3.674   8.502 -2.0331  0.4785  1.7337
   70SLPC  C317 6094   1.137   3.470   8.477  0.1375  0.9801  0.8840
   70SLPC  H17X 6095   1.035   3.496   8.511 -0.3381 -0.3711  0.4948
   70SLPC  H17Y 6096   1.164   3.369   8.515  0.0962  0.4589 -0.4240
   70SLPC  C318 6097   1.140   3.491   8.325  0.2146 -0.0359  0.0877
   70SLPC  H18X 6098   1.107   3.588   8.282  0.9974  0.4769  0.6129
   70SLPC  H18Y 6099   1.081   3.408   8.280  1.6197  0.4818 -2.7978
   70SLPC  H18Z 6100   1.247   3.491   8.292 -0.3262  2.5320 -1.8119
   71SLPC     N 6101   0.752   1.811  11.031 -0.2417 -0.2359  0.4657
   71SLPC   C13 6102   0.687   1.938  10.988 -0.1195  0.7843  0.4875
   71SLPC  H13A 6103   0.716   2.021  11.051 -1.5136  2.1668 -0.6622
   71SLPC  H13B 6104   0.721   1.949  10.886 -0.0649 -1.9379  0.1694
   71SLPC  H13C 6105   0.580   1.926  10.986  0.1176 -1.1955 -2.1752
   71SLPC   C14 6106   0.674   1.757  11.148 -0.6190  0.2212 -1.2256
   71SLPC  H14A 6107   0.737   1.678  11.187  0.5858  1.3178 -0.9207
   71SLPC  H14B 6108   0.643   1.834  11.217  1.5943 -0.4207  0.5466
   71SLPC  H14C 6109   0.581   1.709  11.119 -0.3621 -1.9638  1.4006
   71SLPC   C15 6110   0.889   1.849  11.080 -0.2306  0.0587 -0.0707
   71SLPC  H15A 6111   0.947   1.889  10.999  1.7071 -1.3939  0.5413
   71SLPC  H15B 6112   0.878   1.918  11.162 -1.8176 -0.1443 -0.0924
   71SLPC  H15C 6113   0.946   1.765  11.118  0.1686  0.3018 -0.1328
   71SLPC   C12 6114   0.745   1.706  10.924  0.0585 -0.3975  0.0466
   71SLPC  H12A 6115   0.646   1.702  10.882 -0.5599 -0.3751  1.5067
   71SLPC  H12B 6116   0.759   1.608  10.967 -2.8592 -1.0509 -0.3953
   71SLPC   C11 6117   0.835   1.718  10.796  0.5175 -0.0354  0.7542
   71SLPC  H11A 6118   0.821   1.627  10.733 -0.3850  0.2367  0.5544
   71SLPC  H11B 6119   0.943   1.724  10.818  0.9868 -1.8930 -0.9056
   71SLPC     P 6120   0.681   1.842  10.625  0.0523  0.0902  0.0266
   71SLPC   O13 6121   0.568   1.794  10.705 -0.3858  0.5010 -0.2957
   71SLPC   O14 6122   0.673   1.977  10.568 -0.0585 -0.2558  0.2738
   71SLPC   O12 6123   0.805   1.833  10.723  0.2612  0.1353  0.4806
   71SLPC   O11 6124   0.709   1.743  10.515 -0.2242  0.0813  0.1192
   71SLPC    C1 6125   0.837   1.718  10.449  0.3050 -0.0237  0.1363
   71SLPC    HA 6126   0.927   1.704  10.513 -0.1487 -0.8976  0.5955
   71SLPC    HB 6127   0.820   1.632  10.380 -3.4035  0.5059  0.2638
   71SLPC    C2 6128   0.879   1.829  10.348 -0.1423  0.2571  0.4538
   71SLPC    HS 6129   0.888   1.928  10.397  0.1880  0.2228  0.4618
   71SLPC   O21 6130   0.780   1.823  10.248 -0.0066  0.0231  0.0622
   71SLPC   C21 6131   0.740   1.924  10.182  0.4458  0.2817  0.4847
   71SLPC   O22 6132   0.780   2.040  10.191 -0.5578  0.4874 -0.4206
   71SLPC   C22 6133   0.627   1.877  10.087  0.1646  0.9849  1.2389
   71SLPC   H2R 6134   0.600   1.770  10.102 -0.5774  0.9298 -0.3564
   71SLPC   H2S 6135   0.539   1.934  10.125  0.1905  0.4293  2.1310
   71SLPC    C3 6136   1.019   1.800  10.274  0.1816  0.0125  0.2027
   71SLPC    HX 6137   1.009   1.697  10.234 -0.1183 -0.5460  1.6916
   71SLPC    HY 6138   1.094   1.804  10.356 -1.9904 -0.5066  2.2834
   71SLPC   O31 6139   1.049   1.894  10.173  0.0749  0.2721  0.8103
   71SLPC   C31 6140   1.094   2.018  10.207 -0.4323 -0.4286 -0.3616
   71SLPC   O32 6141   1.099   2.067  10.323 -0.3507  0.4289 -0.1694
   71SLPC   C32 6142   1.143   2.081  10.074 -0.3383  0.3438  0.3214
   71SLPC   H2X 6143   1.170   2.009   9.994  2.3591  3.0052 -1.2774
   71SLPC   H2Y 6144   1.236   2.139  10.094  2.1986 -3.2540 -0.5246
   71SLPC   C23 6145   0.662   1.916   9.946 -0.4369 -0.2636  0.0436
   71SLPC   H3R 6146   0.682   2.026   9.942 -0.7349 -0.2405 -1.1488
   71SLPC   H3S 6147   0.577   1.891   9.879 -0.0337 -1.2251 -0.1185
   71SLPC   C24 6148   0.789   1.850   9.896  0.4769  0.2901 -0.6306
   71SLPC   H4R 6149   0.765   1.742   9.882  1.4806  0.2840 -2.4198
   71SLPC   H4S 6150   0.873   1.847   9.969 -0.3978  0.5392  0.4098
   71SLPC   C25 6151   0.840   1.906   9.765  0.1701  0.0309  0.9578
   71SLPC   H5R 6152   0.892   2.004   9.780 -0.0050  0.6626 -2.1798
   71SLPC   H5S 6153   0.756   1.924   9.695 -0.0576 -0.1991  1.1701
   71SLPC   C26 6154   0.927   1.797   9.691 -1.1521  0.4771  0.6292
   71SLPC   H6R 6155   0.870   1.702   9.683  1.8809 -1.5061  1.5831
   71SLPC   H6S 6156   1.013   1.781   9.759 -0.4989  0.1581 -0.2563
   71SLPC   C27 6157   0.982   1.842   9.557 -0.4851 -0.3336  0.0017
   71SLPC   H7R 6158   1.039   1.936   9.568 -0.7119 -0.2259  0.2641
   71SLPC   H7S 6159   0.896   1.851   9.486  0.4000  1.3138 -0.8732
   71SLPC   C28 6160   1.076   1.750   9.483  0.1453 -0.0438  0.4212
   71SLPC   H8R 6161   1.164   1.739   9.550  0.8931  0.4348 -0.4787
   71SLPC   H8S 6162   1.115   1.800   9.392 -1.2473  2.4210  1.1067
   71SLPC   C29 6163   1.009   1.616   9.444  1.0353 -0.2342  1.1212
   71SLPC   H9R 6164   0.962   1.567   9.530 -0.9805  1.1388  0.8301
   71SLPC  C210 6165   0.984   1.567   9.319  0.7728 -0.2064 -0.7869
   71SLPC  H10R 6166   0.939   1.468   9.305 -1.3861  0.9933 -2.5994
   71SLPC  C211 6167   1.024   1.630   9.194  0.2975 -0.0910 -0.8483
   71SLPC  H11R 6168   1.133   1.615   9.177  1.0580 -0.6164  3.6764
   71SLPC  H11S 6169   1.008   1.740   9.205  1.1822 -0.2580  2.9080
   71SLPC  C212 6170   0.957   1.590   9.068 -0.2398 -0.6578 -0.2344
   71SLPC  H12R 6171   0.890   1.503   9.074 -1.4765  0.2285 -0.9598
   71SLPC  C213 6172   0.965   1.652   8.943 -0.8913  0.3366  0.0243
   71SLPC  H13R 6173   0.917   1.609   8.855 -1.6128 -0.6639  0.8882
   71SLPC  C214 6174   1.053   1.769   8.919  0.4761  0.9199  0.2730
   71SLPC  H14R 6175   1.141   1.770   8.987 -1.1523 -0.9306  2.4647
   71SLPC  H14S 6176   1.001   1.867   8.930  0.6797  0.7684  2.8319
   71SLPC  C215 6177   1.102   1.763   8.777  0.1936  0.4934 -0.2247
   71SLPC  H15R 6178   1.019   1.762   8.703 -0.3357 -1.7477  0.3659
   71SLPC  H15S 6179   1.148   1.665   8.749 -0.2920  0.2679 -0.2361
   71SLPC  C216 6180   1.208   1.870   8.732 -0.0033  0.0653 -0.1172
   71SLPC  H16R 6181   1.299   1.840   8.788 -0.5549  0.7190  1.1684
   71SLPC  H16S 6182   1.176   1.975   8.752  2.5394  0.7584  0.5843
   71SLPC  C217 6183   1.251   1.864   8.583 -0.3344  0.6080  0.1126
   71SLPC  H17R 6184   1.269   1.760   8.550 -3.7173  0.3373 -1.1518
   71SLPC  H17S 6185   1.344   1.919   8.558  1.3561 -1.3195  2.0812
   71SLPC  C218 6186   1.145   1.924   8.495  0.0912 -0.0106 -0.5240
   71SLPC  H18R 6187   1.049   1.876   8.523  1.6948 -2.8982  0.1345
   71SLPC  H18S 6188   1.175   1.909   8.389 -1.5885 -1.0298 -0.8794
   71SLPC  H18T 6189   1.131   2.033   8.514 -3.0656 -0.2024 -1.4160
   71SLPC   C33 6190   1.041   2.172  10.006  0.8383  0.1929  0.4572
   71SLPC   H3X 6191   1.006   2.252  10.074 -0.0212  0.4895 -0.3370
   71SLPC   H3Y 6192   0.954   2.114   9.971  0.9461  0.6902 -0.6309
   71SLPC   C34 6193   1.100   2.243   9.875 -0.1734  0.3793 -0.3650
   71SLPC   H4X 6194   1.162   2.172   9.816 -0.9584  0.8879 -1.8269
   71SLPC   H4Y 6195   1.174   2.320   9.908 -0.1140  0.7661 -1.3736
   71SLPC   C35 6196   0.996   2.316   9.790  0.0847 -0.1952 -0.5245
   71SLPC   H5X 6197   0.928   2.373   9.857  0.1010  0.9024 -1.4404
   71SLPC   H5Y 6198   0.933   2.234   9.749 -2.0998  1.2332 -0.0778
   71SLPC   C36 6199   1.046   2.416   9.682  0.1831 -0.2333 -0.3287
   71SLPC   H6X 6200   1.107   2.498   9.725  1.2273 -1.2057  0.0763
   71SLPC   H6Y 6201   0.960   2.458   9.625 -0.0781  3.8529  2.8119
   71SLPC   C37 6202   1.137   2.358   9.578  0.4352  0.1096 -0.1162
   71SLPC   H7X 6203   1.206   2.289   9.631 -1.6252 -2.7404 -1.0649
   71SLPC   H7Y 6204   1.185   2.448   9.533 -0.5250  0.7408  0.1042
   71SLPC   C38 6205   1.055   2.279   9.484 -0.0940 -0.2067 -0.4790
   71SLPC   H8X 6206   0.987   2.342   9.421 -1.9410 -0.5769  1.1136
   71SLPC   H8Y 6207   0.992   2.205   9.536  0.6737  1.8188  3.5224
   71SLPC   C39 6208   1.154   2.203   9.387  0.3665  0.6653  0.6705
   71SLPC   H9X 6209   1.229   2.140   9.441  1.0578  1.0159  0.1363
   71SLPC   H9Y 6210   1.210   2.282   9.333 -1.9809  0.5117 -2.0876
   71SLPC  C310 6211   1.081   2.102   9.299  0.5655 -0.1506 -0.3891
   71SLPC  H10X 6212   0.991   2.148   9.253  0.1528 -0.2197  0.3356
   71SLPC  H10Y 6213   1.036   2.018   9.356 -1.0412 -0.4135 -1.9874
   71SLPC  C311 6214   1.169   2.039   9.194 -0.3218 -0.5347  1.4194
   71SLPC  H11X 6215   1.121   1.949   9.151 -0.0963 -0.8961  1.9201
   71SLPC  H11Y 6216   1.265   2.013   9.243 -0.7015  0.1109  2.5263
   71SLPC  C312 6217   1.202   2.123   9.069  0.4295 -0.1276  0.2290
   71SLPC  H12X 6218   1.219   2.229   9.097 -1.0926  0.2395 -0.1718
   71SLPC  H12Y 6219   1.112   2.119   9.003 -1.4504  5.6321  2.1116
   71SLPC  C313 6220   1.326   2.069   8.998 -0.1554  0.2149 -0.1574
   71SLPC  H13X 6221   1.320   1.960   8.982 -0.6295  0.1072  0.7343
   71SLPC  H13Y 6222   1.418   2.084   9.058  1.3792 -1.1619 -2.0940
   71SLPC  C314 6223   1.359   2.157   8.876  0.7875  0.3538  0.0156
   71SLPC  H14X 6224   1.395   2.257   8.910 -0.5306  1.1963 -1.0188
   71SLPC  H14Y 6225   1.263   2.165   8.822  1.4504  1.0470 -1.0930
   71SLPC  C315 6226   1.469   2.091   8.785 -0.0201 -0.4240  0.3501
   71SLPC  H15X 6227   1.459   1.981   8.774 -0.5618 -0.4698  1.2382
   71SLPC  H15Y 6228   1.569   2.101   8.832  1.0214  0.7829 -2.0681
   71SLPC  C316 6229   1.469   2.160   8.655  0.5593  0.1285 -0.4008
   71SLPC  H16X 6230   1.369   2.193   8.620  0.7728  1.1698 -0.0475
   71SLPC  H16Y 6231   1.499   2.079   8.585  1.8494  0.2844 -0.0380
   71SLPC  C317 6232   1.576   2.273   8.644  0.3008 -0.6641  0.7983
   71SLPC  H17X 6233   1.671   2.238   8.690  0.5077 -0.2880  0.6569
   71SLPC  H17Y 6234   1.532   2.357   8.700 -0.1171  1.6872 -2.8827
   71SLPC  C318 6235   1.601   2.323   8.501  0.7817  0.2969 -0.3643
   71SLPC  H18X 6236   1.504   2.347   8.452  0.0926  2.5693  1.9673
   71SLPC  H18Y 6237   1.670   2.254   8.448  0.7055 -1.2216  1.4433
   71SLPC  H18Z 6238   1.669   2.410   8.496  2.5240 -0.9521  0.8808
   72SLPC     N 6239   3.024   0.805  11.082  0.1817  0.4114 -0.7231
   72SLPC   C13 6240   3.073   0.819  11.222 -0.7455  0.9268  0.6360
   72SLPC  H13A 6241   3.075   0.725  11.275 -3.8643  1.3684  1.5960
   72SLPC  H13B 6242   3.175   0.853  11.227 -0.4612  0.5673 -2.1098
   72SLPC  H13C 6243   3.020   0.883  11.290 -1.8571  0.4299  0.2423
   72SLPC   C14 6244   2.989   0.940  11.029 -0.1923  0.0571 -0.2766
   72SLPC  H14A 6245   2.961   0.923  10.926 -0.0501 -0.1643 -0.2796
   72SLPC  H14B 6246   2.919   0.994  11.090 -0.3521 -0.5916  0.1257
   72SLPC  H14C 6247   3.082   0.994  11.031 -0.5539  0.6530  0.8356
   72SLPC   C15 6248   2.899   0.729  11.085 -0.2973 -0.3876 -0.3999
   72SLPC  H15A 6249   2.886   0.655  11.162  0.8445  0.0333  0.2084
   72SLPC  H15B 6250   2.816   0.797  11.099  1.2378  1.3910  0.3444
   72SLPC  H15C 6251   2.886   0.679  10.991  1.2806  1.1943 -1.4892
   72SLPC   C12 6252   3.127   0.737  10.999  0.2119 -0.7972 -0.1346
   72SLPC  H12A 6253   3.140   0.636  11.036  0.7887 -1.2202 -1.4870
   72SLPC  H12B 6254   3.222   0.788  11.006  0.0805 -0.3465 -1.6362
   72SLPC   C11 6255   3.106   0.722  10.841 -0.2874  0.0906  0.6749
   72SLPC  H11A 6256   3.196   0.678  10.793 -1.0659  0.7202 -1.4230
   72SLPC  H11B 6257   3.092   0.819  10.788  3.4028  0.4223  0.2111
   72SLPC     P 6258   2.920   0.589  10.700  0.3425 -0.1058 -0.2366
   72SLPC   O13 6259   2.955   0.444  10.681  0.0491 -0.1271  0.4404
   72SLPC   O14 6260   2.776   0.621  10.703  0.3139  0.0704  0.3712
   72SLPC   O12 6261   2.992   0.638  10.823  0.8698 -0.2173 -0.7268
   72SLPC   O11 6262   2.988   0.666  10.589 -1.0197 -0.3310  0.6495
   72SLPC    C1 6263   2.922   0.768  10.520  0.1509  0.1022  1.0218
   72SLPC    HA 6264   2.851   0.823  10.585 -1.4413  1.2740 -1.6520
   72SLPC    HB 6265   3.002   0.837  10.486  0.3620  0.2957  1.8817
   72SLPC    C2 6266   2.854   0.712  10.393  0.8602 -0.4689  0.0388
   72SLPC    HS 6267   2.790   0.628  10.427  1.6029 -0.1051  2.4254
   72SLPC   O21 6268   2.960   0.671  10.302  0.1292 -0.6078  0.2789
   72SLPC   C21 6269   2.933   0.571  10.213  0.3241  0.2326  0.4828
   72SLPC   O22 6270   2.830   0.511  10.200  0.0754  0.5876  0.2137
   72SLPC   C22 6271   3.054   0.551  10.125 -0.2185  0.0710  0.1733
   72SLPC   H2R 6272   3.115   0.643  10.113 -0.2926  0.1194  0.1639
   72SLPC   H2S 6273   3.115   0.468  10.164  0.6915  0.1158 -1.1441
   72SLPC    C3 6274   2.764   0.825  10.327 -0.2933  0.3962  0.2363
   72SLPC    HX 6275   2.817   0.921  10.309  0.6529 -0.0125  0.7983
   72SLPC    HY 6276   2.687   0.846  10.404  1.3614  0.8444  1.8198
   72SLPC   O31 6277   2.710   0.778  10.203  0.1295  0.3817  0.4872
   72SLPC   C31 6278   2.575   0.754  10.191  0.7298  0.0217 -0.3965
   72SLPC   O32 6279   2.498   0.757  10.286 -0.3048 -0.0137 -0.8398
   72SLPC   C32 6280   2.545   0.719  10.053  0.0573  0.3523  0.2639
   72SLPC   H2X 6281   2.571   0.614  10.030  0.0614  0.5576 -0.6969
   72SLPC   H2Y 6282   2.603   0.785   9.985 -0.0255 -1.2334 -1.3755
   72SLPC   C23 6283   3.012   0.524   9.978  0.0799 -0.2733  0.3772
   72SLPC   H3R 6284   2.943   0.437   9.982 -0.3205  0.0138 -0.1882
   72SLPC   H3S 6285   3.102   0.493   9.921 -0.0736  0.8933 -0.5262
   72SLPC   C24 6286   2.929   0.640   9.909 -1.1791 -0.0089 -0.0116
   72SLPC   H4R 6287   2.997   0.727   9.896 -0.2949 -0.4370  1.6169
   72SLPC   H4S 6288   2.850   0.692   9.968  2.0613  2.6775  2.1926
   72SLPC   C25 6289   2.904   0.593   9.771  0.4636 -0.2612 -0.5662
   72SLPC   H5R 6290   2.973   0.510   9.745  0.1133 -1.8614  3.2593
   72SLPC   H5S 6291   2.934   0.669   9.696 -0.4167 -0.2824 -0.9436
   72SLPC   C26 6292   2.761   0.561   9.754 -0.6010 -0.4545  0.0700
   72SLPC   H6R 6293   2.710   0.626   9.679 -0.6784  0.9984  1.3482
   72SLPC   H6S 6294   2.700   0.550   9.846  2.1386 -1.9065  1.7774
   72SLPC   C27 6295   2.739   0.428   9.684  0.2455 -0.1977 -0.6024
   72SLPC   H7R 6296   2.633   0.399   9.668  0.7581 -1.0509 -2.6316
   72SLPC   H7S 6297   2.788   0.352   9.748 -1.3221 -2.1715 -1.6786
   72SLPC   C28 6298   2.800   0.416   9.540 -0.0669  0.1086  0.1184
   72SLPC   H8R 6299   2.808   0.308   9.517  0.1233  0.3578 -0.9785
   72SLPC   H8S 6300   2.903   0.456   9.536  1.1496 -2.9872 -1.1031
   72SLPC   C29 6301   2.710   0.483   9.438  0.6645 -0.0238  0.5532
   72SLPC   H9R 6302   2.603   0.462   9.439  1.1969 -3.0352 -0.3910
   72SLPC  C210 6303   2.757   0.574   9.348 -0.6045 -0.4181 -0.5034
   72SLPC  H10R 6304   2.680   0.602   9.274 -1.1533  0.8782  0.5326
   72SLPC  C211 6305   2.899   0.637   9.347  0.0948  0.1143  0.2365
   72SLPC  H11R 6306   2.963   0.547   9.362 -0.3126 -0.5311 -1.7559
   72SLPC  H11S 6307   2.897   0.704   9.436  0.4867  0.1613  0.2096
   72SLPC  C212 6308   2.951   0.710   9.228  0.2326 -0.5677  1.0636
   72SLPC  H12R 6309   2.956   0.819   9.237  2.5937 -0.6255  0.8229
   72SLPC  C213 6310   3.004   0.650   9.122 -0.5750  0.1625  0.5390
   72SLPC  H13R 6311   3.050   0.721   9.052 -0.2333  0.1615  0.7618
   72SLPC  C214 6312   3.012   0.502   9.094  0.3819 -0.7155 -0.1280
   72SLPC  H14R 6313   2.950   0.442   9.164 -0.2382 -1.0789 -0.9728
   72SLPC  H14S 6314   3.119   0.479   9.116  0.9461  2.0139  0.1367
   72SLPC  C215 6315   2.988   0.468   8.947 -0.0061 -0.4813  0.8656
   72SLPC  H15R 6316   2.884   0.490   8.915  1.9241  3.3284 -3.3976
   72SLPC  H15S 6317   3.006   0.361   8.924  1.4490  0.2107 -1.3481
   72SLPC  C216 6318   3.079   0.541   8.851 -0.3068  0.4261 -0.0870
   72SLPC  H16R 6319   3.187   0.527   8.869 -0.4581  0.1853  0.6267
   72SLPC  H16S 6320   3.057   0.649   8.859 -3.1146 -0.0768 -0.4221
   72SLPC  C217 6321   3.050   0.492   8.710  0.4720 -0.1113 -0.2635
   72SLPC  H17R 6322   3.096   0.572   8.648  0.4040  0.0798 -0.0721
   72SLPC  H17S 6323   2.940   0.481   8.696  0.2392 -1.0669  2.0324
   72SLPC  C218 6324   3.112   0.363   8.667 -0.2865 -0.0515 -0.0445
   72SLPC  H18R 6325   3.067   0.327   8.572  0.7199  0.7563 -0.8360
   72SLPC  H18S 6326   3.093   0.286   8.744  0.9695 -0.7787 -0.4524
   72SLPC  H18T 6327   3.221   0.365   8.648 -0.4370  1.9372 -0.7802
   72SLPC   C33 6328   2.392   0.746  10.019 -0.4959 -0.4971 -0.5571
   72SLPC   H3X 6329   2.345   0.841  10.051  0.8980 -0.8137  2.6026
   72SLPC   H3Y 6330   2.347   0.660  10.074  1.6450 -2.1062 -1.2485
   72SLPC   C34 6331   2.364   0.710   9.869 -0.2393 -0.4125 -0.0359
   72SLPC   H4X 6332   2.430   0.622   9.850  0.5302 -0.1805  1.4239
   72SLPC   H4Y 6333   2.403   0.802   9.822  1.3070 -1.7213 -1.3967
   72SLPC   C35 6334   2.218   0.689   9.819  0.4466 -0.4233  0.1946
   72SLPC   H5X 6335   2.158   0.780   9.796  0.3353 -1.4401 -3.8800
   72SLPC   H5Y 6336   2.151   0.635   9.889  2.1530 -1.6545  0.9174
   72SLPC   C36 6337   2.209   0.593   9.697  0.2708 -0.1092 -0.7538
   72SLPC   H6X 6338   2.106   0.566   9.667 -0.2820 -0.6609  1.5334
   72SLPC   H6Y 6339   2.255   0.494   9.718 -0.6742 -0.5930 -0.9392
   72SLPC   C37 6340   2.276   0.640   9.569  0.5273 -0.5854  0.4764
   72SLPC   H7X 6341   2.385   0.647   9.590  0.3167 -0.7503  1.6636
   72SLPC   H7Y 6342   2.235   0.737   9.537 -0.1868 -0.3779  1.9643
   72SLPC   C38 6343   2.272   0.541   9.458 -0.3094 -0.6000  0.3421
   72SLPC   H8X 6344   2.164   0.523   9.436 -0.5244  1.1400 -0.0832
   72SLPC   H8Y 6345   2.313   0.439   9.473  0.7492 -0.1373  0.5773
   72SLPC   C39 6346   2.336   0.595   9.325 -0.4842  0.5073  0.0260
   72SLPC   H9X 6347   2.439   0.637   9.337  0.0461 -1.0807  1.3103
   72SLPC   H9Y 6348   2.279   0.676   9.275  0.8285  0.9181 -0.8341
   72SLPC  C310 6349   2.354   0.491   9.223 -0.6864  0.0239  0.7478
   72SLPC  H10X 6350   2.259   0.440   9.196 -1.3396  1.7932 -0.3857
   72SLPC  H10Y 6351   2.432   0.414   9.242  1.0333  0.7746 -2.8198
   72SLPC  C311 6352   2.381   0.567   9.084 -0.0623 -0.1532 -0.3045
   72SLPC  H11X 6353   2.453   0.650   9.102  0.2777 -0.8187  1.5501
   72SLPC  H11Y 6354   2.290   0.621   9.052  0.0610  0.6529  0.6600
   72SLPC  C312 6355   2.426   0.480   8.963  0.1891 -0.7665  0.2964
   72SLPC  H12X 6356   2.338   0.416   8.944 -1.7484  1.6612  0.8146
   72SLPC  H12Y 6357   2.519   0.425   8.992  0.1878 -3.1439 -3.9047
   72SLPC  C313 6358   2.441   0.558   8.832 -0.3384  0.1475 -0.1417
   72SLPC  H13X 6359   2.353   0.626   8.827  0.8768  1.7272 -0.4530
   72SLPC  H13Y 6360   2.433   0.491   8.744 -2.9667 -2.4254  1.9729
   72SLPC  C314 6361   2.569   0.642   8.811 -0.2413 -0.2841 -0.0441
   72SLPC  H14X 6362   2.647   0.578   8.764  0.4979  1.7241 -1.6310
   72SLPC  H14Y 6363   2.604   0.673   8.912  0.6555  2.4569 -1.1462
   72SLPC  C315 6364   2.540   0.768   8.729 -0.8266  0.4205 -0.4015
   72SLPC  H15X 6365   2.618   0.845   8.747  2.1052 -2.6638  0.7997
   72SLPC  H15Y 6366   2.441   0.800   8.767 -0.1857 -0.3719  2.0373
   72SLPC  C316 6367   2.523   0.747   8.575 -0.1737  0.3193 -0.2596
   72SLPC  H16X 6368   2.512   0.850   8.534 -0.6637  0.1059 -0.6707
   72SLPC  H16Y 6369   2.427   0.693   8.559 -0.0089  0.2499 -1.0574
   72SLPC  C317 6370   2.635   0.674   8.498 -0.7757 -0.4238 -0.5138
   72SLPC  H17X 6371   2.663   0.584   8.555  1.1952 -0.1039 -0.9390
   72SLPC  H17Y 6372   2.727   0.737   8.497 -1.6251  0.8426 -0.7107
   72SLPC  C318 6373   2.603   0.639   8.358 -0.4555  0.3118  0.4155
   72SLPC  H18X 6374   2.551   0.719   8.301 -1.1488 -1.8085 -2.0182
   72SLPC  H18Y 6375   2.546   0.544   8.367  1.9433 -1.0948  1.0164
   72SLPC  H18Z 6376   2.691   0.607   8.298  0.5563  0.3331  1.8760
   73SLPC     N 6377   2.290   6.109  11.082  0.2956 -0.0304  0.6357
   73SLPC   C13 6378   2.406   6.025  11.130  0.5370 -0.6532 -0.4470
   73SLPC  H13A 6379   2.486   6.088  11.166 -0.3935  0.3889 -0.1946
   73SLPC  H13B 6380   2.371   5.969  11.216 -1.9169  0.6619 -0.5507
   73SLPC  H13C 6381   2.445   5.963  11.051  2.6834 -0.2403  0.2625
   73SLPC   C14 6382   2.341   6.236  11.017 -0.3406 -0.5089 -0.0819
   73SLPC  H14A 6383   2.403   6.294  11.084 -1.2934  2.5178 -1.7167
   73SLPC  H14B 6384   2.403   6.213  10.932 -0.4828  1.8011 -0.8520
   73SLPC  H14C 6385   2.269   6.306  10.978 -1.9718 -1.7427  0.6518
   73SLPC   C15 6386   2.209   6.148  11.196  0.0591 -0.4973  0.1182
   73SLPC  H15A 6387   2.271   6.196  11.270 -0.0234  0.7336 -0.6030
   73SLPC  H15B 6388   2.131   6.215  11.164  1.3815 -0.2698 -2.7296
   73SLPC  H15C 6389   2.164   6.065  11.249 -1.4138  0.9159  1.1130
   73SLPC   C12 6390   2.211   6.038  10.971 -0.5940 -0.3367 -1.0410
   73SLPC  H12A 6391   2.116   6.086  10.951 -1.1579 -0.2266  1.7071
   73SLPC  H12B 6392   2.186   5.938  11.003  0.8310 -0.1131  0.8340
   73SLPC   C11 6393   2.276   6.026  10.834  0.2912  0.0981 -0.1995
   73SLPC  H11A 6394   2.280   6.125  10.785 -1.9989  0.0643 -0.5127
   73SLPC  H11B 6395   2.208   5.962  10.774 -1.8273  2.6584 -0.6116
   73SLPC     P 6396   2.539   6.023  10.770  0.0609  0.3756  0.1795
   73SLPC   O13 6397   2.542   6.172  10.801 -0.4263  0.6182  0.1742
   73SLPC   O14 6398   2.652   5.946  10.808 -0.1239  0.0986  0.1174
   73SLPC   O12 6399   2.410   5.961  10.841 -0.2810 -0.0527  0.0100
   73SLPC   O11 6400   2.502   6.007  10.622  0.4147 -0.4052 -0.2713
   73SLPC    C1 6401   2.466   6.122  10.543  0.2237 -0.2009  0.0819
   73SLPC    HA 6402   2.377   6.173  10.586  1.6502  2.7409 -0.2995
   73SLPC    HB 6403   2.550   6.194  10.535  0.2112 -0.1294  0.5893
   73SLPC    C2 6404   2.429   6.075  10.396  0.0200 -0.0269  0.6207
   73SLPC    HS 6405   2.419   6.163  10.328  3.1046 -1.6068 -1.9927
   73SLPC   O21 6406   2.305   6.003  10.394 -0.2089  0.1625 -0.7177
   73SLPC   C21 6407   2.194   6.081  10.422  0.2425  0.4233 -0.1782
   73SLPC   O22 6408   2.190   6.199  10.422  0.2421  0.0741 -0.5939
   73SLPC   C22 6409   2.080   5.986  10.451  0.2610  0.6371 -0.2789
   73SLPC   H2R 6410   2.110   5.879  10.460  1.4523  1.0620  0.8552
   73SLPC   H2S 6411   2.035   6.014  10.548  1.1858  0.2483  0.2675
   73SLPC    C3 6412   2.541   5.982  10.336  0.0864 -0.1730 -0.2580
   73SLPC    HX 6413   2.549   5.888  10.394 -0.5786 -1.3849 -2.0633
   73SLPC    HY 6414   2.629   6.050  10.331  1.3270 -1.7581 -0.1475
   73SLPC   O31 6415   2.509   5.956  10.200  0.3975  0.0726  0.9083
   73SLPC   C31 6416   2.463   5.833  10.173  1.4481  0.0348  0.2121
   73SLPC   O32 6417   2.413   5.754  10.256  0.9058 -0.0105  0.6745
   73SLPC   C32 6418   2.487   5.801  10.028 -0.0358 -0.2729 -0.5187
   73SLPC   H2X 6419   2.593   5.775  10.009  0.4705  1.8853 -0.7429
   73SLPC   H2Y 6420   2.466   5.892   9.968  0.3140 -0.2048 -0.5371
   73SLPC   C23 6421   1.974   5.986  10.328  0.3026  0.8558 -0.1899
   73SLPC   H3R 6422   1.954   6.092  10.303  0.1743  0.6732 -0.8608
   73SLPC   H3S 6423   1.889   5.934  10.378 -0.2422  1.5027 -0.4321
   73SLPC   C24 6424   2.010   5.892  10.214  0.3003 -0.2027 -0.3300
   73SLPC   H4R 6425   1.920   5.865  10.155 -0.2391 -2.6836  1.5485
   73SLPC   H4S 6426   2.042   5.799  10.265 -1.6368 -0.9003 -0.3337
   73SLPC   C25 6427   2.114   5.951  10.108  0.1822  0.2259 -0.3816
   73SLPC   H5R 6428   2.138   5.870  10.036 -0.2176 -0.1781 -0.0671
   73SLPC   H5S 6429   2.215   5.979  10.145 -0.0233  0.7375 -0.2103
   73SLPC   C26 6430   2.059   6.070  10.030 -0.0072  0.7028  0.2125
   73SLPC   H6R 6431   2.055   6.151  10.105  1.7235  0.8753  0.1296
   73SLPC   H6S 6432   1.951   6.056  10.005 -0.1520 -0.5973  1.5009
   73SLPC   C27 6433   2.136   6.103   9.906 -0.1297 -0.4417  0.2283
   73SLPC   H7R 6434   2.242   6.114   9.938 -0.0606 -1.6323  0.4336
   73SLPC   H7S 6435   2.107   6.202   9.863 -1.0088 -0.6570  0.3069
   73SLPC   C28 6436   2.115   5.996   9.793  0.0859 -0.7655  0.2876
   73SLPC   H8R 6437   2.009   5.962   9.792 -0.3262  0.5112 -2.0152
   73SLPC   H8S 6438   2.169   5.903   9.820 -1.4975 -2.4299 -2.1196
   73SLPC   C29 6439   2.159   6.029   9.654  0.0044 -0.2626 -0.0640
   73SLPC   H9R 6440   2.256   6.080   9.647 -0.3934  0.5764  0.3461
   73SLPC  C210 6441   2.079   6.039   9.549 -0.0373  0.1070 -0.0936
   73SLPC  H10R 6442   2.118   6.077   9.453  1.6107  1.1238  0.9456
   73SLPC  C211 6443   1.930   6.010   9.556  0.2742  0.1595  0.4742
   73SLPC  H11R 6444   1.883   6.044   9.462 -0.1712 -0.5424  0.4340
   73SLPC  H11S 6445   1.898   6.064   9.647 -0.6737  0.1038  0.1756
   73SLPC  C212 6446   1.888   5.863   9.584 -0.3660 -0.4700 -0.6459
   73SLPC  H12R 6447   1.864   5.848   9.691  0.7496 -1.3686 -0.5109
   73SLPC  C213 6448   1.886   5.764   9.492 -1.1584 -0.0019 -0.4722
   73SLPC  H13R 6449   1.856   5.665   9.531  0.4608 -0.2761  0.0975
   73SLPC  C214 6450   1.920   5.779   9.350 -0.1643  0.4857  0.5373
   73SLPC  H14R 6451   1.986   5.699   9.310 -0.3704  0.3420  0.4847
   73SLPC  H14S 6452   1.992   5.862   9.336 -1.3309  1.5196  0.6619
   73SLPC  C215 6453   1.806   5.796   9.255  0.1462 -0.4527 -0.2396
   73SLPC  H15R 6454   1.728   5.863   9.295  0.0119 -0.2533 -0.8441
   73SLPC  H15S 6455   1.760   5.695   9.243  0.8874 -0.7639 -0.5609
   73SLPC  C216 6456   1.860   5.833   9.119  0.0143 -0.9934 -0.0820
   73SLPC  H16R 6457   1.941   5.760   9.097  2.9058  1.8878  0.6117
   73SLPC  H16S 6458   1.928   5.921   9.119  1.0278 -1.7565  0.8005
   73SLPC  C217 6459   1.752   5.837   9.014 -0.3907 -0.4288 -0.2907
   73SLPC  H17R 6460   1.673   5.912   9.039 -1.5661 -1.6958 -0.1249
   73SLPC  H17S 6461   1.702   5.738   9.016 -0.3901 -0.3974  1.4099
   73SLPC  C218 6462   1.803   5.867   8.878  0.0689  0.0383 -0.2965
   73SLPC  H18R 6463   1.854   5.966   8.866  1.5969 -0.8405 -1.2161
   73SLPC  H18S 6464   1.718   5.863   8.806 -0.3939  3.6751 -0.0449
   73SLPC  H18T 6465   1.879   5.794   8.844  1.0863  0.8749  0.1814
   73SLPC   C33 6466   2.405   5.681   9.964 -0.5067 -0.2632 -0.5163
   73SLPC   H3X 6467   2.297   5.706   9.973 -0.6058 -0.8253 -0.1577
   73SLPC   H3Y 6468   2.408   5.583  10.016 -0.4953 -0.3068 -0.5981
   73SLPC   C34 6469   2.444   5.658   9.815  0.5830  0.2947  0.0086
   73SLPC   H4X 6470   2.409   5.557   9.787  0.5925 -0.2549  1.9445
   73SLPC   H4Y 6471   2.554   5.655   9.799  0.5152  0.0870 -0.4216
   73SLPC   C35 6472   2.366   5.751   9.717  0.1033  0.0560 -0.5518
   73SLPC   H5X 6473   2.398   5.854   9.742  0.2274 -0.0870 -0.1119
   73SLPC   H5Y 6474   2.258   5.735   9.735  0.4590 -0.4664  1.1964
   73SLPC   C36 6475   2.407   5.726   9.570  0.6709  0.8282  0.1707
   73SLPC   H6X 6476   2.370   5.623   9.554  2.5327  0.1898 -0.1468
   73SLPC   H6Y 6477   2.517   5.717   9.556  0.7649  2.2387 -0.1357
   73SLPC   C37 6478   2.345   5.818   9.468 -0.0231  0.0567 -0.4038
   73SLPC   H7X 6479   2.368   5.919   9.508 -0.3048  0.2849 -0.8091
   73SLPC   H7Y 6480   2.234   5.811   9.476 -0.3738  0.0012 -4.3692
   73SLPC   C38 6481   2.384   5.791   9.316 -0.0835 -0.1104 -0.7690
   73SLPC   H8X 6482   2.386   5.680   9.309 -0.2494 -0.2129  0.7006
   73SLPC   H8Y 6483   2.487   5.830   9.300 -0.9077  1.9573 -1.2590
   73SLPC   C39 6484   2.277   5.851   9.231  0.6222  0.4940 -0.6666
   73SLPC   H9X 6485   2.268   5.960   9.251  1.7243  0.4730 -0.0306
   73SLPC   H9Y 6486   2.177   5.805   9.243  0.9050  0.5058  1.8225
   73SLPC  C310 6487   2.331   5.826   9.091  0.4633  0.6143 -0.0587
   73SLPC  H10X 6488   2.339   5.716   9.081 -0.2807  0.5469  0.0302
   73SLPC  H10Y 6489   2.430   5.876   9.086 -0.0560  1.6147 -0.5640
   73SLPC  C311 6490   2.249   5.890   8.981 -0.0718 -0.5614 -0.1010
   73SLPC  H11X 6491   2.217   5.990   9.018  1.4424  0.5508 -1.7181
   73SLPC  H11Y 6492   2.161   5.834   8.943 -1.1806  1.9659 -1.3815
   73SLPC  C312 6493   2.341   5.906   8.862  0.7724 -0.1264  0.4307
   73SLPC  H12X 6494   2.388   5.809   8.836 -3.2652 -2.0050 -0.3508
   73SLPC  H12Y 6495   2.420   5.982   8.877  1.0771 -0.3470 -0.0683
   73SLPC  C313 6496   2.266   5.952   8.727 -0.1632 -0.3757  0.1117
   73SLPC  H13X 6497   2.170   5.896   8.725  0.3866 -1.3230  0.3218
   73SLPC  H13Y 6498   2.337   5.941   8.643 -0.7752  1.5929 -0.7119
   73SLPC  C314 6499   2.239   6.107   8.733  0.1650  0.4347  0.5731
   73SLPC  H14X 6500   2.335   6.161   8.745  1.1094 -0.4820 -2.4899
   73SLPC  H14Y 6501   2.182   6.133   8.825 -1.2488  0.2179 -0.2143
   73SLPC  C315 6502   2.169   6.159   8.604 -0.2219  0.1949 -0.2130
   73SLPC  H15X 6503   2.124   6.260   8.613  0.8085  0.5166  1.4609
   73SLPC  H15Y 6504   2.087   6.086   8.585  1.2286 -1.3561 -0.5876
   73SLPC  C316 6505   2.263   6.156   8.482  0.3646  0.2808 -0.7230
   73SLPC  H16X 6506   2.226   6.086   8.404 -0.7589  1.8315 -1.6287
   73SLPC  H16Y 6507   2.365   6.130   8.518  0.1822 -1.5031 -1.4728
   73SLPC  C317 6508   2.267   6.291   8.417 -0.0583 -0.0674 -0.4257
   73SLPC  H17X 6509   2.294   6.370   8.491  0.1327 -0.0715 -0.4880
   73SLPC  H17Y 6510   2.165   6.313   8.380 -0.7247 -1.2425  0.7010
   73SLPC  C318 6511   2.360   6.299   8.297  0.2190 -0.4593 -0.5444
   73SLPC  H18X 6512   2.309   6.247   8.214 -0.5179 -1.3408  0.4490
   73SLPC  H18Y 6513   2.457   6.245   8.309  0.0913 -0.9363 -1.6056
   73SLPC  H18Z 6514   2.382   6.402   8.264  2.2326 -0.6854 -0.0307
   74SLPC     N 6515   3.196   1.548  10.622  0.3987  0.3179 -0.8555
   74SLPC   C13 6516   3.151   1.683  10.659 -0.3789  0.0736 -0.3822
   74SLPC  H13A 6517   3.113   1.732  10.570 -0.4613 -0.5383 -0.6868
   74SLPC  H13B 6518   3.076   1.684  10.737 -0.2724  5.5876 -0.1371
   74SLPC  H13C 6519   3.232   1.745  10.693 -1.2600  2.2586 -2.1309
   74SLPC   C14 6520   3.074   1.485  10.580  0.5620  0.3240  0.5159
   74SLPC  H14A 6521   2.991   1.523  10.637 -0.1873  1.2721 -1.1559
   74SLPC  H14B 6522   3.057   1.498  10.474  2.0370  2.6717  0.5069
   74SLPC  H14C 6523   3.082   1.380  10.600 -0.5530  0.5446  2.1838
   74SLPC   C15 6524   3.249   1.478  10.739  0.2449 -0.5810 -0.3082
   74SLPC  H15A 6525   3.337   1.533  10.768  1.4116 -3.1556  1.1400
   74SLPC  H15B 6526   3.179   1.466  10.820  0.7488 -2.3920 -0.1241
   74SLPC  H15C 6527   3.274   1.375  10.721 -3.0730 -1.7945  1.5340
   74SLPC   C12 6528   3.297   1.557  10.513  0.3705  0.0167  0.0807
   74SLPC  H12A 6529   3.364   1.634  10.548 -1.7317  1.2947  1.4206
   74SLPC  H12B 6530   3.241   1.598  10.430  1.4910  3.2805  0.8731
   74SLPC   C11 6531   3.372   1.434  10.461 -0.4665  0.8286 -0.3352
   74SLPC  H11A 6532   3.442   1.456  10.377  0.3631  1.0621  0.4115
   74SLPC  H11B 6533   3.292   1.367  10.422  0.3894 -0.5778  0.3015
   74SLPC     P 6534   3.445   1.208  10.596 -0.0227  0.2065 -0.1105
   74SLPC   O13 6535   3.586   1.166  10.614 -0.4306 -0.4408 -0.4433
   74SLPC   O14 6536   3.344   1.173  10.699  0.0233 -0.1877 -0.5988
   74SLPC   O12 6537   3.446   1.368  10.568 -0.7852 -0.3319  0.3287
   74SLPC   O11 6538   3.397   1.150  10.454  0.0763 -0.5337  0.0646
   74SLPC    C1 6539   3.289   1.059  10.440  0.0255  0.6221  0.5683
   74SLPC    HA 6540   3.304   0.964  10.494 -0.0948  1.1315  1.5146
   74SLPC    HB 6541   3.189   1.096  10.472 -0.3633 -1.3543  1.7300
   74SLPC    C2 6542   3.267   1.027  10.285  0.2883  0.0923  0.2573
   74SLPC    HS 6543   3.171   0.972  10.271  0.4649 -0.6995  2.1149
   74SLPC   O21 6544   3.379   0.963  10.222 -0.8124 -0.5971 -0.2934
   74SLPC   C21 6545   3.397   0.830  10.238  0.4461  0.2298  0.5350
   74SLPC   O22 6546   3.327   0.756  10.305  0.0831  0.4089 -0.2793
   74SLPC   C22 6547   3.510   0.773  10.161 -0.3203  0.3459  0.2325
   74SLPC   H2R 6548   3.593   0.847  10.170  0.8548 -0.8644 -0.5800
   74SLPC   H2S 6549   3.534   0.669  10.192 -1.2342 -0.3497 -1.3937
   74SLPC    C3 6550   3.256   1.166  10.208 -0.3828  0.4609  0.4038
   74SLPC    HX 6551   3.348   1.220  10.238  0.8387 -1.8695  1.0356
   74SLPC    HY 6552   3.161   1.218  10.232  0.2440  0.6748  2.4995
   74SLPC   O31 6553   3.265   1.145  10.064  0.0302  0.0621 -0.0020
   74SLPC   C31 6554   3.152   1.096  10.015  0.9821  0.4254  0.3562
   74SLPC   O32 6555   3.051   1.064  10.082  0.1903 -0.0812  0.2308
   74SLPC   C32 6556   3.176   1.076   9.864 -0.1460 -0.4731 -0.0411
   74SLPC   H2X 6557   3.217   0.973   9.860  0.7945 -0.0575 -1.2046
   74SLPC   H2Y 6558   3.248   1.152   9.826  0.1608 -0.1863  1.1027
   74SLPC   C23 6559   3.470   0.769  10.011 -0.1159  0.4277  0.2588
   74SLPC   H3R 6560   3.565   0.767   9.953 -1.7123 -0.0964 -2.4365
   74SLPC   H3S 6561   3.412   0.851   9.963 -0.1982 -0.0579 -0.4724
   74SLPC   C24 6562   3.395   0.643   9.980  0.5602  0.0170 -0.0040
   74SLPC   H4R 6563   3.291   0.682   9.977  1.3924  2.3013 -0.3908
   74SLPC   H4S 6564   3.412   0.553  10.042  0.8832  0.1393  0.0863
   74SLPC   C25 6565   3.427   0.591   9.841 -0.1362  0.0653  0.9221
   74SLPC   H5R 6566   3.384   0.489   9.829  1.5781 -0.3136 -2.2953
   74SLPC   H5S 6567   3.537   0.582   9.847 -0.3352 -2.3711  1.4287
   74SLPC   C26 6568   3.389   0.684   9.723 -0.2930 -0.4445 -0.3428
   74SLPC   H6R 6569   3.486   0.722   9.684 -0.3725  1.7677  1.5322
   74SLPC   H6S 6570   3.339   0.778   9.753  1.6702  0.9729 -1.3465
   74SLPC   C27 6571   3.317   0.613   9.609  0.3854 -0.7479 -0.5859
   74SLPC   H7R 6572   3.281   0.687   9.535  1.6177  0.6223  0.1567
   74SLPC   H7S 6573   3.222   0.570   9.647  0.2592  1.8433  2.2371
   74SLPC   C28 6574   3.400   0.503   9.541  0.1425  0.7868 -0.3319
   74SLPC   H8R 6575   3.336   0.440   9.475  1.7399 -0.5282 -0.6871
   74SLPC   H8S 6576   3.442   0.433   9.617 -0.1118  1.5144  0.4751
   74SLPC   C29 6577   3.514   0.549   9.452  0.3450 -0.5343  0.0065
   74SLPC   H9R 6578   3.616   0.527   9.488  0.9192 -2.1616 -2.5057
   74SLPC  C210 6579   3.504   0.603   9.329 -1.0534  0.5493 -0.6768
   74SLPC  H10R 6580   3.600   0.619   9.279 -0.6672  0.4986  0.0525
   74SLPC  C211 6581   3.386   0.632   9.248 -0.0593 -0.3099  0.4707
   74SLPC  H11R 6582   3.295   0.632   9.312 -0.9592 -2.0067 -0.7814
   74SLPC  H11S 6583   3.363   0.542   9.187  0.9395 -3.0446  3.9085
   74SLPC  C212 6584   3.411   0.765   9.176 -0.2267 -0.0958  0.1577
   74SLPC  H12R 6585   3.392   0.855   9.238  1.0199  0.9720 -0.9865
   74SLPC  C213 6586   3.465   0.788   9.052 -0.0540  0.4237 -0.2761
   74SLPC  H13R 6587   3.480   0.891   9.017 -1.5520  0.2561 -1.4314
   74SLPC  C214 6588   3.499   0.685   8.953 -0.8743  0.3584 -0.2361
   74SLPC  H14R 6589   3.479   0.581   8.987  3.2313  0.2316  2.1517
   74SLPC  H14S 6590   3.606   0.699   8.926 -0.5368 -0.9093  0.3965
   74SLPC  C215 6591   3.426   0.693   8.819 -0.5081 -0.0199 -0.3868
   74SLPC  H15R 6592   3.469   0.777   8.761  2.1922 -0.6613  0.6035
   74SLPC  H15S 6593   3.317   0.714   8.822 -0.2299  1.8088 -1.9688
   74SLPC  C216 6594   3.459   0.568   8.726 -0.3878  0.0974 -0.7415
   74SLPC  H16R 6595   3.416   0.474   8.768 -1.1290 -0.5457 -2.8989
   74SLPC  H16S 6596   3.568   0.554   8.710  0.0347  2.5306 -0.2437
   74SLPC  C217 6597   3.420   0.599   8.585  0.7154 -0.3266 -0.2297
   74SLPC  H17R 6598   3.333   0.667   8.587  0.3261 -0.8193 -0.1965
   74SLPC  H17S 6599   3.386   0.506   8.534 -1.0314  1.6786 -2.8738
   74SLPC  C218 6600   3.529   0.662   8.493  0.0624 -0.1473 -0.3698
   74SLPC  H18R 6601   3.600   0.583   8.458 -2.7059 -2.0191 -2.0027
   74SLPC  H18S 6602   3.575   0.740   8.556 -0.4273 -0.5466  0.4962
   74SLPC  H18T 6603   3.476   0.720   8.414 -0.4357  0.0532  0.1103
   74SLPC   C33 6604   3.044   1.083   9.785  0.4186 -0.3835  0.3625
   74SLPC   H3X 6605   2.992   1.179   9.803 -1.2834 -1.0753 -0.7102
   74SLPC   H3Y 6606   2.970   1.007   9.818 -1.0161  1.1894  0.7930
   74SLPC   C34 6607   3.058   1.080   9.636  0.2130  0.0538 -0.0757
   74SLPC   H4X 6608   3.105   1.179   9.616 -0.7734  0.9628  1.9882
   74SLPC   H4Y 6609   2.955   1.070   9.596  0.0132  0.2722  0.3879
   74SLPC   C35 6610   3.151   0.969   9.587 -0.1652 -0.0538 -0.1991
   74SLPC   H5X 6611   3.094   0.873   9.593 -1.3197  0.5271 -1.6272
   74SLPC   H5Y 6612   3.241   0.945   9.649 -1.4775  0.8362  2.0848
   74SLPC   C36 6613   3.197   0.994   9.448 -0.3266 -0.2090  0.5870
   74SLPC   H6X 6614   3.235   0.896   9.410  2.6232  0.5701  1.3860
   74SLPC   H6Y 6615   3.283   1.065   9.445  0.3087 -0.9602  0.8101
   74SLPC   C37 6616   3.093   1.066   9.357  0.3205  0.6726  0.3514
   74SLPC   H7X 6617   3.069   1.172   9.381 -0.6912 -0.0303  2.5884
   74SLPC   H7Y 6618   2.998   1.008   9.365  1.8019 -1.7768  0.4582
   74SLPC   C38 6619   3.137   1.061   9.208 -0.6543  0.1580 -0.0831
   74SLPC   H8X 6620   3.154   0.953   9.194  0.7635  0.5342 -1.3416
   74SLPC   H8Y 6621   3.231   1.118   9.192 -0.1298 -0.4288  0.8498
   74SLPC   C39 6622   3.025   1.103   9.112 -0.1455  0.5324 -0.0481
   74SLPC   H9X 6623   2.993   1.198   9.160 -0.5435 -1.1247  3.0908
   74SLPC   H9Y 6624   2.936   1.037   9.112 -0.8231  1.4302 -0.6192
   74SLPC  C310 6625   3.068   1.122   8.970 -0.2595  0.5477  0.0325
   74SLPC  H10X 6626   3.138   1.044   8.932  1.0770  1.0069  1.5124
   74SLPC  H10Y 6627   3.114   1.223   8.969 -2.8154  1.8099  2.2471
   74SLPC  C311 6628   2.944   1.111   8.874  0.4019 -0.1298  0.1382
   74SLPC  H11X 6629   2.971   1.159   8.778 -0.6477 -0.4419 -0.3257
   74SLPC  H11Y 6630   2.863   1.172   8.919 -0.8004 -0.7013 -1.1795
   74SLPC  C312 6631   2.899   0.971   8.837 -1.2765  0.1430 -0.0900
   74SLPC  H12X 6632   2.796   0.973   8.796 -1.6384 -1.6762  0.6763
   74SLPC  H12Y 6633   2.882   0.920   8.934 -0.1884  0.0262  0.0474
   74SLPC  C313 6634   2.996   0.881   8.750  0.9657 -0.3478  0.2885
   74SLPC  H13X 6635   2.958   0.779   8.731 -0.5486 -0.3767  3.1796
   74SLPC  H13Y 6636   3.096   0.889   8.798  0.0513  0.5425  2.1170
   74SLPC  C314 6637   3.007   0.935   8.609  0.2966 -0.6048  0.2636
   74SLPC  H14X 6638   3.051   1.037   8.608 -0.3983 -0.2613 -3.8148
   74SLPC  H14Y 6639   2.908   0.943   8.559  1.8440 -0.6092 -2.9660
   74SLPC  C315 6640   3.108   0.852   8.523 -0.3928 -0.2927  0.5368
   74SLPC  H15X 6641   3.055   0.760   8.488 -1.4693  0.2906  0.6200
   74SLPC  H15Y 6642   3.202   0.829   8.576 -0.4914  1.5514  1.5445
   74SLPC  C316 6643   3.131   0.926   8.387 -0.1156 -0.0455 -0.5792
   74SLPC  H16X 6644   3.173   1.028   8.399  0.1601  0.3048 -4.0473
   74SLPC  H16Y 6645   3.032   0.949   8.342 -0.9785 -2.8120 -0.2304
   74SLPC  C317 6646   3.204   0.850   8.278  0.4250 -0.3658 -0.1317
   74SLPC  H17X 6647   3.309   0.842   8.313  0.1577 -2.5147  0.2720
   74SLPC  H17Y 6648   3.204   0.908   8.183  1.1936  0.6407  0.4843
   74SLPC  C318 6649   3.166   0.701   8.246  0.1144  0.0241 -0.6529
   74SLPC  H18X 6650   3.182   0.635   8.334 -0.2179  3.3140  2.0021
   74SLPC  H18Y 6651   3.212   0.664   8.152  1.6920 -1.3120  0.6096
   74SLPC  H18Z 6652   3.056   0.698   8.229 -0.3388  0.4608  1.9307
   75SLPC     N 6653   1.387   4.832   6.184 -0.0379 -0.7507 -0.0969
   75SLPC   C13 6654   1.438   4.809   6.041  0.3031 -0.1139  0.1375
   75SLPC  H13A 6655   1.450   4.704   6.016 -2.5193 -0.5323  0.3797
   75SLPC  H13B 6656   1.368   4.853   5.971 -0.3344 -2.8462 -1.0097
   75SLPC  H13C 6657   1.534   4.853   6.020 -1.4361  4.1340  0.6726
   75SLPC   C14 6658   1.255   4.769   6.204 -0.4420  0.0856  0.5602
   75SLPC  H14A 6659   1.220   4.808   6.298 -0.1952  1.8185 -0.0299
   75SLPC  H14B 6660   1.190   4.791   6.120  2.2646  1.0146 -1.3720
   75SLPC  H14C 6661   1.261   4.662   6.210  0.3949 -0.0652 -2.1835
   75SLPC   C15 6662   1.382   4.978   6.218 -0.9217 -0.4666  0.2613
   75SLPC  H15A 6663   1.370   5.016   6.118 -1.2099 -2.7394 -0.5921
   75SLPC  H15B 6664   1.297   5.014   6.273  0.2061 -0.2545  1.9251
   75SLPC  H15C 6665   1.474   5.008   6.267 -1.2780 -0.3821  0.8786
   75SLPC   C12 6666   1.493   4.755   6.261  0.0786  0.2902 -0.1192
   75SLPC  H12A 6667   1.581   4.807   6.227  0.2199 -2.6366 -4.6820
   75SLPC  H12B 6668   1.499   4.652   6.231  0.7060  0.8986 -2.1268
   75SLPC   C11 6669   1.474   4.769   6.413  0.1985 -0.0301 -0.5501
   75SLPC  H11A 6670   1.469   4.873   6.452 -4.8366 -1.3635  2.8896
   75SLPC  H11B 6671   1.558   4.720   6.467 -1.3235 -0.4143  1.5295
   75SLPC     P 6672   1.342   4.558   6.487  0.1318  0.2423 -0.1404
   75SLPC   O13 6673   1.194   4.537   6.501  0.1660 -0.1319  0.0696
   75SLPC   O14 6674   1.423   4.472   6.395 -1.0013 -0.2108  0.0610
   75SLPC   O12 6675   1.361   4.710   6.463  0.2887 -0.0680  0.3828
   75SLPC   O11 6676   1.400   4.548   6.633 -0.2937 -0.2977  0.2461
   75SLPC    C1 6677   1.411   4.644   6.737  0.4500  0.3165 -0.6116
   75SLPC    HA 6678   1.519   4.653   6.763 -0.1771  1.2090  1.7825
   75SLPC    HB 6679   1.374   4.743   6.701 -0.0453  0.0752 -0.7723
   75SLPC    C2 6680   1.325   4.602   6.862  0.2174  0.4956 -0.1394
   75SLPC    HS 6681   1.330   4.697   6.918 -0.3150 -1.2278  2.9662
   75SLPC   O21 6682   1.386   4.490   6.930  0.1782 -0.4915 -0.2842
   75SLPC   C21 6683   1.481   4.535   7.012  0.5788  0.1988  0.1130
   75SLPC   O22 6684   1.526   4.648   7.016  0.1205  0.2838 -0.6462
   75SLPC   C22 6685   1.534   4.412   7.083  0.0032  0.0905 -0.4186
   75SLPC   H2R 6686   1.505   4.322   7.024 -0.5280 -0.0872  0.1175
   75SLPC   H2S 6687   1.644   4.418   7.069  0.2174  1.6453  1.8216
   75SLPC    C3 6688   1.186   4.573   6.823 -0.2501 -0.3636 -0.0575
   75SLPC    HX 6689   1.181   4.498   6.742 -1.9784  1.6628 -1.8825
   75SLPC    HY 6690   1.134   4.661   6.781 -3.9023 -0.8817  3.0393
   75SLPC   O31 6691   1.103   4.517   6.927  0.2246 -0.1599 -0.6885
   75SLPC   C31 6692   1.020   4.595   6.983  1.1717 -0.1060  0.2411
   75SLPC   O32 6693   1.018   4.719   6.967  0.1387 -0.0593  0.5242
   75SLPC   C32 6694   0.930   4.512   7.075  0.6465 -0.4166 -0.0864
   75SLPC   H2X 6695   0.966   4.406   7.072  0.0783 -0.6121 -0.0156
   75SLPC   H2Y 6696   0.831   4.520   7.026  0.9128  1.1173 -0.3947
   75SLPC   C23 6697   1.492   4.408   7.228 -0.7042 -0.6258  0.0012
   75SLPC   H3R 6698   1.492   4.510   7.272  0.1855 -0.8506  0.5343
   75SLPC   H3S 6699   1.554   4.330   7.275  1.2134 -0.5193 -2.2313
   75SLPC   C24 6700   1.350   4.354   7.249  0.5049  0.5782  0.7101
   75SLPC   H4R 6701   1.357   4.244   7.238 -0.4737  0.6317 -0.5559
   75SLPC   H4S 6702   1.283   4.379   7.164  1.1877  2.7566  0.7908
   75SLPC   C25 6703   1.265   4.392   7.369  0.0016 -0.4830  0.4188
   75SLPC   H5R 6704   1.206   4.485   7.361  0.0700 -0.5332 -0.8099
   75SLPC   H5S 6705   1.328   4.399   7.460 -0.9009  1.1125  0.9347
   75SLPC   C26 6706   1.175   4.277   7.417  0.0620 -0.1672 -0.5242
   75SLPC   H6R 6707   1.237   4.185   7.427 -0.5266 -0.4532  0.5225
   75SLPC   H6S 6708   1.099   4.263   7.338 -1.5765  1.5424  0.7131
   75SLPC   C27 6709   1.102   4.307   7.551 -0.9740 -0.5113 -0.5195
   75SLPC   H7R 6710   1.056   4.407   7.563  0.0533 -0.0955 -0.0110
   75SLPC   H7S 6711   1.183   4.300   7.628 -2.4311 -1.6332  0.9562
   75SLPC   C28 6712   0.989   4.205   7.576 -0.1198  0.0474 -0.1340
   75SLPC   H8R 6713   0.920   4.199   7.490  0.2368 -1.3406 -0.3269
   75SLPC   H8S 6714   0.926   4.240   7.661  0.3944  1.9856 -0.5262
   75SLPC   C29 6715   1.036   4.068   7.614  0.1495 -0.0719  0.6030
   75SLPC   H9R 6716   1.048   4.004   7.526  0.8354 -1.6591  1.8220
   75SLPC  C210 6717   1.057   4.014   7.735 -0.0067 -0.1968 -0.3244
   75SLPC  H10R 6718   1.090   3.910   7.749 -2.0581 -0.8903 -0.3615
   75SLPC  C211 6719   1.030   4.088   7.870 -0.2490  0.7376 -0.4398
   75SLPC  H11R 6720   0.922   4.101   7.891 -0.3747  0.2917 -0.7963
   75SLPC  H11S 6721   1.061   4.194   7.862 -1.2214  0.8831 -3.0180
   75SLPC  C212 6722   1.105   4.015   7.982  0.3946  0.4752 -0.1771
   75SLPC  H12R 6723   1.206   4.052   8.007  0.2971 -0.7299  2.1855
   75SLPC  C213 6724   1.069   3.912   8.059 -0.3209  0.6859  0.1818
   75SLPC  H13R 6725   1.137   3.889   8.142 -1.1046 -1.6436  0.2130
   75SLPC  C214 6726   0.940   3.832   8.053 -0.6697 -0.2633  0.1983
   75SLPC  H14R 6727   0.972   3.726   8.042  1.5071  0.4342 -0.5961
   75SLPC  H14S 6728   0.869   3.859   7.972 -2.3088  0.6778  1.9296
   75SLPC  C215 6729   0.857   3.855   8.185 -0.6435  0.0835 -1.1421
   75SLPC  H15R 6730   0.761   3.803   8.164 -0.1626 -0.5945 -1.6687
   75SLPC  H15S 6731   0.834   3.963   8.192  1.4416  0.5556 -1.2367
   75SLPC  C216 6732   0.918   3.796   8.319 -1.2498 -0.1562  1.1672
   75SLPC  H16R 6733   1.018   3.841   8.339 -0.2333 -2.3440  1.1669
   75SLPC  H16S 6734   0.931   3.687   8.305 -0.3178  0.2335 -1.3382
   75SLPC  C217 6735   0.826   3.829   8.438 -0.1813  0.2528 -0.1738
   75SLPC  H17R 6736   0.716   3.814   8.425 -0.1699 -0.2393  0.2557
   75SLPC  H17S 6737   0.840   3.937   8.459 -1.5631  0.2912  0.6637
   75SLPC  C218 6738   0.871   3.749   8.560 -0.6390  0.4571 -0.4298
   75SLPC  H18R 6739   0.868   3.642   8.530  1.1484  0.4471 -0.6243
   75SLPC  H18S 6740   0.809   3.778   8.647 -1.7506 -1.4378 -0.5569
   75SLPC  H18T 6741   0.975   3.784   8.576 -0.1962 -0.7813 -0.5403
   75SLPC   C33 6742   0.928   4.566   7.222 -0.0764 -0.0283  0.1755
   75SLPC   H3X 6743   1.012   4.525   7.283 -1.1020 -0.5150  1.2965
   75SLPC   H3Y 6744   0.918   4.676   7.229  2.6234  0.2221  0.5440
   75SLPC   C34 6745   0.800   4.506   7.286  0.6353 -0.0303 -0.0356
   75SLPC   H4X 6746   0.812   4.400   7.319  0.6801  0.0063  0.0649
   75SLPC   H4Y 6747   0.712   4.496   7.218  0.1439  0.4105  0.5347
   75SLPC   C35 6748   0.759   4.581   7.411 -1.0888 -0.3337 -0.1068
   75SLPC   H5X 6749   0.684   4.659   7.390 -1.0760 -0.5838 -1.1275
   75SLPC   H5Y 6750   0.854   4.632   7.438 -0.6505 -1.2774  0.1826
   75SLPC   C36 6751   0.696   4.501   7.523 -0.2366  0.0141 -0.5564
   75SLPC   H6X 6752   0.716   4.392   7.531 -3.5831 -0.7580 -1.7400
   75SLPC   H6Y 6753   0.585   4.499   7.515 -0.3166  1.4584  0.0029
   75SLPC   C37 6754   0.736   4.547   7.666  0.3246  0.1837 -0.4900
   75SLPC   H7X 6755   0.746   4.657   7.654 -1.3582  0.5901  1.6212
   75SLPC   H7Y 6756   0.841   4.518   7.688 -0.1007 -0.4578  0.6971
   75SLPC   C38 6757   0.636   4.516   7.769 -0.1926 -0.7159  0.1019
   75SLPC   H8X 6758   0.621   4.408   7.788 -1.3155 -0.3075  1.5952
   75SLPC   H8Y 6759   0.533   4.557   7.755 -0.5148 -1.0047  1.5344
   75SLPC   C39 6760   0.681   4.577   7.898 -0.1211  0.2732  0.0023
   75SLPC   H9X 6761   0.586   4.592   7.954  0.5395  2.6328  0.5743
   75SLPC   H9Y 6762   0.714   4.682   7.883  1.3038  0.0413  1.3852
   75SLPC  C310 6763   0.784   4.483   7.962  0.2409 -0.0490  0.9754
   75SLPC  H10X 6764   0.870   4.479   7.891 -0.6179 -1.5049 -0.0238
   75SLPC  H10Y 6765   0.740   4.381   7.964 -1.6988  0.7716  1.4536
   75SLPC  C311 6766   0.821   4.531   8.105 -0.6069  0.3305  0.1429
   75SLPC  H11X 6767   0.724   4.560   8.151 -1.7613 -1.1557 -1.2727
   75SLPC  H11Y 6768   0.888   4.619   8.106  0.4224 -0.4253  4.1552
   75SLPC  C312 6769   0.887   4.418   8.180  0.2709 -0.2102  0.3142
   75SLPC  H12X 6770   0.996   4.407   8.158  0.6077  0.4994  1.5818
   75SLPC  H12Y 6771   0.830   4.326   8.157 -0.2040 -0.0577  0.8889
   75SLPC  C313 6772   0.868   4.445   8.330  0.1503  0.1270  0.0186
   75SLPC  H13X 6773   0.790   4.521   8.351 -1.1790 -1.7680  2.1841
   75SLPC  H13Y 6774   0.966   4.479   8.371 -0.7116  3.3275 -0.4112
   75SLPC  C314 6775   0.830   4.319   8.412  0.3174  0.3193  0.1612
   75SLPC  H14X 6776   0.912   4.244   8.412 -0.3860 -0.4608 -0.3822
   75SLPC  H14Y 6777   0.740   4.274   8.366  1.2851 -1.0263 -0.4505
   75SLPC  C315 6778   0.808   4.363   8.556 -0.4228 -0.3200  0.8607
   75SLPC  H15X 6779   0.738   4.449   8.552 -1.5864 -1.2849 -0.0124
   75SLPC  H15Y 6780   0.902   4.397   8.604 -0.6017  0.9865  0.3074
   75SLPC  C316 6781   0.768   4.244   8.645  0.4989 -0.4177  0.0827
   75SLPC  H16X 6782   0.847   4.167   8.633  0.2572 -0.9104  1.5533
   75SLPC  H16Y 6783   0.684   4.192   8.595 -0.9894  2.3443 -0.4044
   75SLPC  C317 6784   0.726   4.275   8.788  0.3755  0.2957 -0.3926
   75SLPC  H17X 6785   0.821   4.289   8.845 -0.2147 -1.3564  1.0328
   75SLPC  H17Y 6786   0.666   4.192   8.830  0.2583  1.9080  2.7730
   75SLPC  C318 6787   0.626   4.396   8.800 -0.6857 -0.5451  0.0130
   75SLPC  H18X 6788   0.597   4.406   8.907 -1.1686  3.1264 -0.3977
   75SLPC  H18Y 6789   0.538   4.390   8.733 -0.3742 -0.2456 -0.4229
   75SLPC  H18Z 6790   0.685   4.484   8.767  1.5376 -1.0322  2.4999
   76SLPC     N 6791   3.169   2.732   6.198  0.5676  0.0653 -0.1549
   76SLPC   C13 6792   3.191   2.631   6.092  0.2169  0.9155 -0.5164
   76SLPC  H13A 6793   3.112   2.620   6.019  1.1450 -0.9643 -1.2479
   76SLPC  H13B 6794   3.290   2.649   6.052  1.1213 -0.9847  0.7912
   76SLPC  H13C 6795   3.188   2.535   6.140 -0.7701  1.8388  1.3345
   76SLPC   C14 6796   3.156   2.874   6.139 -0.1475  0.7703  0.9033
   76SLPC  H14A 6797   3.078   2.886   6.065 -0.5661 -1.0889  1.0051
   76SLPC  H14B 6798   3.126   2.949   6.211 -1.5323  2.4207 -1.3582
   76SLPC  H14C 6799   3.253   2.898   6.100 -1.0344  0.2295 -1.7021
   76SLPC   C15 6800   3.290   2.735   6.283 -0.2198 -0.9190  0.2712
   76SLPC  H15A 6801   3.305   2.638   6.328 -0.4565 -0.3737  1.5611
   76SLPC  H15B 6802   3.382   2.755   6.229 -0.1834 -0.8573  0.3558
   76SLPC  H15C 6803   3.271   2.816   6.352 -1.1588  0.6963 -1.8219
   76SLPC   C12 6804   3.053   2.682   6.280  0.1367  0.6778  0.6560
   76SLPC  H12A 6805   2.970   2.673   6.211 -0.7682 -1.5717  1.9770
   76SLPC  H12B 6806   3.017   2.757   6.348 -1.6908 -0.4617  0.9694
   76SLPC   C11 6807   3.058   2.552   6.366  0.0111  0.2074  0.0614
   76SLPC  H11A 6808   2.967   2.561   6.429  1.2192  1.9921  1.5946
   76SLPC  H11B 6809   3.148   2.564   6.431 -0.2548 -1.6418  0.8149
   76SLPC     P 6810   2.943   2.385   6.206  0.7816  0.0907 -0.4659
   76SLPC   O13 6811   2.898   2.490   6.118 -0.1480  0.3072  0.2277
   76SLPC   O14 6812   2.968   2.258   6.138  0.1812  0.0154  0.8298
   76SLPC   O12 6813   3.067   2.430   6.288 -0.2184 -0.1903  0.8134
   76SLPC   O11 6814   2.828   2.364   6.313 -0.6077 -0.4326  0.2811
   76SLPC    C1 6815   2.822   2.242   6.382  0.3843  0.3467 -0.5083
   76SLPC    HA 6816   2.783   2.165   6.312 -0.7711  1.8638 -1.5381
   76SLPC    HB 6817   2.925   2.209   6.409 -0.2650 -1.6075 -0.3224
   76SLPC    C2 6818   2.730   2.245   6.506  0.3004  0.4562 -0.1775
   76SLPC    HS 6819   2.627   2.260   6.468  0.4873  2.7891  0.1840
   76SLPC   O21 6820   2.774   2.346   6.591  0.0864 -0.4005 -0.2041
   76SLPC   C21 6821   2.684   2.384   6.682  0.1709  0.1789  0.0095
   76SLPC   O22 6822   2.573   2.336   6.697  0.2344  0.5745  0.3787
   76SLPC   C22 6823   2.734   2.490   6.778 -0.0379 -0.6785 -0.1429
   76SLPC   H2R 6824   2.832   2.466   6.826 -0.6787  1.0131  2.0821
   76SLPC   H2S 6825   2.757   2.578   6.715 -1.0036  0.1371  0.6346
   76SLPC    C3 6826   2.737   2.108   6.576 -0.3783  0.4426 -0.3395
   76SLPC    HX 6827   2.841   2.072   6.582 -0.1376  1.4835  3.0124
   76SLPC    HY 6828   2.683   2.039   6.508  1.2786  2.2201 -3.5847
   76SLPC   O31 6829   2.676   2.092   6.705  0.1596  0.3749  0.2704
   76SLPC   C31 6830   2.752   2.099   6.807  0.0271  0.1850  0.1312
   76SLPC   O32 6831   2.866   2.125   6.809 -0.0340  0.7123 -0.1220
   76SLPC   C32 6832   2.678   2.068   6.929 -0.1935 -0.0756 -0.5147
   76SLPC   H2X 6833   2.637   1.965   6.920  0.2757 -0.2978 -0.1392
   76SLPC   H2Y 6834   2.588   2.133   6.934  0.6520  0.9358  3.2687
   76SLPC   C23 6835   2.632   2.517   6.894  0.8927  0.0420  0.1282
   76SLPC   H3R 6836   2.532   2.501   6.847  0.7211  0.8869  0.1871
   76SLPC   H3S 6837   2.614   2.626   6.908  0.0044  0.3423 -2.8136
   76SLPC   C24 6838   2.651   2.437   7.025 -0.2157  0.1102 -0.3481
   76SLPC   H4R 6839   2.661   2.328   7.007  0.2819 -0.3969  2.7466
   76SLPC   H4S 6840   2.559   2.443   7.088 -0.3447  0.2789 -0.5525
   76SLPC   C25 6841   2.777   2.471   7.096 -0.3701  0.0432 -0.3495
   76SLPC   H5R 6842   2.866   2.429   7.045  0.1619  1.2298 -0.4079
   76SLPC   H5S 6843   2.779   2.420   7.195  1.6057  3.2563  1.3566
   76SLPC   C26 6844   2.801   2.623   7.114 -0.4835  0.5038  0.3972
   76SLPC   H6R 6845   2.707   2.669   7.151 -0.9888 -0.3276  0.1677
   76SLPC   H6S 6846   2.825   2.663   7.013  2.2436 -0.7663  0.4936
   76SLPC   C27 6847   2.924   2.669   7.202 -0.2720  0.6739 -0.1419
   76SLPC   H7R 6848   2.984   2.746   7.150 -0.3181  0.6438 -0.2390
   76SLPC   H7S 6849   2.989   2.579   7.208  0.2818  1.1051  0.3869
   76SLPC   C28 6850   2.891   2.728   7.337  0.1951  0.1697  0.8350
   76SLPC   H8R 6851   2.825   2.818   7.336 -2.7753 -1.9303  0.0942
   76SLPC   H8S 6852   2.823   2.662   7.395 -1.1604  0.5881 -0.2611
   76SLPC   C29 6853   3.015   2.752   7.414 -0.3016  0.2386 -0.2242
   76SLPC   H9R 6854   3.109   2.762   7.358  0.4537 -2.3828  0.5214
   76SLPC  C210 6855   3.028   2.746   7.547 -0.7788 -0.2401 -0.1589
   76SLPC  H10R 6856   3.126   2.768   7.591 -0.1104  1.1779 -2.3192
   76SLPC  C211 6857   2.915   2.732   7.648 -0.3084 -0.3738  0.2631
   76SLPC  H11R 6858   2.926   2.634   7.699 -1.9451  0.3017  2.0084
   76SLPC  H11S 6859   2.821   2.724   7.590 -0.2095  0.9691 -0.0998
   76SLPC  C212 6860   2.899   2.855   7.735  0.2777 -0.5971  0.4744
   76SLPC  H12R 6861   2.826   2.924   7.690 -0.2487 -0.7616  1.0715
   76SLPC  C213 6862   2.937   2.871   7.856 -0.5512  0.0243  0.3951
   76SLPC  H13R 6863   2.925   2.972   7.898  1.1672  0.4094 -0.0155
   76SLPC  C214 6864   3.019   2.780   7.938  0.2220  0.6344 -0.1698
   76SLPC  H14R 6865   3.109   2.831   7.976  2.5112 -1.4410 -2.5765
   76SLPC  H14S 6866   3.058   2.704   7.867 -2.4834  1.6759 -2.8539
   76SLPC  C215 6867   2.950   2.701   8.045 -0.7811  0.0645 -0.5197
   76SLPC  H15R 6868   3.015   2.622   8.089  1.0087  3.7423  3.8911
   76SLPC  H15S 6869   2.869   2.642   7.998  0.8724 -2.4297 -0.3598
   76SLPC  C216 6870   2.914   2.782   8.166  0.3133  0.0795 -0.2722
   76SLPC  H16R 6871   2.811   2.818   8.148 -0.2906 -0.7116  1.5282
   76SLPC  H16S 6872   2.992   2.861   8.175 -0.2118  0.7047 -1.1872
   76SLPC  C217 6873   2.928   2.698   8.292  0.4519 -0.2226  0.2725
   76SLPC  H17R 6874   3.036   2.677   8.308  0.3248 -0.8115  0.3690
   76SLPC  H17S 6875   2.876   2.602   8.309 -2.6081  1.8261  2.8867
   76SLPC  C218 6876   2.883   2.778   8.407  0.0263 -0.1219 -0.2878
   76SLPC  H18R 6877   2.886   2.716   8.500  2.2295  1.4892  0.7592
   76SLPC  H18S 6878   2.781   2.821   8.404 -0.2728 -0.8505 -0.5614
   76SLPC  H18T 6879   2.951   2.863   8.427  0.2291 -0.4073  0.2588
   76SLPC   C33 6880   2.758   2.096   7.068  0.3511  0.5827 -0.1056
   76SLPC   H3X 6881   2.681   2.119   7.145 -3.6118 -2.6822 -2.8513
   76SLPC   H3Y 6882   2.818   2.189   7.071 -1.3064  1.6534  1.0166
   76SLPC   C34 6883   2.838   1.962   7.103  0.2744  0.2153  0.6360
   76SLPC   H4X 6884   2.869   1.918   7.006 -0.3961 -1.4584  1.1786
   76SLPC   H4Y 6885   2.771   1.888   7.151  0.7933 -2.1574 -2.1301
   76SLPC   C35 6886   2.967   1.979   7.183 -0.4497  0.2082  0.5879
   76SLPC   H5X 6887   2.955   2.030   7.281 -0.6853  1.2612  0.0174
   76SLPC   H5Y 6888   3.041   2.033   7.120 -1.3781  0.4926 -0.2610
   76SLPC   C36 6889   3.045   1.846   7.200  0.0149 -0.1017  0.6658
   76SLPC   H6X 6890   3.058   1.802   7.099  2.1709  0.8131  0.5261
   76SLPC   H6Y 6891   2.983   1.772   7.256  0.6847  0.7046  2.5369
   76SLPC   C37 6892   3.187   1.858   7.252 -0.0882  0.2894 -0.4968
   76SLPC   H7X 6893   3.236   1.937   7.191  1.3971 -0.0570  0.2090
   76SLPC   H7Y 6894   3.245   1.768   7.223  0.2481  1.0942 -2.4358
   76SLPC   C38 6895   3.197   1.881   7.403  0.6840  0.2750 -0.0547
   76SLPC   H8X 6896   3.153   1.978   7.436 -1.8542 -0.5766 -0.8565
   76SLPC   H8Y 6897   3.307   1.887   7.417  0.6042  0.5268  0.5112
   76SLPC   C39 6898   3.139   1.763   7.475  0.0154 -0.6695 -0.1298
   76SLPC   H9X 6899   3.206   1.675   7.467 -0.0679 -0.6431 -1.1263
   76SLPC   H9Y 6900   3.036   1.746   7.438 -0.5671  2.2263  0.0129
   76SLPC  C310 6901   3.121   1.766   7.632  0.3131 -0.2404  0.7793
   76SLPC  H10X 6902   3.042   1.698   7.669 -1.0402  1.1709  0.5399
   76SLPC  H10Y 6903   3.105   1.874   7.655  2.4467  0.3609 -0.3467
   76SLPC  C311 6904   3.264   1.736   7.691 -0.1440  0.8154 -0.1685
   76SLPC  H11X 6905   3.340   1.790   7.631  0.6561 -1.1238 -0.9453
   76SLPC  H11Y 6906   3.284   1.629   7.670  2.7858  1.5206 -1.2135
   76SLPC  C312 6907   3.281   1.766   7.840  0.0990 -0.0135  0.2560
   76SLPC  H12X 6908   3.260   1.875   7.848 -0.2077 -0.0947  0.5625
   76SLPC  H12Y 6909   3.385   1.741   7.869  0.1008 -0.1615  0.1257
   76SLPC  C313 6910   3.187   1.686   7.931 -0.1999  0.0980 -0.0373
   76SLPC  H13X 6911   3.182   1.583   7.888 -0.7918  0.2962 -0.4595
   76SLPC  H13Y 6912   3.081   1.718   7.936  0.1843  1.1640  1.3558
   76SLPC  C314 6913   3.241   1.681   8.073 -0.0285 -0.6678  0.3326
   76SLPC  H14X 6914   3.340   1.632   8.068 -1.4886 -3.6537 -0.6591
   76SLPC  H14Y 6915   3.162   1.624   8.126 -1.1492  1.6840  1.3005
   76SLPC  C315 6916   3.249   1.819   8.141 -0.3465 -0.6915 -0.1953
   76SLPC  H15X 6917   3.168   1.836   8.215  0.1907  1.7478 -0.1202
   76SLPC  H15Y 6918   3.231   1.901   8.068  1.2922  0.7912  1.0341
   76SLPC  C316 6919   3.380   1.834   8.216  0.0731 -0.3353 -0.5289
   76SLPC  H16X 6920   3.403   1.728   8.240 -1.3165 -0.4997  0.1304
   76SLPC  H16Y 6921   3.365   1.893   8.308  0.1622  2.8091 -2.4525
   76SLPC  C317 6922   3.494   1.877   8.128 -0.8852 -0.6640 -0.1643
   76SLPC  H17X 6923   3.453   1.967   8.079  1.3749  0.9109  0.7537
   76SLPC  H17Y 6924   3.514   1.794   8.056  1.2525  0.4923 -0.9609
   76SLPC  C318 6925   3.620   1.898   8.210  0.0352 -0.8830 -0.0517
   76SLPC  H18X 6926   3.649   1.803   8.259 -1.5099 -1.3338 -0.0178
   76SLPC  H18Y 6927   3.602   1.968   8.295  1.9651  1.2180 -1.2995
   76SLPC  H18Z 6928   3.708   1.939   8.155 -1.3752 -0.6786 -2.2162
   77SLPC     N 6929   5.817   2.484   6.310  0.4174 -0.5359 -0.5869
   77SLPC   C13 6930   5.867   2.600   6.387  0.1986  0.0064  0.1609
   77SLPC  H13A 6931   5.815   2.603   6.482  0.6678  0.2028  0.4100
   77SLPC  H13B 6932   5.968   2.591   6.424  0.2125 -0.6548 -0.0382
   77SLPC  H13C 6933   5.849   2.698   6.344  1.2061 -0.2398 -0.8606
   77SLPC   C14 6934   5.914   2.446   6.198  0.1560  0.4289 -0.3159
   77SLPC  H14A 6935   6.006   2.412   6.244 -0.5337  1.3576  1.8173
   77SLPC  H14B 6936   5.883   2.359   6.143 -0.4007 -0.6119  1.5686
   77SLPC  H14C 6937   5.940   2.531   6.137  1.7210 -0.2620 -0.6421
   77SLPC   C15 6938   5.689   2.534   6.240 -0.0520 -0.2863 -0.2307
   77SLPC  H15A 6939   5.719   2.620   6.181 -2.2158  1.2055  0.7674
   77SLPC  H15B 6940   5.639   2.465   6.173 -2.1481  2.4031 -1.5725
   77SLPC  H15C 6941   5.612   2.556   6.313  0.8748  1.1063  0.3393
   77SLPC   C12 6942   5.798   2.357   6.395  0.2650 -0.1333  0.2679
   77SLPC  H12A 6943   5.776   2.273   6.330 -3.3123 -0.7312  2.1601
   77SLPC  H12B 6944   5.719   2.366   6.467 -1.5834 -0.3983 -1.6637
   77SLPC   C11 6945   5.930   2.307   6.469  0.2088 -0.4193 -0.0934
   77SLPC  H11A 6946   5.914   2.221   6.538  2.3388 -0.8517 -0.0994
   77SLPC  H11B 6947   5.957   2.399   6.526  0.9744 -0.5251 -0.2717
   77SLPC     P 6948   6.177   2.261   6.443 -0.3964  0.1133 -0.1285
   77SLPC   O13 6949   6.255   2.170   6.358 -0.2509 -0.4468  0.1470
   77SLPC   O14 6950   6.217   2.404   6.461  0.2745  0.3736  0.3381
   77SLPC   O12 6951   6.031   2.264   6.384 -0.5664  0.0121 -0.0138
   77SLPC   O11 6952   6.153   2.182   6.582 -0.0139  0.2725 -0.9322
   77SLPC    C1 6953   6.259   2.186   6.678 -0.2191 -0.3715 -0.7432
   77SLPC    HA 6954   6.351   2.143   6.631  1.9032  0.0582  2.7892
   77SLPC    HB 6955   6.293   2.289   6.699 -0.1369 -0.6040  0.2866
   77SLPC    C2 6956   6.226   2.121   6.818 -0.6801 -0.1479  0.4583
   77SLPC    HS 6957   6.244   2.012   6.812  1.0911  0.2111 -1.3914
   77SLPC   O21 6958   6.097   2.169   6.870  0.0050  0.2078 -0.3742
   77SLPC   C21 6959   5.993   2.103   6.832  0.4399 -0.3559  0.0773
   77SLPC   O22 6960   5.980   2.000   6.766  0.4033 -0.9145  0.1580
   77SLPC   C22 6961   5.874   2.155   6.916  0.6414  0.5132 -0.1939
   77SLPC   H2R 6962   5.906   2.239   6.981  3.2122  1.4018 -2.4958
   77SLPC   H2S 6963   5.796   2.203   6.854 -0.0646 -0.3760 -0.0050
   77SLPC    C3 6964   6.345   2.162   6.925 -0.0973 -0.5189  0.7508
   77SLPC    HX 6965   6.355   2.271   6.908 -2.0448 -0.3436  0.5979
   77SLPC    HY 6966   6.444   2.123   6.894  0.0731 -0.7202  1.5344
   77SLPC   O31 6967   6.316   2.124   7.061 -0.4101 -0.1410 -0.0262
   77SLPC   C31 6968   6.254   2.222   7.134  0.4261 -0.7553  0.8371
   77SLPC   O32 6969   6.212   2.329   7.093  0.3523 -0.4044  0.7365
   77SLPC   C32 6970   6.238   2.162   7.278  0.7939 -0.8172 -0.5673
   77SLPC   H2X 6971   6.339   2.165   7.324  0.2031  0.5198  0.6842
   77SLPC   H2Y 6972   6.194   2.060   7.278  0.0232 -0.4975  0.3976
   77SLPC   C23 6973   5.806   2.040   6.995 -0.6551 -0.5987  0.3702
   77SLPC   H3R 6974   5.784   1.948   6.936  0.7067 -1.7111  1.5504
   77SLPC   H3S 6975   5.715   2.090   7.035  0.8634  2.9748 -0.4729
   77SLPC   C24 6976   5.871   1.994   7.122 -0.0977  0.3993  0.2785
   77SLPC   H4R 6977   5.903   2.081   7.183 -0.3801  1.1875 -0.6935
   77SLPC   H4S 6978   5.967   1.943   7.099  1.5058  1.4128  4.2709
   77SLPC   C25 6979   5.775   1.901   7.193  0.3262 -0.5160 -0.2837
   77SLPC   H5R 6980   5.746   1.822   7.121  0.6020 -0.8055 -0.0814
   77SLPC   H5S 6981   5.687   1.963   7.219  0.8163  0.2050 -0.3131
   77SLPC   C26 6982   5.838   1.836   7.317  0.0671  0.7382 -0.2702
   77SLPC   H6R 6983   5.941   1.798   7.302 -0.6014 -1.1804 -0.1443
   77SLPC   H6S 6984   5.774   1.747   7.335 -0.1328  0.8268 -0.5316
   77SLPC   C27 6985   5.847   1.938   7.428 -0.1916  0.7880  0.0684
   77SLPC   H7R 6986   5.752   1.996   7.419 -0.6003 -0.0238 -1.0413
   77SLPC   H7S 6987   5.936   2.002   7.416  1.3386 -1.4529 -0.9314
   77SLPC   C28 6988   5.844   1.873   7.567  0.2513  0.1573  0.3229
   77SLPC   H8R 6989   5.917   1.789   7.559  0.7592  0.7000 -0.8382
   77SLPC   H8S 6990   5.740   1.835   7.579  0.8203 -1.5581 -0.0154
   77SLPC   C29 6991   5.887   1.947   7.692 -0.7951  0.2319 -0.0225
   77SLPC   H9R 6992   5.965   1.895   7.749 -0.5272 -0.1390 -0.7224
   77SLPC  C210 6993   5.832   2.060   7.743  0.3497  0.4431  0.3720
   77SLPC  H10R 6994   5.884   2.111   7.826 -1.6967 -0.8894  2.5545
   77SLPC  C211 6995   5.712   2.134   7.685 -0.6515 -0.6350 -0.3694
   77SLPC  H11R 6996   5.613   2.108   7.729 -1.1831  0.6814 -0.7275
   77SLPC  H11S 6997   5.700   2.113   7.577 -0.9351 -0.2691 -0.4126
   77SLPC  C212 6998   5.730   2.282   7.721  0.2093 -0.5505  0.0149
   77SLPC  H12R 6999   5.774   2.318   7.815 -2.5857 -1.2919  1.6674
   77SLPC  C213 7000   5.670   2.381   7.646 -0.0186  0.0149 -0.0705
   77SLPC  H13R 7001   5.701   2.482   7.677  0.1682 -0.2918  0.7364
   77SLPC  C214 7002   5.590   2.364   7.514 -0.2250 -0.1638 -0.3877
   77SLPC  H14R 7003   5.519   2.449   7.502 -2.6393 -1.5912  3.0387
   77SLPC  H14S 7004   5.529   2.272   7.512  0.9047 -0.8949 -2.6716
   77SLPC  C215 7005   5.677   2.369   7.387  0.0067 -0.8421  0.0550
   77SLPC  H15R 7006   5.743   2.280   7.388  1.2066 -0.0343 -2.9217
   77SLPC  H15S 7007   5.751   2.450   7.404 -0.5938 -0.6110  1.7026
   77SLPC  C216 7008   5.617   2.408   7.247 -1.0022 -0.2496  0.3402
   77SLPC  H16R 7009   5.580   2.513   7.253 -0.7194 -0.1331  0.0667
   77SLPC  H16S 7010   5.533   2.336   7.239  0.7539 -2.6175  2.3778
   77SLPC  C217 7011   5.716   2.390   7.137 -0.3362 -0.8388  0.3840
   77SLPC  H17R 7012   5.733   2.281   7.130  3.9341 -0.1820 -0.8274
   77SLPC  H17S 7013   5.814   2.440   7.152 -0.7537 -0.2160  1.1317
   77SLPC  C218 7014   5.666   2.439   7.000  0.0610 -0.9447  0.4994
   77SLPC  H18R 7015   5.734   2.409   6.918 -0.6077  1.2606 -0.9241
   77SLPC  H18S 7016   5.666   2.550   6.998  0.2008 -0.9737 -1.0694
   77SLPC  H18T 7017   5.562   2.404   6.985  0.1906 -1.2125  0.2366
   77SLPC   C33 7018   6.155   2.269   7.366 -0.1183  0.6559  0.0525
   77SLPC   H3X 7019   6.053   2.285   7.324 -0.1723  0.4781  0.1167
   77SLPC   H3Y 7020   6.219   2.359   7.376 -0.3500  0.6623  1.5986
   77SLPC   C34 7021   6.115   2.220   7.509  0.6486  0.2816 -0.2782
   77SLPC   H4X 7022   6.060   2.124   7.498  2.1609 -0.4795 -1.4741
   77SLPC   H4Y 7023   6.058   2.304   7.555 -0.6191 -2.0970  2.6337
   77SLPC   C35 7024   6.228   2.216   7.606 -0.6189 -0.1221 -0.1680
   77SLPC   H5X 7025   6.284   2.311   7.612 -1.7495  0.6963 -2.2957
   77SLPC   H5Y 7026   6.292   2.135   7.565 -0.5483  0.7469 -1.7847
   77SLPC   C36 7027   6.198   2.174   7.748  0.1301 -0.0273 -0.5160
   77SLPC   H6X 7028   6.163   2.069   7.754 -0.7557  0.3047  0.3550
   77SLPC   H6Y 7029   6.114   2.241   7.776  1.3562  1.0818  0.6014
   77SLPC   C37 7030   6.319   2.182   7.842 -0.5407  0.3378  0.2672
   77SLPC   H7X 7031   6.360   2.285   7.830 -2.0295  0.8461 -0.6476
   77SLPC   H7Y 7032   6.392   2.100   7.824  0.2283  1.0264  0.2246
   77SLPC   C38 7033   6.278   2.168   7.990  0.6892  0.7713 -0.4416
   77SLPC   H8X 7034   6.232   2.069   8.012 -1.3488  2.2474  2.1564
   77SLPC   H8Y 7035   6.195   2.241   8.007 -0.3861 -0.7127  0.7930
   77SLPC   C39 7036   6.387   2.203   8.086 -0.1303  0.1750 -0.0567
   77SLPC   H9X 7037   6.428   2.297   8.042 -1.3343 -0.6214 -3.0025
   77SLPC   H9Y 7038   6.462   2.122   8.076 -0.0550  0.2064  0.2518
   77SLPC  C310 7039   6.331   2.226   8.227  0.2067  0.2732  0.2240
   77SLPC  H10X 7040   6.294   2.129   8.264 -0.1513 -0.2858 -1.5512
   77SLPC  H10Y 7041   6.244   2.294   8.217  1.1275  1.4251 -0.0866
   77SLPC  C311 7042   6.443   2.278   8.318 -0.5205  0.5993  0.0908
   77SLPC  H11X 7043   6.466   2.385   8.297 -0.5284  0.9813  1.9709
   77SLPC  H11Y 7044   6.537   2.224   8.294 -0.4665  0.0319  1.5557
   77SLPC  C312 7045   6.416   2.284   8.468  0.0194  0.3929 -0.2007
   77SLPC  H12X 7046   6.314   2.325   8.480  0.9358  1.8099  3.6919
   77SLPC  H12Y 7047   6.489   2.354   8.515 -2.3296  1.7303  1.5165
   77SLPC  C313 7048   6.432   2.140   8.535  0.2702  0.2360  0.0299
   77SLPC  H13X 7049   6.504   2.080   8.476 -1.1266 -0.3177 -1.1392
   77SLPC  H13Y 7050   6.339   2.082   8.518  2.0737 -3.5544  2.3001
   77SLPC  C314 7051   6.462   2.147   8.684 -0.5778  0.2892 -0.8871
   77SLPC  H14X 7052   6.453   2.045   8.728  0.8724 -0.8519 -3.1705
   77SLPC  H14Y 7053   6.395   2.217   8.739 -2.1066 -0.8492 -1.2758
   77SLPC  C315 7054   6.597   2.204   8.712  0.1374 -0.0201  0.1798
   77SLPC  H15X 7055   6.592   2.315   8.714  0.7132 -0.0199  2.7865
   77SLPC  H15Y 7056   6.670   2.177   8.633 -0.0882  1.3531 -0.5118
   77SLPC  C316 7057   6.664   2.160   8.848 -0.3125  0.2811  0.5127
   77SLPC  H16X 7058   6.757   2.220   8.863  0.3027 -0.6924  0.6313
   77SLPC  H16Y 7059   6.695   2.054   8.838  0.1909  0.6218 -1.8843
   77SLPC  C317 7060   6.581   2.186   8.977 -0.0572  0.0241  0.6819
   77SLPC  H17X 7061   6.483   2.134   8.967 -0.2084  0.2756  0.8632
   77SLPC  H17Y 7062   6.559   2.294   8.986 -0.1293 -0.0252  1.1329
   77SLPC  C318 7063   6.649   2.131   9.102 -0.4312  0.3814 -0.0985
   77SLPC  H18X 7064   6.738   2.195   9.117 -1.1128  1.5766 -1.0358
   77SLPC  H18Y 7065   6.692   2.029   9.096 -1.8811 -0.3422  1.4993
   77SLPC  H18Z 7066   6.571   2.129   9.180 -1.2303 -0.1538 -0.8942
   78SLPC     N 7067   0.857   3.605   6.258 -0.2183 -0.7254  0.1950
   78SLPC   C13 7068   0.944   3.718   6.303 -0.2841  0.2209  0.4858
   78SLPC  H13A 7069   0.946   3.797   6.230 -0.6159 -2.2283 -2.2316
   78SLPC  H13B 7070   0.920   3.757   6.401  2.1986 -0.7867  1.5203
   78SLPC  H13C 7071   1.045   3.680   6.311 -0.8044 -1.3443 -0.1555
   78SLPC   C14 7072   0.910   3.533   6.138  0.8498 -0.1079 -0.3022
   78SLPC  H14A 7073   0.986   3.460   6.162 -1.6257 -2.7176 -0.2349
   78SLPC  H14B 7074   0.842   3.467   6.088 -0.3232  0.0597  1.0513
   78SLPC  H14C 7075   0.931   3.604   6.060  1.1352 -2.6627 -2.6165
   78SLPC   C15 7076   0.724   3.657   6.211  0.0593  0.3339 -1.0522
   78SLPC  H15A 7077   0.737   3.725   6.128 -0.1366  0.5631 -0.8971
   78SLPC  H15B 7078   0.653   3.580   6.183  0.6250 -1.1562  1.4516
   78SLPC  H15C 7079   0.679   3.718   6.288  0.4425  1.8420 -1.9998
   78SLPC   C12 7080   0.836   3.509   6.366  0.0748  0.3478 -0.2237
   78SLPC  H12A 7081   0.777   3.425   6.332  0.4973  0.6077 -1.5982
   78SLPC  H12B 7082   0.799   3.564   6.452  2.1969  0.9347  0.3300
   78SLPC   C11 7083   0.966   3.434   6.414 -0.9293 -0.3540 -0.6498
   78SLPC  H11A 7084   0.925   3.381   6.502  1.3958  1.4900  1.6449
   78SLPC  H11B 7085   1.035   3.515   6.447 -0.5475 -0.3954 -1.3477
   78SLPC     P 7086   0.987   3.194   6.294 -0.1079 -0.0721 -0.0095
   78SLPC   O13 7087   0.846   3.176   6.245 -0.0749 -0.2752 -0.3979
   78SLPC   O14 7088   1.083   3.139   6.195 -0.1085 -0.0220  0.5421
   78SLPC   O12 7089   1.026   3.345   6.320  0.3098 -0.2776 -0.1600
   78SLPC   O11 7090   1.002   3.126   6.438  0.2146  0.3147 -0.1432
   78SLPC    C1 7091   1.127   3.138   6.505 -0.6173  0.8146 -0.4664
   78SLPC    HA 7092   1.209   3.085   6.452  0.1812  2.0457 -0.4708
   78SLPC    HB 7093   1.162   3.243   6.498  3.5592 -0.6612 -4.2407
   78SLPC    C2 7094   1.100   3.091   6.653 -0.0330 -0.1855  0.3724
   78SLPC    HS 7095   1.015   3.154   6.687  0.3511 -0.4123  1.7766
   78SLPC   O21 7096   1.214   3.123   6.733  0.6856  0.5433  0.4298
   78SLPC   C21 7097   1.316   3.042   6.727  0.9298  0.4310  0.0450
   78SLPC   O22 7098   1.335   2.961   6.639 -0.1806 -0.1701  0.2404
   78SLPC   C22 7099   1.410   3.077   6.833  0.5314  0.8190  0.5362
   78SLPC   H2R 7100   1.426   3.187   6.826 -0.0806  0.9037  0.4257
   78SLPC   H2S 7101   1.356   3.055   6.927  3.1814 -1.3484  1.5801
   78SLPC    C3 7102   1.054   2.935   6.662 -0.2245 -0.0137  0.3565
   78SLPC    HX 7103   1.122   2.878   6.596 -0.7507  0.1630 -0.3381
   78SLPC    HY 7104   0.951   2.934   6.621 -1.0692  1.0764  2.3743
   78SLPC   O31 7105   1.056   2.891   6.798  0.2875  0.3012  0.2051
   78SLPC   C31 7106   0.945   2.919   6.868  0.1768 -0.1061 -0.8324
   78SLPC   O32 7107   0.847   2.978   6.826  1.2760 -0.2597 -0.5927
   78SLPC   C32 7108   0.970   2.880   7.014 -0.3419  0.4100 -0.7082
   78SLPC   H2X 7109   0.922   2.781   7.030  0.3546 -0.1259 -1.8627
   78SLPC   H2Y 7110   0.929   2.947   7.092 -0.5311  0.2880 -0.7021
   78SLPC   C23 7111   1.546   2.996   6.821 -0.7049 -0.6062 -1.1563
   78SLPC   H3R 7112   1.601   3.028   6.730  0.3393  1.0778  0.0515
   78SLPC   H3S 7113   1.522   2.888   6.811 -0.3601 -0.4918 -3.5746
   78SLPC   C24 7114   1.631   3.013   6.945  0.6721 -0.7877 -0.5838
   78SLPC   H4R 7115   1.574   2.982   7.035  1.8166 -0.2485  0.3302
   78SLPC   H4S 7116   1.664   3.119   6.957 -2.5824  0.5961 -3.1357
   78SLPC   C25 7117   1.746   2.923   6.950  0.5743 -0.3246  0.1492
   78SLPC   H5R 7118   1.821   2.971   6.885 -4.0201  2.0156 -3.7052
   78SLPC   H5S 7119   1.726   2.826   6.900 -0.6834 -1.3165  2.4575
   78SLPC   C26 7120   1.789   2.879   7.091  0.8368  0.4619  0.1373
   78SLPC   H6R 7121   1.702   2.849   7.154  0.2189  0.6884 -0.6026
   78SLPC   H6S 7122   1.840   2.962   7.145  1.6354 -1.0855  1.7913
   78SLPC   C27 7123   1.889   2.765   7.079  0.7630 -0.4013 -0.2895
   78SLPC   H7R 7124   1.969   2.773   7.003  0.3511 -2.1722 -0.9373
   78SLPC   H7S 7125   1.842   2.669   7.048  0.1082 -0.4358  0.7569
   78SLPC   C28 7126   1.958   2.725   7.218 -0.0523 -0.5084 -0.4642
   78SLPC   H8R 7127   2.033   2.806   7.230 -0.3367 -0.4395  0.9940
   78SLPC   H8S 7128   2.021   2.634   7.208 -0.3077 -0.7591  0.1836
   78SLPC   C29 7129   1.864   2.711   7.329 -0.3948  0.1790 -0.3229
   78SLPC   H9R 7130   1.773   2.658   7.300 -2.0976  1.9409  1.6250
   78SLPC  C210 7131   1.877   2.744   7.458 -0.0665 -0.5506 -0.2906
   78SLPC  H10R 7132   1.790   2.722   7.521 -0.5235 -1.1912 -1.1360
   78SLPC  C211 7133   1.997   2.801   7.524  0.0069 -0.1824  0.0384
   78SLPC  H11R 7134   1.971   2.899   7.569 -1.7459  0.5949 -2.5105
   78SLPC  H11S 7135   2.073   2.824   7.446  0.9682  0.7193  1.2262
   78SLPC  C212 7136   2.071   2.707   7.624 -0.2035 -0.0260  0.8388
   78SLPC  H12R 7137   2.149   2.649   7.572 -1.5525 -2.1058  1.0935
   78SLPC  C213 7138   2.065   2.708   7.760 -0.0034  0.7315  0.2912
   78SLPC  H13R 7139   2.122   2.631   7.813 -1.3070  1.8685  3.4662
   78SLPC  C214 7140   1.972   2.799   7.846 -0.5196  0.4456  0.0613
   78SLPC  H14R 7141   1.920   2.730   7.916 -3.5176  0.2974 -2.2082
   78SLPC  H14S 7142   1.900   2.843   7.773 -1.2214  0.8056  0.9584
   78SLPC  C215 7143   2.050   2.901   7.921 -0.3760 -0.0234  0.4290
   78SLPC  H15R 7144   1.976   2.975   7.958 -0.0181  0.6125 -0.1061
   78SLPC  H15S 7145   2.119   2.963   7.860 -0.2693  0.9785  1.5590
   78SLPC  C216 7146   2.121   2.857   8.050 -1.2932 -0.7246 -0.1545
   78SLPC  H16R 7147   2.199   2.926   8.089 -2.6651  0.7977 -0.0631
   78SLPC  H16S 7148   2.169   2.759   8.030  1.6747  0.8153 -0.8367
   78SLPC  C217 7149   2.024   2.843   8.163 -0.1466  0.0997 -0.5498
   78SLPC  H17R 7150   1.928   2.796   8.132  0.1962 -0.6952 -0.4161
   78SLPC  H17S 7151   1.995   2.945   8.195 -2.4311 -1.0442  1.1910
   78SLPC  C218 7152   2.086   2.766   8.281 -0.4649  0.1715  0.6443
   78SLPC  H18R 7153   2.151   2.833   8.340 -1.3686  0.0164  1.8224
   78SLPC  H18S 7154   2.140   2.676   8.243 -1.3580 -1.0798  2.2826
   78SLPC  H18T 7155   2.009   2.719   8.345 -0.2509  0.5596  1.1843
   78SLPC   C33 7156   1.119   2.865   7.040 -0.6263 -0.3904  0.1495
   78SLPC   H3X 7157   1.186   2.950   7.016 -0.5520 -0.3164  0.6070
   78SLPC   H3Y 7158   1.157   2.773   6.991  1.9703  0.3060  0.7725
   78SLPC   C34 7159   1.159   2.858   7.189 -1.0468  0.3586 -0.1648
   78SLPC   H4X 7160   1.263   2.822   7.202 -1.3083 -0.0203  0.9713
   78SLPC   H4Y 7161   1.099   2.782   7.245 -1.2219 -0.5907 -1.6095
   78SLPC   C35 7162   1.149   2.989   7.263  0.7128  0.1321 -0.5140
   78SLPC   H5X 7163   1.056   3.042   7.231 -0.5523 -2.0475 -0.5093
   78SLPC   H5Y 7164   1.235   3.053   7.232  0.1515  0.2994 -1.7805
   78SLPC   C36 7165   1.159   2.961   7.412  0.6470 -0.1465  0.2185
   78SLPC   H6X 7166   1.241   2.891   7.438  0.7408 -0.3857 -0.7150
   78SLPC   H6Y 7167   1.065   2.921   7.456  0.1495 -0.8843 -1.4787
   78SLPC   C37 7168   1.199   3.081   7.498  0.4978 -0.3068 -0.4788
   78SLPC   H7X 7169   1.154   3.175   7.459  0.7738 -0.0635 -0.2211
   78SLPC   H7Y 7170   1.308   3.095   7.486  0.7173 -0.6856  1.0220
   78SLPC   C38 7171   1.165   3.064   7.643 -0.0798 -0.2534  0.3548
   78SLPC   H8X 7172   1.175   2.959   7.678 -0.3627  0.4601  2.6666
   78SLPC   H8Y 7173   1.058   3.085   7.661  0.3829  0.6132  2.2403
   78SLPC   C39 7174   1.258   3.146   7.743  0.0831  0.0190  0.0634
   78SLPC   H9X 7175   1.256   3.254   7.718 -2.0793 -0.3874 -1.7549
   78SLPC   H9Y 7176   1.362   3.108   7.741  0.9408  2.2715  0.9908
   78SLPC  C310 7177   1.207   3.124   7.883  0.4182  0.5125 -0.2516
   78SLPC  H10X 7178   1.209   3.016   7.909  0.4632  0.8873  1.3932
   78SLPC  H10Y 7179   1.102   3.160   7.886  0.0956 -0.3547 -0.8604
   78SLPC  C311 7180   1.294   3.189   7.986 -0.4096  0.3023 -0.8226
   78SLPC  H11X 7181   1.308   3.294   7.954 -0.7522  0.5616 -0.1302
   78SLPC  H11Y 7182   1.393   3.136   7.986 -1.9687 -2.7590  0.4526
   78SLPC  C312 7183   1.245   3.180   8.132  0.3583 -0.6064 -0.4531
   78SLPC  H12X 7184   1.159   3.250   8.124 -0.0932 -1.2942 -1.9323
   78SLPC  H12Y 7185   1.324   3.208   8.205  0.2890  1.6787 -1.2069
   78SLPC  C313 7186   1.198   3.040   8.187 -0.6015 -0.5067  0.1886
   78SLPC  H13X 7187   1.287   2.976   8.207  1.5844  1.3836 -3.0858
   78SLPC  H13Y 7188   1.129   2.983   8.121  1.5404 -0.6932 -1.9382
   78SLPC  C314 7189   1.129   3.067   8.321  0.5957  0.2560 -0.0102
   78SLPC  H14X 7190   1.052   3.145   8.308 -0.1728 -0.1571  1.8139
   78SLPC  H14Y 7191   1.205   3.103   8.394  1.9320 -2.6414  0.1130
   78SLPC  C315 7192   1.066   2.943   8.390  0.1150 -1.0948  0.1303
   78SLPC  H15X 7193   1.149   2.874   8.416  0.0207 -0.6725  1.5659
   78SLPC  H15Y 7194   1.000   2.895   8.315  2.4496 -1.6460 -1.6529
   78SLPC  C316 7195   0.986   2.984   8.511  0.2976 -0.5222 -0.0765
   78SLPC  H16X 7196   0.961   2.889   8.563  0.1485 -0.4487 -0.0140
   78SLPC  H16Y 7197   0.889   3.027   8.479  0.0991 -1.0262 -0.1620
   78SLPC  C317 7198   1.075   3.060   8.611  0.8606 -0.4395 -0.0316
   78SLPC  H17X 7199   1.029   3.161   8.610 -1.1791 -1.3481 -1.0817
   78SLPC  H17Y 7200   1.182   3.055   8.582  0.5364 -0.4830 -1.2590
   78SLPC  C318 7201   1.063   3.012   8.756 -0.2644  0.2067 -0.3788
   78SLPC  H18X 7202   0.958   3.014   8.794 -0.3945  0.0551 -0.7337
   78SLPC  H18Y 7203   1.124   3.080   8.819 -2.8172 -0.0190  2.4811
   78SLPC  H18Z 7204   1.092   2.905   8.761 -1.6137 -0.1436  0.2948
   79SLPC     N 7205   5.902   4.646   6.137 -0.2040  0.2941  0.1108
   79SLPC   C13 7206   6.009   4.740   6.174 -0.1607  0.1035 -0.2119
   79SLPC  H13A 7207   5.969   4.822   6.233 -0.1836 -0.0683  0.0117
   79SLPC  H13B 7208   6.084   4.702   6.241  1.5001  0.8408 -1.6352
   79SLPC  H13C 7209   6.045   4.789   6.085 -1.0694 -0.5836 -0.9689
   79SLPC   C14 7210   5.933   4.545   6.031 -0.3844  0.4968 -0.0468
   79SLPC  H14A 7211   5.875   4.455   6.047  1.5713 -1.0569 -1.3847
   79SLPC  H14B 7212   5.918   4.586   5.932 -1.5808 -1.4908 -0.7095
   79SLPC  H14C 7213   6.039   4.522   6.034 -0.5588 -0.2416  0.4080
   79SLPC   C15 7214   5.782   4.719   6.082 -0.0677 -0.6338  0.9688
   79SLPC  H15A 7215   5.772   4.813   6.134  1.0851 -0.0987  0.2580
   79SLPC  H15B 7216   5.790   4.736   5.976  0.6810 -2.2276  0.7637
   79SLPC  H15C 7217   5.701   4.657   6.118  0.9363 -0.8269  2.9709
   79SLPC   C12 7218   5.856   4.557   6.258 -0.7120 -0.2556  0.2164
   79SLPC  H12A 7219   5.844   4.626   6.340 -1.1156  2.1700 -1.8268
   79SLPC  H12B 7220   5.943   4.498   6.281  1.3645  1.9959 -1.5835
   79SLPC   C11 7221   5.721   4.480   6.264 -0.0176  0.5636 -0.1966
   79SLPC  H11A 7222   5.721   4.428   6.362 -0.9208  2.8050  1.0187
   79SLPC  H11B 7223   5.705   4.393   6.196 -1.4979  1.6675 -1.2966
   79SLPC     P 7224   5.557   4.663   6.366 -0.0523 -0.0990 -0.0994
   79SLPC   O13 7225   5.583   4.804   6.333 -0.0742  0.2537 -0.2578
   79SLPC   O14 7226   5.414   4.633   6.392  0.2727 -0.1615 -0.2267
   79SLPC   O12 7227   5.610   4.571   6.254  0.5470  0.2661 -0.2566
   79SLPC   O11 7228   5.636   4.617   6.498 -0.3888  0.3586  0.2026
   79SLPC    C1 7229   5.593   4.515   6.594 -0.3450  0.1243  0.1315
   79SLPC    HA 7230   5.520   4.442   6.551 -0.4796 -0.2739  1.0388
   79SLPC    HB 7231   5.679   4.447   6.615 -0.0724 -0.5900 -2.9352
   79SLPC    C2 7232   5.545   4.566   6.730  0.2212  0.0892 -0.1743
   79SLPC    HS 7233   5.458   4.629   6.699  1.0261  1.1505 -0.3057
   79SLPC   O21 7234   5.653   4.639   6.789  0.0847 -0.2335 -0.5754
   79SLPC   C21 7235   5.624   4.769   6.818 -0.0459  0.1947  0.2414
   79SLPC   O22 7236   5.526   4.829   6.788 -0.3266 -0.2570 -0.6968
   79SLPC   C22 7237   5.713   4.812   6.927 -0.5456  0.3323  0.8569
   79SLPC   H2R 7238   5.821   4.797   6.907 -0.3337  1.2286  1.2754
   79SLPC   H2S 7239   5.692   4.920   6.947 -2.9741  0.2765 -1.1928
   79SLPC    C3 7240   5.495   4.452   6.823 -1.0119 -0.2032  0.4103
   79SLPC    HX 7241   5.583   4.391   6.853 -0.4700  0.3793 -0.0047
   79SLPC    HY 7242   5.414   4.387   6.782 -1.7633  0.8223  0.2557
   79SLPC   O31 7243   5.451   4.517   6.942  0.8145  0.2301 -0.4817
   79SLPC   C31 7244   5.321   4.536   6.951  0.2137 -0.3011 -0.0377
   79SLPC   O32 7245   5.236   4.499   6.869  0.2896 -0.2747  0.2832
   79SLPC   C32 7246   5.291   4.617   7.075 -0.4478 -0.1010 -0.5310
   79SLPC   H2X 7247   5.182   4.636   7.081 -0.2058  1.4508 -0.8215
   79SLPC   H2Y 7248   5.367   4.698   7.079  0.2148 -0.7883  2.6846
   79SLPC   C23 7249   5.678   4.726   7.053 -0.0317 -0.3128 -0.1152
   79SLPC   H3R 7250   5.703   4.618   7.048 -1.3594 -0.5608 -2.1016
   79SLPC   H3S 7251   5.569   4.729   7.077 -0.1081 -1.5584 -0.2974
   79SLPC   C24 7252   5.764   4.795   7.162  1.0358  0.1871  0.3088
   79SLPC   H4R 7253   5.746   4.904   7.158 -0.2037 -0.0093  0.2424
   79SLPC   H4S 7254   5.871   4.782   7.137  0.7041 -2.5404  0.0804
   79SLPC   C25 7255   5.730   4.754   7.305 -0.2558 -1.1447  0.4371
   79SLPC   H5R 7256   5.740   4.643   7.309 -4.1979 -1.7239 -2.2994
   79SLPC   H5S 7257   5.621   4.770   7.319 -0.4231 -2.7022  1.0420
   79SLPC   C26 7258   5.800   4.825   7.421 -0.8917 -0.3391  1.0394
   79SLPC   H6R 7259   5.774   4.931   7.400  3.5137  1.2812  3.2544
   79SLPC   H6S 7260   5.910   4.812   7.418 -1.1241 -2.0770 -1.8010
   79SLPC   C27 7261   5.742   4.784   7.562 -0.6803  0.5665  0.4785
   79SLPC   H7R 7262   5.719   4.675   7.570  0.0123  0.2315 -1.6900
   79SLPC   H7S 7263   5.637   4.821   7.560 -1.3021 -1.1189  0.5231
   79SLPC   C28 7264   5.815   4.839   7.682  0.3063  0.1910 -0.2576
   79SLPC   H8R 7265   5.753   4.844   7.774 -0.5306 -0.9766 -0.7445
   79SLPC   H8S 7266   5.850   4.943   7.664  0.8625  0.4298  1.9999
   79SLPC   C29 7267   5.940   4.756   7.710  0.2168 -0.9102 -0.3614
   79SLPC   H9R 7268   6.009   4.749   7.625  1.0472  0.9200  0.1340
   79SLPC  C210 7269   5.966   4.711   7.837 -0.5617 -0.4271  0.9996
   79SLPC  H10R 7270   6.050   4.640   7.845  0.0464 -0.0877 -2.0144
   79SLPC  C211 7271   5.897   4.740   7.966 -0.6804 -0.5607  0.4724
   79SLPC  H11R 7272   5.849   4.647   8.002 -0.6579 -1.0821 -0.8230
   79SLPC  H11S 7273   5.814   4.814   7.956 -1.0518 -0.6489  2.6556
   79SLPC  C212 7274   5.984   4.790   8.076 -0.3324 -0.2719  0.3044
   79SLPC  H12R 7275   5.991   4.900   8.087 -0.2049 -0.3690  1.2430
   79SLPC  C213 7276   6.048   4.720   8.166  0.0640  0.1586  0.1230
   79SLPC  H13R 7277   6.117   4.772   8.234 -0.9982 -0.2555  1.5145
   79SLPC  C214 7278   6.043   4.567   8.186  0.0127 -0.2027  0.9492
   79SLPC  H14R 7279   6.139   4.529   8.145 -0.8657  0.4836 -1.9219
   79SLPC  H14S 7280   5.972   4.511   8.121  0.8214 -0.0764 -0.0604
   79SLPC  C215 7281   6.017   4.538   8.331 -0.6629  0.1089 -0.6484
   79SLPC  H15R 7282   5.923   4.586   8.368  0.1964  1.6197 -0.3877
   79SLPC  H15S 7283   6.095   4.596   8.385  0.1664 -0.1160 -1.6041
   79SLPC  C216 7284   6.009   4.394   8.373 -0.0048  0.5158  0.2541
   79SLPC  H16R 7285   5.951   4.342   8.293  1.8089 -3.4392  1.3749
   79SLPC  H16S 7286   5.953   4.384   8.468  1.5857 -1.0720  1.0485
   79SLPC  C217 7287   6.152   4.331   8.382 -0.3755 -0.8068 -0.0022
   79SLPC  H17R 7288   6.207   4.372   8.470 -2.4638  3.4599 -0.5664
   79SLPC  H17S 7289   6.208   4.377   8.298  0.5814  0.5719  1.3670
   79SLPC  C218 7290   6.167   4.180   8.370  0.2135 -0.3774 -0.3994
   79SLPC  H18R 7291   6.107   4.133   8.451 -2.8828  0.3442 -2.1955
   79SLPC  H18S 7292   6.272   4.152   8.390 -1.0865 -2.6970  3.9425
   79SLPC  H18T 7293   6.137   4.153   8.266 -0.1050  1.0103 -0.6710
   79SLPC   C33 7294   5.328   4.531   7.196 -0.0127  0.4342  0.4802
   79SLPC   H3X 7295   5.421   4.476   7.169  0.7305  0.7682  2.2618
   79SLPC   H3Y 7296   5.249   4.453   7.204  0.8819 -0.7677 -1.7606
   79SLPC   C34 7297   5.341   4.610   7.331 -0.3277 -0.2857 -0.2705
   79SLPC   H4X 7298   5.243   4.661   7.343  0.3851  0.7432  1.4286
   79SLPC   H4Y 7299   5.419   4.689   7.326  0.2522 -0.9575 -2.3217
   79SLPC   C35 7300   5.358   4.524   7.460 -0.0169 -0.2271 -0.1354
   79SLPC   H5X 7301   5.436   4.449   7.440 -0.8112 -1.4139  1.1439
   79SLPC   H5Y 7302   5.264   4.469   7.483 -1.2045  2.6373  2.3175
   79SLPC   C36 7303   5.405   4.604   7.579  0.0020 -0.5030 -0.0318
   79SLPC   H6X 7304   5.322   4.672   7.604  0.9349  0.6409  0.0094
   79SLPC   H6Y 7305   5.492   4.665   7.545 -1.1101  2.3246  1.9766
   79SLPC   C37 7306   5.435   4.517   7.702 -0.0889  0.1929  0.1034
   79SLPC   H7X 7307   5.534   4.470   7.682 -0.8048 -1.1639 -0.2539
   79SLPC   H7Y 7308   5.354   4.444   7.719 -0.4338  0.4205 -0.5415
   79SLPC   C38 7309   5.441   4.612   7.826 -0.1513 -0.0763  0.0107
   79SLPC   H8X 7310   5.337   4.641   7.855  0.8411  0.4605  3.2268
   79SLPC   H8Y 7311   5.502   4.703   7.811  3.8961 -2.7962 -0.6196
   79SLPC   C39 7312   5.502   4.517   7.939  0.0069  0.1750  1.0956
   79SLPC   H9X 7313   5.600   4.477   7.908  0.1980 -0.2036  2.1521
   79SLPC   H9Y 7314   5.437   4.428   7.954 -1.4063  1.0278  0.2229
   79SLPC  C310 7315   5.528   4.582   8.074  0.4284 -0.2059  0.0037
   79SLPC  H10X 7316   5.445   4.656   8.075  1.0066  0.4450  0.4796
   79SLPC  H10Y 7317   5.619   4.645   8.067  1.1314 -1.0979  0.9551
   79SLPC  C311 7318   5.541   4.487   8.191 -0.2217 -0.4964  0.4834
   79SLPC  H11X 7319   5.624   4.418   8.168  0.6471  0.2319  1.3814
   79SLPC  H11Y 7320   5.450   4.424   8.203 -1.6867  0.9786 -2.2778
   79SLPC  C312 7321   5.565   4.563   8.328 -0.4641 -0.1029 -0.0596
   79SLPC  H12X 7322   5.499   4.653   8.326 -0.6249 -0.2489 -1.7816
   79SLPC  H12Y 7323   5.671   4.596   8.321 -0.3908 -0.1957  0.5850
   79SLPC  C313 7324   5.541   4.471   8.447 -0.4183  0.0682 -0.1711
   79SLPC  H13X 7325   5.610   4.383   8.445  0.2051  0.5379  0.4584
   79SLPC  H13Y 7326   5.435   4.438   8.449 -0.7979  1.2946  0.4615
   79SLPC  C314 7327   5.570   4.535   8.577  0.1701 -0.4820 -0.1812
   79SLPC  H14X 7328   5.525   4.636   8.575 -0.7177 -0.8969 -2.2149
   79SLPC  H14Y 7329   5.680   4.548   8.586  0.2459  0.6998 -2.5017
   79SLPC  C315 7330   5.508   4.473   8.706 -0.8388 -0.3193 -0.4317
   79SLPC  H15X 7331   5.402   4.450   8.682 -0.7844 -1.4033  0.3443
   79SLPC  H15Y 7332   5.507   4.548   8.788  0.8680 -0.2319 -0.4723
   79SLPC  C316 7333   5.594   4.358   8.763 -0.0335 -0.2663  0.3783
   79SLPC  H16X 7334   5.701   4.386   8.754 -0.6543  2.3542  0.6498
   79SLPC  H16Y 7335   5.583   4.265   8.703  0.1693  1.6734 -2.7831
   79SLPC  C317 7336   5.580   4.320   8.911 -0.1721 -0.5516 -0.1935
   79SLPC  H17X 7337   5.541   4.402   8.975 -0.1190 -0.8140  0.1795
   79SLPC  H17Y 7338   5.684   4.306   8.949 -0.2630 -2.0068 -0.4206
   79SLPC  C318 7339   5.490   4.204   8.924 -0.1499 -0.6951  0.1201
   79SLPC  H18X 7340   5.387   4.242   8.905  0.7022  0.6867 -1.8151
   79SLPC  H18Y 7341   5.489   4.159   9.025  0.7280 -1.8364 -0.3696
   79SLPC  H18Z 7342   5.516   4.118   8.858 -2.0668 -0.3629 -1.1263
   80SLPC     N 7343   0.516   2.696   6.445 -0.2024 -0.6681  0.1866
   80SLPC   C13 7344   0.486   2.599   6.551 -0.4148  0.4811 -0.3632
   80SLPC  H13A 7345   0.448   2.510   6.503  1.0156  0.3302 -1.2463
   80SLPC  H13B 7346   0.574   2.577   6.611 -0.6991 -0.3036 -0.2314
   80SLPC  H13C 7347   0.407   2.646   6.608 -1.4796 -0.6234 -0.9114
   80SLPC   C14 7348   0.405   2.693   6.343  0.3511 -0.2709  0.2805
   80SLPC  H14A 7349   0.372   2.596   6.309  1.4624 -1.1585  1.6646
   80SLPC  H14B 7350   0.318   2.748   6.376  0.6225  0.8007 -0.7487
   80SLPC  H14C 7351   0.430   2.747   6.253 -1.5869 -0.9424 -0.6672
   80SLPC   C15 7352   0.643   2.646   6.383 -0.7561  0.5502  0.1395
   80SLPC  H15A 7353   0.729   2.669   6.444 -1.1410 -1.2437  1.4252
   80SLPC  H15B 7354   0.650   2.539   6.366 -0.6502  0.5538  0.1574
   80SLPC  H15C 7355   0.654   2.704   6.292 -1.8722  0.8978  0.2228
   80SLPC   C12 7356   0.537   2.842   6.497  0.1297  1.2857  0.3783
   80SLPC  H12A 7357   0.556   2.907   6.413 -0.2455 -0.3453 -0.9887
   80SLPC  H12B 7358   0.618   2.842   6.568  0.1501 -0.4810  0.3930
   80SLPC   C11 7359   0.417   2.902   6.578  0.4065  0.4889  0.1745
   80SLPC  H11A 7360   0.445   2.998   6.626 -2.5071 -0.3143  3.6770
   80SLPC  H11B 7361   0.390   2.838   6.665  0.5103  0.2289  0.0192
   80SLPC     P 7362   0.292   3.042   6.398  0.4676  0.1008 -0.3226
   80SLPC   O13 7363   0.424   3.078   6.344  0.8024 -0.5014  0.2091
   80SLPC   O14 7364   0.169   3.017   6.309  0.4198 -0.2412 -0.5278
   80SLPC   O12 7365   0.301   2.915   6.491  0.8735 -0.1912 -0.1637
   80SLPC   O11 7366   0.248   3.145   6.506  0.6118 -0.5624 -0.4525
   80SLPC    C1 7367   0.166   3.123   6.616  0.2344 -0.0833 -0.4398
   80SLPC    HA 7368   0.068   3.077   6.589 -0.2964  0.9208 -0.2141
   80SLPC    HB 7369   0.222   3.053   6.683 -2.5774 -1.0970  0.9082
   80SLPC    C2 7370   0.133   3.257   6.674  0.0888 -1.3638 -0.9865
   80SLPC    HS 7371   0.100   3.324   6.592  0.8576  0.3359  0.0761
   80SLPC   O21 7372   0.260   3.302   6.732 -0.1430 -0.3964 -0.1856
   80SLPC   C21 7373   0.258   3.419   6.786 -0.2943  0.7289 -0.6114
   80SLPC   O22 7374   0.177   3.506   6.755 -0.3303  0.2873 -0.5209
   80SLPC   C22 7375   0.365   3.452   6.893 -0.3806 -0.3493 -0.1961
   80SLPC   H2R 7376   0.412   3.365   6.944  1.6317  0.6258 -0.3113
   80SLPC   H2S 7377   0.453   3.500   6.844  1.4426 -1.2414  2.0875
   80SLPC    C3 7378   0.026   3.253   6.791 -0.1552 -0.1635 -0.3809
   80SLPC    HX 7379  -0.069   3.203   6.761 -0.5597 -0.2069  0.8968
   80SLPC    HY 7380  -0.005   3.358   6.810 -0.9652 -0.4153 -0.2861
   80SLPC   O31 7381   0.076   3.203   6.917  0.0357  0.6980 -0.8498
   80SLPC   C31 7382   0.031   3.082   6.952  0.5265  0.1710 -0.4014
   80SLPC   O32 7383  -0.015   2.995   6.879 -0.4882  0.9030 -0.3080
   80SLPC   C32 7384   0.061   3.068   7.100 -0.4018 -0.4610  1.3625
   80SLPC   H2X 7385   0.014   3.149   7.159 -1.9060 -3.1509  4.0178
   80SLPC   H2Y 7386   0.172   3.065   7.097 -0.4474 -0.4150 -2.2259
   80SLPC   C23 7387   0.314   3.557   6.998  0.1395 -0.0765  0.5072
   80SLPC   H3R 7388   0.254   3.630   6.938  2.9510 -1.6216 -4.4698
   80SLPC   H3S 7389   0.402   3.616   7.031 -0.3999  2.3960 -2.2359
   80SLPC   C24 7390   0.237   3.489   7.112 -0.6775 -0.3609 -0.6644
   80SLPC   H4R 7391   0.285   3.394   7.146 -1.1458  0.8002  3.4842
   80SLPC   H4S 7392   0.137   3.461   7.074 -1.0720  0.5278 -0.2878
   80SLPC   C25 7393   0.215   3.575   7.234 -1.0468  0.0789 -0.0043
   80SLPC   H5R 7394   0.160   3.665   7.201  0.5715  0.6381 -1.2446
   80SLPC   H5S 7395   0.319   3.598   7.267 -1.5868  2.6872 -0.0554
   80SLPC   C26 7396   0.127   3.499   7.326 -0.0874  0.4102 -0.1714
   80SLPC   H6R 7397   0.038   3.456   7.274  0.6920  0.5803 -1.6626
   80SLPC   H6S 7398   0.089   3.569   7.403 -2.4394  2.7554 -3.3055
   80SLPC   C27 7399   0.203   3.389   7.400  0.4241  0.0508  0.3087
   80SLPC   H7R 7400   0.312   3.392   7.379  0.6857 -0.7673  1.5325
   80SLPC   H7S 7401   0.164   3.290   7.368  4.2777 -1.4063 -0.1677
   80SLPC   C28 7402   0.193   3.396   7.557  0.1215 -0.2507  0.6092
   80SLPC   H8R 7403   0.260   3.312   7.584  0.4562 -0.8188 -1.7946
   80SLPC   H8S 7404   0.087   3.387   7.587 -0.0952  3.4968  1.2436
   80SLPC   C29 7405   0.263   3.515   7.616  0.4553 -0.4531 -0.0507
   80SLPC   H9R 7406   0.315   3.578   7.543  0.1009  0.5740  0.5848
   80SLPC  C210 7407   0.271   3.544   7.744  0.0298  0.4048 -0.5150
   80SLPC  H10R 7408   0.340   3.624   7.775  0.7349  0.2686 -1.7012
   80SLPC  C211 7409   0.220   3.460   7.854  0.3458 -0.8092  0.5762
   80SLPC  H11R 7410   0.138   3.394   7.820  0.9527 -2.0371  1.4424
   80SLPC  H11S 7411   0.159   3.530   7.914 -2.1589 -1.6307 -0.9680
   80SLPC  C212 7412   0.327   3.380   7.922  0.0071  0.0040 -0.9774
   80SLPC  H12R 7413   0.421   3.366   7.867  1.5560 -0.6514  1.7387
   80SLPC  C213 7414   0.330   3.342   8.051  0.4396  0.0491 -0.1011
   80SLPC  H13R 7415   0.417   3.282   8.083  2.5128  2.3369 -1.3147
   80SLPC  C214 7416   0.224   3.366   8.153 -0.0640  0.3963 -0.4834
   80SLPC  H14R 7417   0.161   3.275   8.149  0.6462 -0.0979 -0.4642
   80SLPC  H14S 7418   0.167   3.462   8.147 -0.1257  0.3964  0.0327
   80SLPC  C215 7419   0.302   3.377   8.291 -0.2822  0.2513  1.1400
   80SLPC  H15R 7420   0.385   3.451   8.287 -0.3227  0.1891 -1.8102
   80SLPC  H15S 7421   0.348   3.277   8.310 -2.3967 -0.7753  0.9954
   80SLPC  C216 7422   0.212   3.391   8.415 -0.3366 -0.1609  0.4535
   80SLPC  H16R 7423   0.137   3.309   8.418 -1.5779  0.9405  0.1729
   80SLPC  H16S 7424   0.157   3.487   8.401 -3.1693 -1.7396  0.5223
   80SLPC  C217 7425   0.304   3.386   8.535  0.3018  0.3421 -0.2000
   80SLPC  H17R 7426   0.394   3.450   8.518  0.3418  0.6309  1.0598
   80SLPC  H17S 7427   0.341   3.282   8.528  2.2790  0.9689  0.6134
   80SLPC  C218 7428   0.226   3.408   8.672  0.3620  0.8907  0.4213
   80SLPC  H18R 7429   0.143   3.481   8.665  1.1752  1.7866 -0.0703
   80SLPC  H18S 7430   0.289   3.441   8.758 -1.1147  2.9221  0.7555
   80SLPC  H18T 7431   0.185   3.309   8.701 -0.6901  0.8500 -1.1781
   80SLPC   C33 7432   0.019   2.929   7.157 -0.1638  0.2449 -0.3194
   80SLPC   H3X 7433   0.066   2.854   7.091 -1.0792  1.5938 -2.5459
   80SLPC   H3Y 7434  -0.088   2.914   7.134  0.2044 -1.6516 -0.8566
   80SLPC   C34 7435   0.063   2.904   7.302 -0.2274  0.2072  0.7170
   80SLPC   H4X 7436   0.173   2.920   7.309  0.4353 -2.1424 -3.1446
   80SLPC   H4Y 7437   0.040   2.800   7.332 -0.2482  0.4720  1.6401
   80SLPC   C35 7438  -0.016   2.982   7.404  0.0247  1.3032 -0.0729
   80SLPC   H5X 7439  -0.119   2.963   7.368  0.7485 -0.3244 -1.4019
   80SLPC   H5Y 7440   0.009   3.090   7.403  0.9385  1.1055  0.6370
   80SLPC   C36 7441  -0.001   2.938   7.555  0.4905  0.5286  0.6537
   80SLPC   H6X 7442   0.051   2.839   7.554  0.6775  0.5866  2.9373
   80SLPC   H6Y 7443  -0.097   2.908   7.602  0.7125  0.0974  0.8442
   80SLPC   C37 7444   0.072   3.029   7.651  0.2990 -0.2991  0.2540
   80SLPC   H7X 7445   0.030   3.132   7.641  0.6182  0.0068  1.8465
   80SLPC   H7Y 7446   0.179   3.030   7.620  0.5573 -0.3271  1.1279
   80SLPC   C38 7447   0.061   3.002   7.800  0.1633  0.0622 -0.9861
   80SLPC   H8X 7448  -0.043   2.986   7.834 -0.8733  4.0966 -1.9951
   80SLPC   H8Y 7449   0.100   3.091   7.854  1.3375 -0.8981 -0.2209
   80SLPC   C39 7450   0.147   2.876   7.837  0.2131 -0.1009  0.0391
   80SLPC   H9X 7451   0.254   2.895   7.812  0.7416 -1.4715  1.1642
   80SLPC   H9Y 7452   0.133   2.790   7.768 -0.2456 -0.2824  0.3541
   80SLPC  C310 7453   0.126   2.827   7.981 -0.0779  0.4227  0.7119
   80SLPC  H10X 7454   0.160   2.722   7.997  0.2904  0.2684 -0.9469
   80SLPC  H10Y 7455   0.022   2.837   8.020 -0.2943 -2.2121  0.8939
   80SLPC  C311 7456   0.217   2.916   8.075 -0.4589  0.5940  0.0011
   80SLPC  H11X 7457   0.178   3.020   8.075 -1.2951  0.2858 -0.6896
   80SLPC  H11Y 7458   0.321   2.914   8.034  0.4761  1.9170  2.2667
   80SLPC  C312 7459   0.213   2.867   8.220 -0.2462  0.3296  0.1254
   80SLPC  H12X 7460   0.246   2.761   8.215 -2.9351 -0.4965 -1.1477
   80SLPC  H12Y 7461   0.113   2.885   8.264  0.6184  0.3111  2.1534
   80SLPC  C313 7462   0.320   2.936   8.313 -0.3236 -0.2806 -0.2286
   80SLPC  H13X 7463   0.292   3.042   8.326 -0.4185 -0.6672  3.1037
   80SLPC  H13Y 7464   0.422   2.940   8.269  0.4330 -1.0146  1.4072
   80SLPC  C314 7465   0.334   2.854   8.447  0.3030 -0.4719 -0.1178
   80SLPC  H14X 7466   0.367   2.749   8.428  0.3409 -0.1627 -1.8358
   80SLPC  H14Y 7467   0.227   2.836   8.472  0.7942 -2.9793  0.3480
   80SLPC  C315 7468   0.415   2.930   8.557  0.0516  0.3161 -0.3816
   80SLPC  H15X 7469   0.376   3.034   8.553  1.3641  0.7708 -1.8448
   80SLPC  H15Y 7470   0.525   2.921   8.542  0.3445 -1.9513  2.4925
   80SLPC  C316 7471   0.365   2.873   8.696 -0.1142 -0.3055 -0.4804
   80SLPC  H16X 7472   0.382   2.764   8.679  2.6614 -0.0770  0.5183
   80SLPC  H16Y 7473   0.255   2.875   8.709 -0.1129 -1.0026 -0.3657
   80SLPC  C317 7474   0.447   2.943   8.802 -0.2165  0.2577  0.5115
   80SLPC  H17X 7475   0.412   3.048   8.807 -1.5438 -0.2226  1.5602
   80SLPC  H17Y 7476   0.556   2.944   8.780 -0.1230 -2.0488  0.7520
   80SLPC  C318 7477   0.447   2.867   8.938  0.2228  0.3275  0.2812
   80SLPC  H18X 7478   0.347   2.834   8.971 -0.3568  2.9436  1.3033
   80SLPC  H18Y 7479   0.492   2.931   9.017 -0.5310 -0.6951  1.5531
   80SLPC  H18Z 7480   0.503   2.772   8.927 -0.5125 -0.0378 -0.3525
   81SAPS     N 7481   0.715   4.046  10.905  0.7674 -0.2847 -0.0423
   81SAPS   HN1 7482   0.729   4.094  10.814  0.9906  2.4395  1.3612
   81SAPS   HN2 7483   0.767   3.956  10.908  4.4877  1.7557  0.8915
   81SAPS   HN3 7484   0.616   4.015  10.913  0.7715 -0.1530  0.6150
   81SAPS   C12 7485   0.752   4.117  11.022  0.0140 -0.2180  0.3199
   81SAPS  H12A 7486   0.755   4.223  11.004  1.5710 -0.4544 -0.9577
   81SAPS   C13 7487   0.680   4.080  11.156 -0.7916  0.0987 -0.1316
   81SAPS  O13A 7488   0.573   4.014  11.141  0.1040 -0.1677  0.3921
   81SAPS  O13B 7489   0.714   4.133  11.268 -0.2299  0.0976  0.6354
   81SAPS   C11 7490   0.903   4.095  11.039 -0.1154 -0.3504 -0.6360
   81SAPS  H11A 7491   0.930   3.993  11.075  0.5011 -0.4109 -1.2487
   81SAPS  H11B 7492   0.927   4.164  11.124 -2.2117  1.1107 -1.1864
   81SAPS     P 7493   1.121   4.086  10.888  0.1486  0.2190 -0.2695
   81SAPS   O13 7494   1.186   4.042  11.014 -0.2054  0.5700 -0.4325
   81SAPS   O14 7495   1.110   3.985  10.779 -0.0369 -0.3040 -0.1670
   81SAPS   O12 7496   0.973   4.134  10.917 -0.2946  0.3716  0.6486
   81SAPS   O11 7497   1.199   4.215  10.832  0.0929  0.5494  0.2142
   81SAPS    C1 7498   1.164   4.346  10.876 -0.3145 -0.2492  0.2191
   81SAPS    HA 7499   1.144   4.352  10.986  3.3681  0.2136  0.9386
   81SAPS    HB 7500   1.256   4.404  10.854  0.1272  0.4324  3.5083
   81SAPS    C2 7501   1.041   4.407  10.806  0.2625 -0.4037 -0.0279
   81SAPS    HS 7502   0.951   4.342  10.805  0.4616 -0.6916 -2.5359
   81SAPS   O21 7503   1.086   4.425  10.670 -0.1470  0.0523 -0.1998
   81SAPS   C21 7504   0.993   4.409  10.579 -0.4516 -1.2471 -0.0497
   81SAPS   O22 7505   0.872   4.401  10.593 -0.1601  0.0556 -0.2158
   81SAPS   C22 7506   1.061   4.414  10.443 -0.3651 -0.1202 -0.4102
   81SAPS   H2R 7507   1.105   4.514  10.427  2.1928 -1.0546  0.3947
   81SAPS   H2S 7508   1.135   4.331  10.441  0.5535  0.7068 -1.0280
   81SAPS    C3 7509   1.002   4.539  10.863 -0.4734  0.3682  0.1660
   81SAPS    HX 7510   1.089   4.607  10.875  1.4778 -1.5387 -2.6909
   81SAPS    HY 7511   0.963   4.508  10.962  0.9723  0.0633  0.6449
   81SAPS   O31 7512   0.902   4.611  10.783  0.5689  0.0367  0.2425
   81SAPS   C31 7513   0.776   4.580  10.804  0.4286  0.0684 -0.0867
   81SAPS   O32 7514   0.731   4.494  10.881 -0.7081  0.7257  0.3009
   81SAPS   C32 7515   0.696   4.678  10.712 -0.4186 -0.6826  0.8120
   81SAPS   H2X 7516   0.753   4.719  10.626  0.2793 -2.0799  0.5906
   81SAPS   H2Y 7517   0.667   4.773  10.761  0.3264  0.9246 -1.7556
   81SAPS   C23 7518   0.953   4.391  10.331 -0.0919  0.3449  0.2506
   81SAPS   H3R 7519   0.885   4.479  10.328  0.4369  0.7040 -2.0297
   81SAPS   H3S 7520   0.889   4.300  10.343  1.8085 -1.0773 -0.2008
   81SAPS   C24 7521   1.015   4.371  10.191 -0.2381  0.7076  0.1431
   81SAPS   H4R 7522   1.080   4.459  10.169 -1.9272  1.5631 -1.5823
   81SAPS   H4S 7523   0.931   4.382  10.120  0.4630  0.4070 -0.7552
   81SAPS   C25 7524   1.086   4.237  10.179  0.3951  0.4541 -0.7053
   81SAPS   H5R 7525   1.186   4.225  10.224  1.0010 -0.6263 -2.2715
   81SAPS   C26 7526   1.040   4.137  10.100 -0.2062 -0.1518  0.0661
   81SAPS   H6R 7527   1.095   4.042  10.107 -1.7102 -1.1051 -0.7789
   81SAPS   C27 7528   0.907   4.128  10.026  0.4170 -0.8400  0.1291
   81SAPS   H7R 7529   0.830   4.180  10.087 -0.0404  0.3851 -1.4594
   81SAPS   H7S 7530   0.875   4.022  10.021 -0.3905 -0.5638 -0.6117
   81SAPS   C28 7531   0.925   4.186   9.889 -0.5304 -0.2112 -0.1349
   81SAPS   H8R 7532   0.942   4.294   9.881  0.6617 -0.3439  0.4972
   81SAPS   C29 7533   0.897   4.119   9.775 -0.4776 -0.0851 -0.6150
   81SAPS   H9R 7534   0.903   4.182   9.686 -1.2019  2.0120  0.7850
   81SAPS  C210 7535   0.850   3.974   9.750 -0.4973  0.2684 -0.1236
   81SAPS  H10R 7536   0.885   3.911   9.834 -0.3411 -1.0182 -1.1297
   81SAPS  H10S 7537   0.897   3.935   9.657  0.5425  1.3834 -0.0753
   81SAPS  C211 7538   0.701   3.972   9.733  0.3550  0.5327  0.2712
   81SAPS  H11R 7539   0.636   3.999   9.817 -0.9055 -1.0056 -0.1769
   81SAPS  C212 7540   0.623   3.938   9.623 -0.2948 -0.4072  0.0322
   81SAPS  H12R 7541   0.514   3.940   9.640 -0.5609 -1.4144 -1.5089
   81SAPS  C213 7542   0.658   3.892   9.489 -0.1732 -0.0100 -0.2509
   81SAPS  H13R 7543   0.570   3.874   9.424 -0.1571  0.2804 -0.3503
   81SAPS  H13S 7544   0.727   3.805   9.501  1.4012  1.2614  0.0883
   81SAPS  C214 7545   0.745   3.990   9.425  0.1019 -0.1945  0.6864
   81SAPS  H14R 7546   0.762   4.086   9.476 -2.1778  1.0126 -0.7623
   81SAPS  C215 7547   0.814   3.958   9.312 -0.1465 -0.5331  0.5145
   81SAPS  H15R 7548   0.863   4.045   9.264  0.6893 -2.3329 -1.9962
   81SAPS  C216 7549   0.811   3.836   9.223 -0.9679 -0.2006 -0.7169
   81SAPS  H16R 7550   0.707   3.799   9.212 -1.2297  0.0658  0.6847
   81SAPS  H16S 7551   0.867   3.748   9.261  1.7407  1.9254  0.3454
   81SAPS  C217 7552   0.872   3.857   9.081  0.8500 -0.2813  0.0222
   81SAPS  H17R 7553   0.882   3.752   9.046  2.3669 -0.8140  1.9300
   81SAPS  H17S 7554   0.977   3.895   9.079  0.7118  0.0458 -1.6330
   81SAPS  C218 7555   0.794   3.939   8.981 -0.8940  0.0449 -0.7808
   81SAPS  H18R 7556   0.857   3.935   8.890 -0.8656 -2.2560 -0.6786
   81SAPS  H18S 7557   0.792   4.044   9.018 -1.7507  0.3228 -1.6052
   81SAPS  C219 7558   0.652   3.894   8.953  0.5522  0.4587 -0.3297
   81SAPS  H19R 7559   0.610   3.942   8.862  0.0509 -1.7242 -1.3037
   81SAPS  H19S 7560   0.589   3.911   9.043  1.2707 -3.0579  0.9621
   81SAPS  C220 7561   0.649   3.747   8.901 -0.0207  0.1847  0.2513
   81SAPS  H20R 7562   0.662   3.680   8.989 -0.7005 -0.9834 -0.5286
   81SAPS  H20S 7563   0.730   3.732   8.826 -1.3728  0.4119 -1.2587
   81SAPS  H20T 7564   0.551   3.711   8.864 -0.5435  2.2558 -0.4527
   81SAPS   C33 7565   0.569   4.607  10.647 -0.5857  0.1889  0.3516
   81SAPS   H3X 7566   0.487   4.594  10.720  0.0928 -0.8296  0.9457
   81SAPS   H3Y 7567   0.609   4.505  10.627 -2.5828 -0.3716 -0.8875
   81SAPS   C34 7568   0.539   4.658  10.506  0.2012  0.0832 -0.0030
   81SAPS   H4X 7569   0.557   4.767  10.515 -0.6334  0.1297  1.1729
   81SAPS   H4Y 7570   0.433   4.632  10.483  0.9321 -0.8353 -2.4917
   81SAPS   C35 7571   0.633   4.600  10.397  0.0675 -0.9364  1.5077
   81SAPS   H5X 7572   0.655   4.492  10.413  0.0349 -1.2923 -0.7165
   81SAPS   H5Y 7573   0.730   4.650  10.418  0.0894 -1.7004  3.3568
   81SAPS   C36 7574   0.576   4.617  10.257 -0.1118 -0.1633  0.5581
   81SAPS   H6X 7575   0.557   4.723  10.229 -3.3147 -0.2728  2.1457
   81SAPS   H6Y 7576   0.480   4.564  10.272  0.2545 -1.2838 -0.9392
   81SAPS   C37 7577   0.646   4.543  10.142  0.0856 -0.2334  0.2537
   81SAPS   H7X 7578   0.651   4.435  10.167  0.3077  0.0399  1.3816
   81SAPS   H7Y 7579   0.750   4.583  10.133 -0.3969  0.7867 -0.9479
   81SAPS   C38 7580   0.583   4.564   9.998 -1.0873 -0.9268 -0.1819
   81SAPS   H8X 7581   0.623   4.661   9.963 -3.2468 -0.5540 -1.6626
   81SAPS   H8Y 7582   0.473   4.569  10.008 -1.1178  0.4265 -1.1313
   81SAPS   C39 7583   0.603   4.440   9.910 -0.0187 -0.4565 -0.3309
   81SAPS   H9X 7584   0.552   4.352   9.955  0.3608 -0.7333 -0.4422
   81SAPS   H9Y 7585   0.712   4.423   9.902 -0.1272 -1.1046 -0.4694
   81SAPS  C310 7586   0.551   4.460   9.765  0.3616  0.3821  0.4927
   81SAPS  H10X 7587   0.617   4.539   9.722  0.6708 -0.6108 -0.9210
   81SAPS  H10Y 7588   0.445   4.490   9.777  0.1544 -0.7347  1.5878
   81SAPS  C311 7589   0.571   4.336   9.674 -0.2762 -0.4158  0.7712
   81SAPS  H11X 7590   0.512   4.251   9.712  1.4001 -1.3017  1.4533
   81SAPS  H11Y 7591   0.675   4.303   9.652  0.4174  2.1538 -0.0273
   81SAPS  C312 7592   0.508   4.378   9.537 -0.5159  0.3862  0.4502
   81SAPS  H12X 7593   0.582   4.446   9.489  0.4417 -1.3285 -0.5378
   81SAPS  H12Y 7594   0.404   4.417   9.542 -0.3637  0.6421  2.0615
   81SAPS  C313 7595   0.503   4.265   9.435 -0.3961  0.4793 -0.0782
   81SAPS  H13X 7596   0.470   4.175   9.490 -0.7610  1.1281  0.7831
   81SAPS  H13Y 7597   0.610   4.250   9.411 -0.7673 -0.5013 -1.1307
   81SAPS  C314 7598   0.422   4.280   9.307  0.2077 -0.0086 -0.7082
   81SAPS  H14X 7599   0.458   4.371   9.254  1.4658  0.6396  1.2074
   81SAPS  H14Y 7600   0.314   4.290   9.333  0.6269 -2.9077  2.4021
   81SAPS  C315 7601   0.433   4.163   9.205  0.0849  0.8487  0.4439
   81SAPS  H15X 7602   0.404   4.086   9.280 -0.5959  0.4185 -0.2479
   81SAPS  H15Y 7603   0.541   4.157   9.179  0.3347  1.0635  1.4124
   81SAPS  C316 7604   0.337   4.194   9.084  0.2081 -0.0024  0.3676
   81SAPS  H16X 7605   0.316   4.299   9.056  1.3317  0.1464  0.0845
   81SAPS  H16Y 7606   0.236   4.154   9.110 -0.1196 -0.6762 -1.8689
   81SAPS  C317 7607   0.386   4.102   8.975 -0.0520 -0.4309  0.2653
   81SAPS  H17X 7608   0.380   4.005   9.029 -0.6684 -0.2517  0.5286
   81SAPS  H17Y 7609   0.489   4.124   8.941 -0.4272 -0.2704 -0.7992
   81SAPS  C318 7610   0.304   4.103   8.845  0.4119  0.2187  0.3516
   81SAPS  H18X 7611   0.338   4.031   8.768 -0.8776  0.9430 -0.9032
   81SAPS  H18Y 7612   0.294   4.206   8.803  1.3760 -0.9388 -2.8182
   81SAPS  H18Z 7613   0.200   4.071   8.868  0.9456 -1.7256  0.0658
   82SAPS     N 7614   5.880   3.882  11.245  0.1515 -0.2728 -0.2775
   82SAPS   HN1 7615   5.893   3.986  11.242  0.6804 -0.3592 -2.0967
   82SAPS   HN2 7616   5.934   3.855  11.329 -0.5884 -3.1527 -0.6825
   82SAPS   HN3 7617   5.936   3.847  11.164  0.3339 -1.5928  0.4223
   82SAPS   C12 7618   5.735   3.836  11.257  0.5475  0.1441 -0.2745
   82SAPS  H12A 7619   5.731   3.728  11.263 -0.6002  0.1999 -0.0523
   82SAPS   C13 7620   5.662   3.885  11.381 -0.4515  0.3680  0.0046
   82SAPS  O13A 7621   5.725   3.957  11.463  0.1939  0.6817  0.0135
   82SAPS  O13B 7622   5.539   3.858  11.399 -0.2992 -0.2139 -0.0010
   82SAPS   C11 7623   5.658   3.897  11.144 -0.4210 -0.2636  0.2076
   82SAPS  H11A 7624   5.677   4.007  11.148 -1.4900 -0.0796  0.2764
   82SAPS  H11B 7625   5.548   3.884  11.156 -0.3756 -0.1650  0.7291
   82SAPS     P 7626   5.690   3.685  10.980 -0.0825  0.0772 -0.1218
   82SAPS   O13 7627   5.818   3.619  11.012 -0.5820 -0.2132 -0.3312
   82SAPS   O14 7628   5.573   3.620  11.051  0.2331 -0.1414 -0.4609
   82SAPS   O12 7629   5.703   3.841  11.015 -0.3114 -0.1081  0.6879
   82SAPS   O11 7630   5.677   3.685  10.823 -0.3840  0.4510 -0.1571
   82SAPS    C1 7631   5.726   3.791  10.739 -0.3847 -0.3508 -0.1508
   82SAPS    HA 7632   5.667   3.882  10.765  1.1495  0.9450 -1.1076
   82SAPS    HB 7633   5.830   3.812  10.770 -0.3652 -0.1821 -0.3288
   82SAPS    C2 7634   5.722   3.774  10.583 -0.6662  0.3259 -0.4672
   82SAPS    HS 7635   5.763   3.867  10.538  1.3147 -0.4994 -0.4176
   82SAPS   O21 7636   5.591   3.738  10.542  0.0298  0.3292  0.6599
   82SAPS   C21 7637   5.548   3.787  10.428  0.0857  0.4477 -0.0252
   82SAPS   O22 7638   5.603   3.871  10.357 -0.2608 -0.4234  0.1875
   82SAPS   C22 7639   5.408   3.725  10.401 -0.1310 -0.4042  0.0100
   82SAPS   H2R 7640   5.360   3.698  10.497  1.3610  0.0204  0.8908
   82SAPS   H2S 7641   5.352   3.816  10.368  1.3198  0.5607  0.1425
   82SAPS    C3 7642   5.811   3.652  10.546  1.0268  0.3593 -0.0699
   82SAPS    HX 7643   5.752   3.561  10.569 -0.7090  0.7529 -2.7721
   82SAPS    HY 7644   5.904   3.665  10.606 -0.6435  2.3209  2.2236
   82SAPS   O31 7645   5.845   3.644  10.406  0.2635 -0.1307  0.1861
   82SAPS   C31 7646   5.929   3.733  10.353  0.1303  0.5056  0.2088
   82SAPS   O32 7647   6.005   3.807  10.416  0.4679 -0.1118  0.4008
   82SAPS   C32 7648   5.936   3.712  10.197 -0.2632  0.9767 -0.4376
   82SAPS   H2X 7649   5.833   3.719  10.156 -0.3507 -0.3213 -0.4802
   82SAPS   H2Y 7650   5.979   3.612  10.171 -1.0041  1.0129 -1.8600
   82SAPS   C23 7651   5.404   3.621  10.296 -0.0468 -0.5031 -0.0556
   82SAPS   H3R 7652   5.302   3.612  10.253 -0.4581 -0.9269  0.9892
   82SAPS   H3S 7653   5.430   3.523  10.343  0.9692  0.0532  0.5517
   82SAPS   C24 7654   5.501   3.638  10.179  0.2286  0.5975  0.6651
   82SAPS   H4R 7655   5.604   3.626  10.219 -0.1087 -0.9531  1.1149
   82SAPS   H4S 7656   5.490   3.743  10.145  1.2862  0.5101  0.0422
   82SAPS   C25 7657   5.483   3.531  10.077  0.6787 -0.6058 -0.5154
   82SAPS   H5R 7658   5.529   3.433  10.099  0.1920 -0.6388  0.3629
   82SAPS   C26 7659   5.412   3.546   9.965  0.5446  0.2736 -0.2555
   82SAPS   H6R 7660   5.409   3.463   9.893  0.6988 -0.9389  1.1085
   82SAPS   C27 7661   5.341   3.667   9.920 -0.2690  0.5388  1.0624
   82SAPS   H7R 7662   5.393   3.692   9.826  0.5601 -0.7034  1.1824
   82SAPS   H7S 7663   5.354   3.747   9.997  0.1058 -0.4363  2.0244
   82SAPS   C28 7664   5.194   3.649   9.897 -0.1150 -0.0075 -0.1394
   82SAPS   H8R 7665   5.135   3.591   9.970  0.2638  0.0781  0.2349
   82SAPS   C29 7666   5.132   3.687   9.785  0.6352  0.6104 -0.0865
   82SAPS   H9R 7667   5.025   3.663   9.777  1.0696 -1.1272 -0.8311
   82SAPS  C210 7668   5.198   3.761   9.666  0.3021  0.1122 -0.3116
   82SAPS  H10R 7669   5.240   3.689   9.593  0.7017  1.6606 -1.6485
   82SAPS  H10S 7670   5.276   3.834   9.695 -1.3850  0.4405  3.7069
   82SAPS  C211 7671   5.096   3.849   9.596  0.1115 -0.9111 -0.1886
   82SAPS  H11R 7672   5.039   3.918   9.660  0.1192 -1.5400  0.4966
   82SAPS  C212 7673   5.068   3.851   9.463 -0.4140  0.2333  0.2991
   82SAPS  H12R 7674   4.984   3.914   9.433 -0.0842  0.2266 -0.6371
   82SAPS  C213 7675   5.131   3.771   9.353 -0.1093 -0.3797 -0.3413
   82SAPS  H13R 7676   5.048   3.734   9.290 -0.7267  1.9038 -0.8967
   82SAPS  H13S 7677   5.198   3.689   9.386 -0.4919 -0.7966 -0.5937
   82SAPS  C214 7678   5.229   3.851   9.269  0.3769  0.8042 -0.3674
   82SAPS  H14R 7679   5.299   3.911   9.329  1.0799 -1.3210  0.9868
   82SAPS  C215 7680   5.235   3.863   9.137  0.4471  0.1994 -0.2942
   82SAPS  H15R 7681   5.305   3.935   9.092 -1.0065  2.1092  0.4778
   82SAPS  C216 7682   5.145   3.796   9.043  0.3441  0.8477  0.0286
   82SAPS  H16R 7683   5.074   3.726   9.092  1.0534 -0.3481 -0.6106
   82SAPS  H16S 7684   5.210   3.747   8.966  0.6686  0.9118  0.2605
   82SAPS  C217 7685   5.064   3.897   8.955  0.6999  0.3594 -0.0196
   82SAPS  H17R 7686   5.000   3.949   9.030  0.9964 -0.1550  0.5962
   82SAPS  H17S 7687   4.999   3.843   8.884  0.8517 -1.6083  1.3026
   82SAPS  C218 7688   5.147   3.987   8.873  0.5706  0.6675 -0.2220
   82SAPS  H18R 7689   5.229   3.930   8.824 -1.7663 -0.6170 -2.7714
   82SAPS  H18S 7690   5.194   4.068   8.933 -1.1348  2.1807 -0.8838
   82SAPS  C219 7691   5.068   4.049   8.764 -0.6515  0.4970 -0.1825
   82SAPS  H19R 7692   4.981   4.095   8.814 -0.0847  1.0242  0.3247
   82SAPS  H19S 7693   5.031   3.976   8.689 -1.0080  0.7144 -0.2156
   82SAPS  C220 7694   5.153   4.152   8.702  0.1619 -0.1919  0.3840
   82SAPS  H20R 7695   5.096   4.207   8.623 -2.3316  0.5280  2.6253
   82SAPS  H20S 7696   5.251   4.113   8.666  0.8130  0.2861  1.6254
   82SAPS  H20T 7697   5.182   4.223   8.781  1.5018 -0.8129  0.4565
   82SAPS   C33 7698   6.020   3.824  10.122 -0.3191 -0.4447 -0.7572
   82SAPS   H3X 7699   6.120   3.820  10.170 -0.8019 -0.8606  0.2349
   82SAPS   H3Y 7700   5.981   3.927  10.135  0.5650 -0.1532 -0.3716
   82SAPS   C34 7701   6.030   3.792   9.971 -0.1622 -0.0275 -0.1074
   82SAPS   H4X 7702   6.092   3.704   9.944  0.1723 -0.1235  0.9482
   82SAPS   H4Y 7703   6.078   3.878   9.920 -0.8276  0.6983  0.4713
   82SAPS   C35 7704   5.893   3.768   9.894  0.8727  0.1046 -0.1320
   82SAPS   H5X 7705   5.808   3.833   9.926  0.7310  0.9244 -2.0916
   82SAPS   H5Y 7706   5.857   3.664   9.906 -2.6428  1.4518  1.8086
   82SAPS   C36 7707   5.915   3.771   9.742 -0.4211  0.1506 -0.7372
   82SAPS   H6X 7708   5.998   3.699   9.727 -0.2786  0.5887 -2.1657
   82SAPS   H6Y 7709   5.947   3.873   9.710  1.7574  0.1005  1.1115
   82SAPS   C37 7710   5.801   3.738   9.646 -0.5815 -0.3467 -0.9602
   82SAPS   H7X 7711   5.778   3.631   9.662 -0.0368 -0.2071  0.7770
   82SAPS   H7Y 7712   5.830   3.752   9.539  1.4105  1.1579 -0.2460
   82SAPS   C38 7713   5.669   3.815   9.664  0.1898 -0.2427  0.3507
   82SAPS   H8X 7714   5.648   3.836   9.771 -0.4176  1.4481 -0.0832
   82SAPS   H8Y 7715   5.590   3.741   9.639  0.4361 -0.3244 -0.1901
   82SAPS   C39 7716   5.630   3.938   9.588 -0.3098 -0.2776 -0.1038
   82SAPS   H9X 7717   5.711   4.013   9.599 -0.5707  0.2278 -1.4978
   82SAPS   H9Y 7718   5.535   3.979   9.628 -0.1573 -1.6646  1.7591
   82SAPS  C310 7719   5.623   3.916   9.435  0.0028 -0.2111  0.1841
   82SAPS  H10X 7720   5.530   3.866   9.401  0.0255  0.1929 -0.4748
   82SAPS  H10Y 7721   5.710   3.852   9.411 -0.7792 -0.8849 -0.8626
   82SAPS  C311 7722   5.626   4.048   9.352 -0.4279 -0.3686 -0.3308
   82SAPS  H11X 7723   5.700   4.119   9.394 -0.0492 -0.5509 -0.6811
   82SAPS  H11Y 7724   5.531   4.099   9.379  0.5388  1.6987 -0.7282
   82SAPS  C312 7725   5.636   4.040   9.200  0.5540 -0.0762 -0.3102
   82SAPS  H12X 7726   5.655   4.142   9.162 -3.0188  0.5243 -0.6561
   82SAPS  H12Y 7727   5.537   4.005   9.162  0.3263  0.3520 -0.1082
   82SAPS  C313 7728   5.752   3.951   9.153 -0.0155 -0.2490 -0.1204
   82SAPS  H13X 7729   5.744   3.846   9.188 -0.2511 -0.6988 -1.5118
   82SAPS  H13Y 7730   5.848   3.984   9.198  0.4749 -1.5526 -0.1974
   82SAPS  C314 7731   5.759   3.956   8.998  0.1367  0.1264 -0.4302
   82SAPS  H14X 7732   5.696   4.042   8.967 -0.5411 -0.4397 -0.6171
   82SAPS  H14Y 7733   5.705   3.867   8.960 -0.3212 -0.5369  1.7278
   82SAPS  C315 7734   5.897   3.984   8.945  0.5527  0.3204  0.2412
   82SAPS  H15X 7735   5.896   3.988   8.834  0.2336  3.7706  0.2889
   82SAPS  H15Y 7736   5.969   3.908   8.981  1.3607  1.1604  0.4235
   82SAPS  C316 7737   5.963   4.107   8.995  0.7232  0.1614  0.1892
   82SAPS  H16X 7738   5.994   4.102   9.102 -0.9083  0.6627  0.6955
   82SAPS  H16Y 7739   5.897   4.194   8.977  0.5781 -0.1871 -1.0031
   82SAPS  C317 7740   6.100   4.133   8.932 -0.3161  0.2674 -0.6767
   82SAPS  H17X 7741   6.085   4.140   8.822 -0.9355 -2.2301 -0.7764
   82SAPS  H17Y 7742   6.170   4.047   8.944  1.9664  1.9502 -1.5488
   82SAPS  C318 7743   6.183   4.254   8.974  0.2132 -0.0350 -0.4176
   82SAPS  H18X 7744   6.142   4.340   8.917  0.5208  0.3327 -0.0865
   82SAPS  H18Y 7745   6.284   4.229   8.936  0.4430 -0.4793  0.4578
   82SAPS  H18Z 7746   6.187   4.263   9.085 -3.0303 -0.7071 -0.1987
   83SAPS     N 7747   1.449   4.849  11.359  0.6300  0.1142  0.0621
   83SAPS   HN1 7748   1.427   4.942  11.318 -3.8433 -0.5672  0.6525
   83SAPS   HN2 7749   1.431   4.840  11.461  3.3165  0.6129  0.6185
   83SAPS   HN3 7750   1.551   4.842  11.344  0.4986  0.7814 -1.1541
   83SAPS   C12 7751   1.367   4.754  11.285 -0.6584 -0.9506  0.0066
   83SAPS  H12A 7752   1.392   4.771  11.181  1.0421  1.5307  0.7527
   83SAPS   C13 7753   1.390   4.599  11.313  0.0917 -0.2026  0.0520
   83SAPS  O13A 7754   1.502   4.574  11.344  0.2053  0.2875 -0.4497
   83SAPS  O13B 7755   1.321   4.510  11.252 -0.3133 -0.0237  1.1992
   83SAPS   C11 7756   1.219   4.801  11.308 -0.3042 -0.4673  0.6277
   83SAPS  H11A 7757   1.171   4.773  11.404 -0.8581 -0.8893  0.2319
   83SAPS  H11B 7758   1.167   4.748  11.225 -0.4401  2.0061 -0.9045
   83SAPS     P 7759   1.145   4.999  11.165 -0.0756 -0.1747 -0.8128
   83SAPS   O13 7760   1.013   4.933  11.145  0.2550  0.0993 -0.6791
   83SAPS   O14 7761   1.139   5.144  11.178 -0.1833  0.6680  0.4899
   83SAPS   O12 7762   1.204   4.944  11.300 -0.2633 -0.2476 -0.2219
   83SAPS   O11 7763   1.256   4.950  11.058  0.3424 -0.3733 -0.0502
   83SAPS    C1 7764   1.223   4.868  10.946 -0.2289  0.0306  0.2512
   83SAPS    HA 7765   1.292   4.781  10.952  0.5600  0.6776  0.7472
   83SAPS    HB 7766   1.121   4.824  10.950 -0.3404  0.2849  0.1875
   83SAPS    C2 7767   1.247   4.958  10.821  0.2615  0.7394  0.4939
   83SAPS    HS 7768   1.175   5.042  10.816 -0.7914 -0.1633  0.2461
   83SAPS   O21 7769   1.227   4.877  10.703 -0.7926  0.3904 -0.0528
   83SAPS   C21 7770   1.105   4.843  10.671  0.3687 -0.3462  0.8285
   83SAPS   O22 7771   1.008   4.879  10.741 -0.9200  0.0243 -0.7964
   83SAPS   C22 7772   1.100   4.747  10.556  0.1117 -0.6549 -0.5996
   83SAPS   H2R 7773   1.175   4.669  10.584  1.2613  0.6525  0.0229
   83SAPS   H2S 7774   1.006   4.688  10.556 -0.1057 -0.3319  1.0862
   83SAPS    C3 7775   1.388   5.021  10.819  0.0947 -0.8015 -0.1998
   83SAPS    HX 7776   1.462   4.944  10.848  3.3671  2.2729 -0.0982
   83SAPS    HY 7777   1.393   5.094  10.902 -1.2635 -0.9054 -0.0103
   83SAPS   O31 7778   1.434   5.089  10.693  0.0105  0.6072  0.8920
   83SAPS   C31 7779   1.500   5.011  10.604  0.5393 -0.2249 -0.0473
   83SAPS   O32 7780   1.531   4.893  10.624 -0.4979  0.2482  0.9890
   83SAPS   C32 7781   1.533   5.090  10.483 -0.4673 -0.5540  0.2999
   83SAPS   H2X 7782   1.493   5.194  10.486  0.6053 -0.1200 -0.2530
   83SAPS   H2Y 7783   1.495   5.035  10.395  0.5205 -2.7082  1.1931
   83SAPS   C23 7784   1.161   4.803  10.424  0.1182 -0.0367  0.0806
   83SAPS   H3R 7785   1.190   4.714  10.365 -0.7899 -1.5570  1.8731
   83SAPS   H3S 7786   1.248   4.868  10.447  1.2907 -0.9967 -1.5508
   83SAPS   C24 7787   1.043   4.874  10.346 -0.8365  0.8189 -0.4883
   83SAPS   H4R 7788   0.990   4.949  10.409 -0.6821 -0.0755  0.7358
   83SAPS   H4S 7789   0.962   4.801  10.325  0.0314 -0.0068 -0.9984
   83SAPS   C25 7790   1.105   4.942  10.225 -0.2418 -0.0692  0.1138
   83SAPS   H5R 7791   1.155   5.038  10.241  1.4287 -0.7951 -0.6727
   83SAPS   C26 7792   1.098   4.893  10.105 -1.3947  0.0599 -0.6837
   83SAPS   H6R 7793   1.157   4.946  10.029  1.7954 -2.6672 -0.2102
   83SAPS   C27 7794   1.033   4.765  10.053 -1.0291  0.7313  0.5565
   83SAPS   H7R 7795   0.991   4.703  10.135 -2.6193 -1.6797 -1.9838
   83SAPS   H7S 7796   1.112   4.697  10.012 -2.2637 -0.5195  0.1964
   83SAPS   C28 7797   0.913   4.772   9.955 -0.6334 -0.2022  0.4293
   83SAPS   H8R 7798   0.824   4.810  10.006 -1.2220 -0.1186 -0.6385
   83SAPS   C29 7799   0.916   4.753   9.826  0.1091 -0.3591  0.4334
   83SAPS   H9R 7800   0.817   4.763   9.779  0.2061 -1.0233  0.0826
   83SAPS  C210 7801   1.034   4.705   9.745  0.3193 -0.6480  0.7838
   83SAPS  H10R 7802   1.062   4.603   9.780  0.3711 -0.7353  0.4893
   83SAPS  H10S 7803   1.126   4.760   9.774  1.2419 -0.9134 -1.5176
   83SAPS  C211 7804   1.010   4.726   9.596  0.1743  0.2572  0.0817
   83SAPS  H11R 7805   1.029   4.829   9.560  1.0963 -0.0941 -0.4722
   83SAPS  C212 7806   0.988   4.630   9.507  0.4366 -0.2201 -0.1297
   83SAPS  H12R 7807   0.979   4.666   9.404 -2.3221 -0.4713 -0.0087
   83SAPS  C213 7808   0.984   4.480   9.537  0.0513  0.3225  0.9483
   83SAPS  H13R 7809   0.882   4.438   9.546  0.6713 -1.5758 -0.4401
   83SAPS  H13S 7810   1.024   4.459   9.638  0.1455  1.7428  1.2239
   83SAPS  C214 7811   1.055   4.407   9.421  0.3866  0.4363 -0.5624
   83SAPS  H14R 7812   1.161   4.383   9.441  0.3651  0.2069 -0.7205
   83SAPS  C215 7813   1.001   4.362   9.309  0.1987  0.4893  0.1318
   83SAPS  H15R 7814   1.064   4.302   9.240 -1.7797 -0.4462 -0.9025
   83SAPS  C216 7815   0.864   4.389   9.263  0.1000  0.2361  0.2332
   83SAPS  H16R 7816   0.807   4.450   9.336 -2.2665  0.3754 -1.6586
   83SAPS  H16S 7817   0.808   4.293   9.260 -1.3060  1.0222  0.8837
   83SAPS  C217 7818   0.864   4.460   9.127  0.4166  0.4824  0.0020
   83SAPS  H17R 7819   0.758   4.483   9.103  0.9512  0.7042 -2.2633
   83SAPS  H17S 7820   0.896   4.385   9.051 -0.2500 -1.8157  1.9262
   83SAPS  C218 7821   0.948   4.583   9.103  0.5217  0.7744  0.0295
   83SAPS  H18R 7822   1.058   4.564   9.108  0.1545 -1.0191  1.8409
   83SAPS  H18S 7823   0.928   4.668   9.172  2.2899  0.2301  1.2675
   83SAPS  C219 7824   0.931   4.639   8.954  0.3941 -0.2235 -0.4309
   83SAPS  H19R 7825   0.928   4.554   8.882 -0.8817  0.8833 -1.7141
   83SAPS  H19S 7826   1.020   4.701   8.928 -0.9603  1.8436 -0.1985
   83SAPS  C220 7827   0.803   4.715   8.941  0.6026 -0.1552  0.0688
   83SAPS  H20R 7828   0.826   4.816   8.979  0.2960  0.3466 -1.0533
   83SAPS  H20S 7829   0.726   4.674   9.010 -1.7227 -0.8765 -2.8298
   83SAPS  H20T 7830   0.765   4.719   8.836  0.0228  2.2411  0.3587
   83SAPS   C33 7831   1.681   5.108  10.468 -0.2992 -0.6993  0.1911
   83SAPS   H3X 7832   1.734   5.013  10.487  1.3907  0.2926  0.5499
   83SAPS   H3Y 7833   1.725   5.179  10.541 -1.5925  0.1356  0.1724
   83SAPS   C34 7834   1.715   5.172  10.333 -0.1730  0.9356  0.4261
   83SAPS   H4X 7835   1.826   5.173  10.323  0.1325  0.8854  3.3130
   83SAPS   H4Y 7836   1.680   5.276  10.320 -0.8907  0.6628  0.1591
   83SAPS   C35 7837   1.673   5.088  10.213 -0.0242 -0.1491 -0.6019
   83SAPS   H5X 7838   1.563   5.079  10.201  0.0904 -1.2568 -0.8409
   83SAPS   H5Y 7839   1.710   4.984  10.222  0.2252 -0.0141 -0.0008
   83SAPS   C36 7840   1.725   5.148  10.083 -0.5256 -0.1674  0.2681
   83SAPS   H6X 7841   1.831   5.176  10.101 -0.2242 -2.0291  1.5236
   83SAPS   H6Y 7842   1.678   5.245  10.055  1.9768  0.8665 -0.4301
   83SAPS   C37 7843   1.725   5.046   9.955 -0.8110 -0.1441 -0.5683
   83SAPS   H7X 7844   1.619   5.014   9.942 -1.0126  0.7585 -1.2048
   83SAPS   H7Y 7845   1.769   4.944   9.966 -0.7182  0.0842  1.3453
   83SAPS   C38 7846   1.769   5.125   9.836 -0.1401  0.2230  0.3105
   83SAPS   H8X 7847   1.879   5.136   9.848  0.1406 -1.4950 -0.4574
   83SAPS   H8Y 7848   1.731   5.229   9.845 -0.6956  0.2636 -2.0889
   83SAPS   C39 7849   1.738   5.063   9.697  0.7237 -0.9223 -0.0187
   83SAPS   H9X 7850   1.641   5.107   9.664  1.7402  0.3000 -1.4067
   83SAPS   H9Y 7851   1.735   4.952   9.691 -1.3433 -0.8420 -0.9023
   83SAPS  C310 7852   1.843   5.101   9.587  0.3869  0.4753 -0.3905
   83SAPS  H10X 7853   1.935   5.041   9.600  0.2144  0.3385  0.2244
   83SAPS  H10Y 7854   1.858   5.211   9.589 -1.2142  0.7047 -0.1322
   83SAPS  C311 7855   1.782   5.067   9.452  0.0395  0.2802  0.1365
   83SAPS  H11X 7856   1.690   5.126   9.431  0.2913  1.1506  1.4081
   83SAPS  H11Y 7857   1.749   4.961   9.463 -0.7221  0.4562 -0.3850
   83SAPS  C312 7858   1.874   5.073   9.330  0.0385 -0.0631  0.1244
   83SAPS  H12X 7859   1.978   5.047   9.359 -0.3174  0.0735  1.5875
   83SAPS  H12Y 7860   1.876   5.182   9.307 -1.1413 -0.6833 -3.2192
   83SAPS  C313 7861   1.826   4.990   9.211  0.6024  0.0177  0.5096
   83SAPS  H13X 7862   1.733   5.026   9.163  0.9779  1.4913  0.8521
   83SAPS  H13Y 7863   1.794   4.888   9.243  0.5187 -0.3886 -0.8196
   83SAPS  C314 7864   1.939   4.973   9.109  0.3471 -0.2318 -0.0945
   83SAPS  H14X 7865   2.013   4.905   9.156  0.7600  1.6748  2.0562
   83SAPS  H14Y 7866   1.984   5.073   9.096 -0.1607 -0.1268 -1.0902
   83SAPS  C315 7867   1.901   4.914   8.973  0.2827 -0.7169  0.0393
   83SAPS  H15X 7868   1.840   4.826   9.000 -0.5515  0.1774  1.1289
   83SAPS  H15Y 7869   1.981   4.857   8.920 -0.6832 -0.5489 -1.6145
   83SAPS  C316 7870   1.826   5.014   8.899 -0.1745 -0.2914 -0.2855
   83SAPS  H16X 7871   1.799   5.098   8.966 -0.5364 -1.6703  1.3399
   83SAPS  H16Y 7872   1.734   4.971   8.853  0.5351 -0.9593 -1.0926
   83SAPS  C317 7873   1.917   5.076   8.783  0.0731 -0.3750 -0.0501
   83SAPS  H17X 7874   2.013   5.099   8.834  0.2491  0.6583 -0.8407
   83SAPS  H17Y 7875   1.892   5.175   8.739  0.5279  0.1460  0.8299
   83SAPS  C318 7876   1.949   5.000   8.658  0.6952 -0.2176  0.7773
   83SAPS  H18X 7877   1.960   4.893   8.688  2.6251  0.0019  0.8981
   83SAPS  H18Y 7878   2.040   5.034   8.605 -1.3928  1.4454 -1.8426
   83SAPS  H18Z 7879   1.859   5.004   8.594  1.3100 -0.0122 -0.0764
   84SAPS     N 7880   2.562   5.263  11.164  0.9991 -0.6479 -0.7506
   84SAPS   HN1 7881   2.537   5.364  11.168 -1.0087 -1.1547  0.4592
   84SAPS   HN2 7882   2.513   5.215  11.086  1.7115  0.8791 -2.1614
   84SAPS   HN3 7883   2.530   5.229  11.257 -1.3222 -0.0133 -1.2648
   84SAPS   C12 7884   2.706   5.246  11.162  1.0003 -0.5639 -0.2108
   84SAPS  H12A 7885   2.752   5.247  11.064  1.1807  0.5623 -0.1204
   84SAPS   C13 7886   2.769   5.368  11.244 -0.6478  0.1458  0.1525
   84SAPS  O13A 7887   2.694   5.464  11.286 -0.3190  0.5215 -0.3191
   84SAPS  O13B 7888   2.885   5.387  11.219  0.4215  0.7616 -0.3863
   84SAPS   C11 7889   2.745   5.109  11.225 -0.6794  0.7329 -0.0512
   84SAPS  H11A 7890   2.673   5.082  11.305 -0.6140  0.6976 -0.0031
   84SAPS  H11B 7891   2.850   5.103  11.262 -0.5597  1.8688 -0.1915
   84SAPS     P 7892   2.846   4.955  11.041 -0.3837  0.0564 -0.5244
   84SAPS   O13 7893   2.870   5.067  10.944  0.2420 -0.3368 -0.1496
   84SAPS   O14 7894   2.959   4.924  11.132 -0.0232 -0.3673  0.0547
   84SAPS   O12 7895   2.726   5.006  11.131 -0.0808 -0.0081  0.0414
   84SAPS   O11 7896   2.790   4.826  10.983  0.4151  0.1252  0.4012
   84SAPS    C1 7897   2.663   4.824  10.916 -0.4786 -0.4624  0.0610
   84SAPS    HA 7898   2.587   4.752  10.954 -1.3912  0.1353 -0.6099
   84SAPS    HB 7899   2.606   4.918  10.900  0.0342 -0.1787 -0.1010
   84SAPS    C2 7900   2.675   4.784  10.766  0.4613  0.0101  0.8099
   84SAPS    HS 7901   2.716   4.682  10.749 -2.2990 -1.0281 -0.0080
   84SAPS   O21 7902   2.740   4.884  10.683 -0.1534 -0.2319  0.2637
   84SAPS   C21 7903   2.859   4.852  10.636 -0.5040 -0.6333  0.1142
   84SAPS   O22 7904   2.922   4.752  10.667 -0.1756 -0.3735 -0.5937
   84SAPS   C22 7905   2.898   4.955  10.525 -0.4755 -0.5867  0.2304
   84SAPS   H2R 7906   2.854   5.053  10.557  1.5420  0.4076  0.0498
   84SAPS   H2S 7907   3.008   4.955  10.537 -0.5912 -2.9142  1.6555
   84SAPS    C3 7908   2.526   4.773  10.701  0.6801 -0.2636  0.0247
   84SAPS    HX 7909   2.472   4.870  10.708 -0.1149 -0.4252 -2.9861
   84SAPS    HY 7910   2.466   4.700  10.759  0.0100 -1.0876 -1.6523
   84SAPS   O31 7911   2.530   4.732  10.564 -0.0393  0.2070 -0.4325
   84SAPS   C31 7912   2.514   4.598  10.544  0.1230 -0.3997 -0.1569
   84SAPS   O32 7913   2.497   4.516  10.626  0.0457 -0.0946 -0.5298
   84SAPS   C32 7914   2.543   4.573  10.396  0.3211 -0.4106 -0.1810
   84SAPS   H2X 7915   2.594   4.474  10.394 -0.4878 -0.8129 -1.6193
   84SAPS   H2Y 7916   2.607   4.659  10.367  1.6288 -1.2968  0.0517
   84SAPS   C23 7917   2.829   4.925  10.390 -0.0401 -1.2941  0.6863
   84SAPS   H3R 7918   2.728   4.970  10.389  0.9038  0.9030  0.9368
   84SAPS   H3S 7919   2.827   4.816  10.373 -2.4411 -1.3700  1.3339
   84SAPS   C24 7920   2.912   4.990  10.270  0.9415  0.2429 -0.0127
   84SAPS   H4R 7921   3.003   4.934  10.242  0.2740 -0.6433 -0.4479
   84SAPS   H4S 7922   2.958   5.079  10.318 -0.3100 -1.0457  3.7073
   84SAPS   C25 7923   2.830   5.035  10.154 -0.2904  0.3735 -0.5386
   84SAPS   H5R 7924   2.737   5.091  10.174 -0.5510  0.0848 -0.9040
   84SAPS   C26 7925   2.857   5.004  10.019  0.0814 -1.0150 -0.2334
   84SAPS   H6R 7926   2.774   5.028   9.951  0.0362  0.1452  0.2181
   84SAPS   C27 7927   2.969   4.926   9.946 -0.3810  1.1920 -0.0869
   84SAPS   H7R 7928   3.053   4.918  10.018 -0.4968 -0.6774 -0.1156
   84SAPS   H7S 7929   3.015   4.990   9.868  1.6555 -0.6162 -0.4289
   84SAPS   C28 7930   2.929   4.786   9.895  0.3246 -0.4572  0.2293
   84SAPS   H8R 7931   2.839   4.741   9.939  0.0512 -1.0165 -0.8659
   84SAPS   C29 7932   2.994   4.708   9.807  0.0090  0.2641 -0.1514
   84SAPS   H9R 7933   2.946   4.613   9.780 -2.8527  2.1636 -2.0115
   84SAPS  C210 7934   3.128   4.754   9.746 -0.1037  0.7554  0.0304
   84SAPS  H10R 7935   3.193   4.665   9.730 -2.2676 -0.9097  0.2635
   84SAPS  H10S 7936   3.176   4.835   9.804  0.5391 -0.1302  0.7521
   84SAPS  C211 7937   3.102   4.806   9.601 -0.2173 -0.5911 -0.5080
   84SAPS  H11R 7938   3.091   4.915   9.604  1.7511 -0.4178  0.8903
   84SAPS  C212 7939   3.106   4.735   9.483 -0.3597 -0.1641  0.6521
   84SAPS  H12R 7940   3.095   4.793   9.390 -1.9326  1.0863  1.5924
   84SAPS  C213 7941   3.122   4.587   9.475 -0.7737 -0.2183  0.0415
   84SAPS  H13R 7942   3.105   4.537   9.573 -1.7303 -0.9861 -0.5065
   84SAPS  H13S 7943   3.230   4.565   9.463 -0.6593 -1.0584  2.2278
   84SAPS  C214 7944   3.033   4.517   9.370  0.0269 -0.1209  0.2415
   84SAPS  H14R 7945   2.955   4.451   9.412  1.3571 -0.2111  2.6856
   84SAPS  C215 7946   3.065   4.509   9.238  0.0850 -0.3695  1.2456
   84SAPS  H15R 7947   2.989   4.471   9.169 -0.7397  2.6926  0.3631
   84SAPS  C216 7948   3.183   4.577   9.160 -0.6348  0.5468 -0.6936
   84SAPS  H16R 7949   3.234   4.506   9.092 -1.0970 -2.0359  1.5670
   84SAPS  H16S 7950   3.269   4.609   9.223 -0.5504  0.8061 -0.9390
   84SAPS  C217 7951   3.144   4.701   9.076  0.1617  0.0356  0.3725
   84SAPS  H17R 7952   3.126   4.786   9.145  0.5318  1.2339 -0.9837
   84SAPS  H17S 7953   3.044   4.677   9.035 -0.7137  2.0621  1.2503
   84SAPS  C218 7954   3.249   4.733   8.969  0.4007  0.3161  0.0602
   84SAPS  H18R 7955   3.276   4.638   8.919  0.5517  1.4492 -2.0356
   84SAPS  H18S 7956   3.345   4.756   9.022  0.8430  0.8797 -0.9631
   84SAPS  C219 7957   3.224   4.829   8.858  0.1548  0.7585  0.1921
   84SAPS  H19R 7958   3.190   4.926   8.900 -0.6727  1.1174 -1.2858
   84SAPS  H19S 7959   3.143   4.786   8.797  0.2812  1.2368 -0.3143
   84SAPS  C220 7960   3.346   4.858   8.770  0.9462 -0.4543 -0.4611
   84SAPS  H20R 7961   3.369   4.766   8.712 -0.2013 -1.3951  0.5385
   84SAPS  H20S 7962   3.433   4.893   8.829  0.3000  0.0098  0.2347
   84SAPS  H20T 7963   3.310   4.937   8.700 -1.6316 -0.1439  1.1494
   84SAPS   C33 7964   2.411   4.571  10.322  0.0373  0.6149  0.2012
   84SAPS   H3X 7965   2.385   4.678  10.314 -0.8301  0.4591  0.8862
   84SAPS   H3Y 7966   2.329   4.524  10.380 -1.0965 -0.2282 -2.0219
   84SAPS   C34 7967   2.412   4.524  10.173 -0.2395  0.3954  0.2969
   84SAPS   H4X 7968   2.304   4.527  10.149 -0.6153  0.6102  1.9435
   84SAPS   H4Y 7969   2.435   4.415  10.163  0.8810  0.7161 -0.7147
   84SAPS   C35 7970   2.485   4.616  10.066 -0.0773 -0.5855 -0.0884
   84SAPS   H5X 7971   2.595   4.611  10.080  0.1343  1.4069 -0.8219
   84SAPS   H5Y 7972   2.449   4.720  10.082  1.4027  0.0262 -0.6412
   84SAPS   C36 7973   2.454   4.577   9.921  0.6676  0.1032  0.1218
   84SAPS   H6X 7974   2.347   4.594   9.897  0.6964  0.7805  0.4413
   84SAPS   H6Y 7975   2.473   4.469   9.909  2.4467  0.4207 -0.0062
   84SAPS   C37 7976   2.538   4.646   9.807 -0.4333  0.2127 -0.7546
   84SAPS   H7X 7977   2.642   4.608   9.817 -0.9955 -1.5122 -1.1617
   84SAPS   H7Y 7978   2.532   4.750   9.844  1.6460 -0.2812  1.0887
   84SAPS   C38 7979   2.487   4.619   9.663  0.5057 -0.1652 -0.3869
   84SAPS   H8X 7980   2.388   4.667   9.673  0.8261  0.3392  0.3883
   84SAPS   H8Y 7981   2.469   4.514   9.631 -0.4535 -0.2328  0.3725
   84SAPS   C39 7982   2.584   4.681   9.558  0.1165 -0.1258  0.4026
   84SAPS   H9X 7983   2.533   4.706   9.463  0.2504 -2.6605 -0.3444
   84SAPS   H9Y 7984   2.667   4.611   9.538  1.2646  1.3669 -0.2012
   84SAPS  C310 7985   2.646   4.817   9.602 -0.0415 -0.1955 -0.1623
   84SAPS  H10X 7986   2.706   4.807   9.695 -0.2080 -0.1047 -0.0443
   84SAPS  H10Y 7987   2.568   4.896   9.600  0.8833  0.7148 -1.0373
   84SAPS  C311 7988   2.750   4.860   9.504 -0.7556  0.6605  0.1496
   84SAPS  H11X 7989   2.822   4.776   9.491  1.1440  2.1928  0.5237
   84SAPS  H11Y 7990   2.813   4.941   9.546 -1.0801  1.6733 -1.3052
   84SAPS  C312 7991   2.711   4.903   9.362 -0.0643 -0.2868 -0.0035
   84SAPS  H12X 7992   2.638   4.987   9.363 -0.0044 -0.2094 -1.1891
   84SAPS  H12Y 7993   2.671   4.811   9.314 -2.2992  0.6566 -0.0450
   84SAPS  C313 7994   2.845   4.945   9.295 -0.0077  0.2614  0.4393
   84SAPS  H13X 7995   2.923   4.866   9.295 -0.7977 -0.5307 -0.9974
   84SAPS  H13Y 7996   2.876   5.025   9.366 -0.1204 -1.4428  2.4644
   84SAPS  C314 7997   2.830   5.017   9.163  0.1023 -0.1294 -0.6454
   84SAPS  H14X 7998   2.916   5.086   9.150  0.5225  0.0580  2.7097
   84SAPS  H14Y 7999   2.740   5.082   9.161 -0.5162 -0.9580 -0.0249
   84SAPS  C315 8000   2.812   4.925   9.044 -0.2943 -0.1048 -0.4437
   84SAPS  H15X 8001   2.722   4.863   9.062 -0.2027  0.1912  1.1038
   84SAPS  H15Y 8002   2.898   4.855   9.048  0.7718  1.2568  0.7147
   84SAPS  C316 8003   2.789   5.000   8.907 -0.1159 -1.3038 -0.0533
   84SAPS  H16X 8004   2.885   5.051   8.886  0.3100 -2.3121 -0.6073
   84SAPS  H16Y 8005   2.709   5.076   8.925  2.0612  0.5760  1.9836
   84SAPS  C317 8006   2.765   4.905   8.791 -0.2254  0.0748  0.0795
   84SAPS  H17X 8007   2.683   4.836   8.821 -0.2791  0.1453  0.0939
   84SAPS  H17Y 8008   2.854   4.839   8.783  0.2939  0.6382  1.0995
   84SAPS  C318 8009   2.737   4.988   8.668  0.2378 -0.2879  0.1216
   84SAPS  H18X 8010   2.819   5.063   8.669 -0.3558  0.3751  3.4863
   84SAPS  H18Y 8011   2.635   5.029   8.678  0.9032  1.2048  1.0056
   84SAPS  H18Z 8012   2.746   4.924   8.577  0.5432 -0.6365  0.3939
   85SAPS     N 8013   5.785   6.088  11.100  0.6017 -0.1075  0.3028
   85SAPS   HN1 8014   5.765   6.001  11.153 -1.6206 -0.4063 -0.9431
   85SAPS   HN2 8015   5.695   6.140  11.095  0.7126  0.1374  0.8437
   85SAPS   HN3 8016   5.817   6.061  11.004 -0.6520 -1.0078  0.1200
   85SAPS   C12 8017   5.907   6.161  11.151 -0.0349  0.3350 -0.8635
   85SAPS  H12A 8018   5.919   6.255  11.100  1.0237 -0.0160 -1.2566
   85SAPS   C13 8019   5.893   6.199  11.296  0.3902 -0.0867 -0.3434
   85SAPS  O13A 8020   5.798   6.152  11.364 -0.8698  0.2154 -0.1615
   85SAPS  O13B 8021   5.979   6.279  11.347 -0.0019 -0.3286 -0.5613
   85SAPS   C11 8022   6.031   6.073  11.133  0.0660  0.9466 -0.4085
   85SAPS  H11A 8023   6.010   5.975  11.182  0.7151  1.1867  0.3559
   85SAPS  H11B 8024   6.124   6.111  11.181  0.3260 -0.1685 -0.0163
   85SAPS     P 8025   6.182   5.966  10.953 -0.7209 -0.0257  0.1285
   85SAPS   O13 8026   6.296   6.057  10.958  0.1131  0.4898  0.0428
   85SAPS   O14 8027   6.190   5.838  11.039  0.4538  0.4255  0.0504
   85SAPS   O12 8028   6.055   6.052  10.990 -0.2143  0.5404  0.0161
   85SAPS   O11 8029   6.152   5.919  10.802  0.1970 -0.3512  0.3613
   85SAPS    C1 8030   6.115   6.018  10.711 -0.0077  0.6757 -0.6873
   85SAPS    HA 8031   6.024   5.990  10.655 -0.5743 -0.4386  0.7618
   85SAPS    HB 8032   6.090   6.112  10.765  2.6227 -0.3582  2.5417
   85SAPS    C2 8033   6.217   6.068  10.601  0.6599 -0.2149 -0.2383
   85SAPS    HS 8034   6.311   6.105  10.648 -0.3641  1.8182  0.2696
   85SAPS   O21 8035   6.139   6.165  10.519  0.7305  0.1525 -0.1401
   85SAPS   C21 8036   6.214   6.251  10.444  0.7307 -0.3319  0.5556
   85SAPS   O22 8037   6.330   6.256  10.454  0.3134 -0.1898  0.1225
   85SAPS   C22 8038   6.131   6.344  10.349 -0.1047  0.8235 -0.9245
   85SAPS   H2R 8039   6.028   6.352  10.391 -1.0544 -0.8677 -2.8470
   85SAPS   H2S 8040   6.185   6.441  10.336  0.0751  0.8730  0.2113
   85SAPS    C3 8041   6.261   5.946  10.507  0.0593 -0.4507 -0.2718
   85SAPS    HX 8042   6.168   5.911  10.459  0.2870 -1.8651  0.2995
   85SAPS    HY 8043   6.293   5.864  10.575 -0.5071 -0.5048 -0.0689
   85SAPS   O31 8044   6.364   5.971  10.414 -0.1616 -0.3483 -0.2168
   85SAPS   C31 8045   6.481   5.998  10.467  0.1105  0.2113  0.4061
   85SAPS   O32 8046   6.511   5.987  10.585  0.7544  0.8248  0.1896
   85SAPS   C32 8047   6.590   6.043  10.368 -0.3137 -1.1016 -0.1046
   85SAPS   H2X 8048   6.653   6.112  10.427 -1.7654 -0.6588  0.9476
   85SAPS   H2Y 8049   6.540   6.113  10.298 -0.3960 -0.8877  0.1709
   85SAPS   C23 8050   6.124   6.279  10.203 -0.1763 -0.4995  0.7659
   85SAPS   H3R 8051   6.076   6.179  10.200  0.5308 -0.8311  0.2782
   85SAPS   H3S 8052   6.227   6.275  10.163 -0.3250  1.3891  0.1257
   85SAPS   C24 8053   6.036   6.379  10.123  0.1587 -0.3123 -0.0392
   85SAPS   H4R 8054   5.934   6.384  10.166  1.0607  2.6030  1.9180
   85SAPS   H4S 8055   6.026   6.333  10.022  0.2321  0.2451 -0.3069
   85SAPS   C25 8056   6.093   6.518  10.097 -0.2793 -0.2861  0.0914
   85SAPS   H5R 8057   6.084   6.579  10.188  1.1135 -1.1323  0.8137
   85SAPS   C26 8058   6.121   6.574   9.980  0.5450 -0.0639 -0.8466
   85SAPS   H6R 8059   6.176   6.669   9.981 -0.6042  0.6107 -0.4110
   85SAPS   C27 8060   6.109   6.521   9.837  0.0631 -0.0328 -0.4795
   85SAPS   H7R 8061   6.137   6.414   9.827  1.9753  0.2611  1.3278
   85SAPS   H7S 8062   6.178   6.579   9.772  0.8213  1.1988  1.3572
   85SAPS   C28 8063   5.965   6.533   9.798 -0.0522  0.1441 -0.8977
   85SAPS   H8R 8064   5.896   6.542   9.883  0.8638 -1.5979  0.0616
   85SAPS   C29 8065   5.925   6.526   9.669 -1.0519  0.6395  1.1059
   85SAPS   H9R 8066   5.817   6.521   9.652 -0.9914 -0.2445  0.9520
   85SAPS  C210 8067   6.008   6.509   9.544 -0.2637  0.0051  1.0038
   85SAPS  H10R 8068   5.992   6.404   9.514 -0.6571 -0.4059  2.5765
   85SAPS  H10S 8069   6.115   6.532   9.567 -0.1454  2.7942 -2.0077
   85SAPS  C211 8070   5.964   6.602   9.429 -0.4537  0.8579  0.2075
   85SAPS  H11R 8071   5.857   6.625   9.418 -0.3148  1.8786  0.9577
   85SAPS  C212 8072   6.037   6.619   9.320  0.5324  0.4686 -0.2123
   85SAPS  H12R 8073   5.988   6.676   9.240 -0.4822  0.6284  0.5167
   85SAPS  C213 8074   6.171   6.562   9.291  0.1400 -0.0690 -0.2820
   85SAPS  H13R 8075   6.165   6.509   9.194 -0.7972 -1.5935  0.5871
   85SAPS  H13S 8076   6.199   6.481   9.362 -0.0821 -0.8581 -1.0818
   85SAPS  C214 8077   6.276   6.667   9.290  0.1510 -0.1745 -0.8426
   85SAPS  H14R 8078   6.297   6.696   9.394  1.9243 -2.9817 -0.3745
   85SAPS  C215 8079   6.348   6.718   9.186 -0.1284 -0.2580  0.0013
   85SAPS  H15R 8080   6.422   6.798   9.192  1.4593 -1.8250  2.2890
   85SAPS  C216 8081   6.329   6.667   9.054 -0.1903  0.2315  0.7311
   85SAPS  H16R 8082   6.222   6.643   9.032 -0.0804  1.4207 -1.2381
   85SAPS  H16S 8083   6.384   6.574   9.030  0.2718  0.7964 -0.4736
   85SAPS  C217 8084   6.360   6.780   8.951 -1.0332 -0.4645 -0.0097
   85SAPS  H17R 8085   6.471   6.793   8.953 -0.9861 -0.7886 -0.3930
   85SAPS  H17S 8086   6.329   6.886   8.958 -0.4926 -0.3068  0.0174
   85SAPS  C218 8087   6.321   6.737   8.808 -0.4469 -0.2063 -1.0789
   85SAPS  H18R 8088   6.211   6.724   8.802 -0.3889 -0.6494 -1.2236
   85SAPS  H18S 8089   6.360   6.633   8.797 -0.7793 -0.3376 -1.0312
   85SAPS  C219 8090   6.361   6.827   8.686  0.5915  0.7451 -0.6775
   85SAPS  H19R 8091   6.351   6.933   8.717  0.4957  1.2400 -2.3226
   85SAPS  H19S 8092   6.297   6.796   8.601  0.9283  0.2441 -0.7532
   85SAPS  C220 8093   6.503   6.817   8.631 -0.0338 -0.2372 -0.0801
   85SAPS  H20R 8094   6.584   6.853   8.699  2.7861 -1.9077 -2.4024
   85SAPS  H20S 8095   6.517   6.867   8.532 -0.5334 -0.5649 -0.3174
   85SAPS  H20T 8096   6.524   6.708   8.626 -0.3316 -0.2130 -2.4073
   85SAPS   C33 8097   6.640   5.915  10.296  0.6937  0.1792 -0.7811
   85SAPS   H3X 8098   6.546   5.885  10.244  0.4974 -0.8811  0.1531
   85SAPS   H3Y 8099   6.673   5.838  10.369  1.6311  0.5761 -0.7772
   85SAPS   C34 8100   6.762   5.934  10.204  0.2331  0.2848  0.3975
   85SAPS   H4X 8101   6.781   5.830  10.170  0.8263  0.4602  0.1905
   85SAPS   H4Y 8102   6.854   5.961  10.260  0.8173 -3.0930  1.1401
   85SAPS   C35 8103   6.738   6.030  10.083  0.0792  0.2793  0.3269
   85SAPS   H5X 8104   6.748   6.137  10.110 -0.6846  0.3838  0.2275
   85SAPS   H5Y 8105   6.641   6.009  10.032 -0.2452  2.1378  0.1585
   85SAPS   C36 8106   6.849   5.995   9.979 -0.1259  0.1788 -0.1569
   85SAPS   H6X 8107   6.875   5.888   9.967 -1.5992 -0.1922 -0.1744
   85SAPS   H6Y 8108   6.942   6.043  10.016 -0.8267  1.3760  0.0755
   85SAPS   C37 8109   6.807   6.056   9.840 -0.2022 -0.4533  0.2979
   85SAPS   H7X 8110   6.831   6.165   9.835  0.6541 -0.6868 -1.1016
   85SAPS   H7Y 8111   6.698   6.059   9.821  0.2143  0.7863 -2.1010
   85SAPS   C38 8112   6.866   5.981   9.715  0.4467  0.3779  0.2230
   85SAPS   H8X 8113   6.824   6.031   9.625 -1.4815  0.0461  0.9134
   85SAPS   H8Y 8114   6.821   5.880   9.721 -2.4669  1.5098 -1.4181
   85SAPS   C39 8115   7.008   5.967   9.692  0.0915  0.3971  1.0910
   85SAPS   H9X 8116   7.066   5.932   9.780  0.1712 -0.5337  0.6766
   85SAPS   H9Y 8117   7.067   6.057   9.664  0.9703  0.2933  2.5593
   85SAPS  C310 8118   7.024   5.872   9.569  0.3561 -0.7413  0.1034
   85SAPS  H10X 8119   6.947   5.896   9.493  1.5824 -0.5729 -1.0976
   85SAPS  H10Y 8120   7.025   5.762   9.581  0.2334 -0.9996 -2.1058
   85SAPS  C311 8121   7.173   5.890   9.504  0.3903 -0.5060 -0.0662
   85SAPS  H11X 8122   7.247   5.898   9.587  0.5028 -2.4745  0.0481
   85SAPS  H11Y 8123   7.171   5.990   9.455 -2.2433  0.0699  1.0795
   85SAPS  C312 8124   7.212   5.778   9.408  0.4325 -1.0625 -0.4912
   85SAPS  H12X 8125   7.181   5.678   9.446  0.1135 -1.1848 -1.0674
   85SAPS  H12Y 8126   7.322   5.784   9.393  0.3589  0.5888 -0.4295
   85SAPS  C313 8127   7.150   5.793   9.267  0.2544  0.5868  0.0050
   85SAPS  H13X 8128   7.195   5.883   9.220  1.8657  0.7129  1.7324
   85SAPS  H13Y 8129   7.041   5.814   9.280  0.0156 -1.1262  0.9438
   85SAPS  C314 8130   7.151   5.669   9.182 -0.2177 -0.0984 -1.1715
   85SAPS  H14X 8131   7.087   5.686   9.093 -2.4108 -1.3928  0.1295
   85SAPS  H14Y 8132   7.106   5.585   9.239  0.6436 -0.0373 -0.3863
   85SAPS  C315 8133   7.303   5.642   9.139 -0.2104  0.3014  0.2163
   85SAPS  H15X 8134   7.363   5.602   9.224  0.0319  0.1492 -0.0244
   85SAPS  H15Y 8135   7.346   5.732   9.090  0.9500 -0.3490  0.0046
   85SAPS  C316 8136   7.298   5.523   9.044 -0.1494  0.8099  0.4628
   85SAPS  H16X 8137   7.219   5.451   9.075  0.0709 -0.2833 -1.4069
   85SAPS  H16Y 8138   7.392   5.464   9.049 -0.3227  0.2230 -2.1093
   85SAPS  C317 8139   7.287   5.564   8.895  0.0703  0.0291  0.4549
   85SAPS  H17X 8140   7.386   5.582   8.849 -0.1603 -1.0948 -0.4762
   85SAPS  H17Y 8141   7.221   5.653   8.887  0.7141  0.4600 -0.1073
   85SAPS  C318 8142   7.230   5.455   8.800 -0.0471 -0.2573 -0.6176
   85SAPS  H18X 8143   7.305   5.373   8.789  2.9727  1.9990  2.0280
   85SAPS  H18Y 8144   7.204   5.485   8.696 -0.9451 -0.2431 -0.3925
   85SAPS  H18Z 8145   7.143   5.403   8.844  0.3082  1.5478  2.3401
   86SAPS     N 8146   1.950   0.235  10.704  0.1365 -0.2873 -0.5328
   86SAPS   HN1 8147   2.007   0.313  10.668  0.5590 -0.5515 -0.4400
   86SAPS   HN2 8148   1.898   0.192  10.625 -3.1466  0.4729  1.1103
   86SAPS   HN3 8149   1.878   0.285  10.760 -1.3981 -1.0489 -1.7750
   86SAPS   C12 8150   2.021   0.149  10.801  0.0226 -0.8891 -0.0917
   86SAPS  H12A 8151   2.124   0.142  10.769  0.0481  0.8969 -0.4349
   86SAPS   C13 8152   2.017   0.207  10.948 -0.5733 -0.0318 -0.3134
   86SAPS  O13A 8153   1.940   0.306  10.967  0.1665 -0.1130 -0.1741
   86SAPS  O13B 8154   2.070   0.136  11.035 -0.3945 -0.1749 -0.5213
   86SAPS   C11 8155   1.944   0.014  10.806  0.0200  0.2945 -0.1426
   86SAPS  H11A 8156   1.998  -0.054  10.875 -2.1530 -0.3608  0.9452
   86SAPS  H11B 8157   1.952  -0.028  10.703  1.3024 -1.5958  0.7009
   86SAPS     P 8158   1.716  -0.098  10.898  0.2783  0.0431  0.4778
   86SAPS   O13 8159   1.787  -0.179  10.992  0.3418  0.3045  0.0268
   86SAPS   O14 8160   1.579  -0.049  10.934 -1.3653 -0.1113 -0.2422
   86SAPS   O12 8161   1.807   0.024  10.843 -0.0581 -0.0343 -0.5685
   86SAPS   O11 8162   1.695  -0.178  10.769  0.3287  0.0385  0.0541
   86SAPS    C1 8163   1.649  -0.119  10.647 -0.2042  0.3452 -0.2125
   86SAPS    HA 8164   1.538  -0.126  10.655 -0.1065 -0.1165  0.8787
   86SAPS    HB 8165   1.674  -0.011  10.648 -2.3748  0.8881  0.0907
   86SAPS    C2 8166   1.713  -0.194  10.525  0.7194 -0.0533 -0.0582
   86SAPS    HS 8167   1.739  -0.125  10.442  0.9653 -0.9202 -0.7225
   86SAPS   O21 8168   1.622  -0.300  10.481  0.3443 -0.2925 -0.8191
   86SAPS   C21 8169   1.520  -0.250  10.410  0.5347  0.2434  0.2768
   86SAPS   O22 8170   1.510  -0.134  10.369  0.8329  0.4125 -0.5015
   86SAPS   C22 8171   1.419  -0.358  10.376 -0.2504 -0.2899 -0.2833
   86SAPS   H2R 8172   1.474  -0.448  10.341  0.8925  0.9494 -1.7218
   86SAPS   H2S 8173   1.363  -0.394  10.465  0.5180 -1.7244 -0.3651
   86SAPS    C3 8174   1.849  -0.258  10.558 -0.3754  0.4458  0.3592
   86SAPS    HX 8175   1.832  -0.326  10.645 -0.5619  1.8385  1.4336
   86SAPS    HY 8176   1.926  -0.185  10.592  0.1512 -0.1842  0.5353
   86SAPS   O31 8177   1.905  -0.320  10.439 -0.0618 -0.4165 -0.2509
   86SAPS   C31 8178   1.963  -0.245  10.344 -0.2334  0.6342 -0.3334
   86SAPS   O32 8179   1.977  -0.124  10.351  0.1217 -0.4055 -0.3911
   86SAPS   C32 8180   2.018  -0.335  10.226  0.3587 -0.2947 -0.2368
   86SAPS   H2X 8181   1.925  -0.389  10.200 -1.1067  1.4494  1.2813
   86SAPS   H2Y 8182   2.099  -0.404  10.259 -0.2890 -0.1843  1.5964
   86SAPS   C23 8183   1.315  -0.312  10.265 -1.0105 -0.2850 -0.5013
   86SAPS   H3R 8184   1.371  -0.270  10.179 -1.7208  0.1691 -0.7542
   86SAPS   H3S 8185   1.252  -0.228  10.304  1.0379  1.2506 -0.4331
   86SAPS   C24 8186   1.220  -0.429  10.229  0.4570  0.5228  0.3313
   86SAPS   H4R 8187   1.147  -0.364  10.176  0.0885 -0.2447 -0.1018
   86SAPS   H4S 8188   1.157  -0.478  10.305 -0.4884  1.0771 -0.0819
   86SAPS   C25 8189   1.277  -0.543  10.150  0.1922  0.0640  0.0960
   86SAPS   H5R 8190   1.306  -0.624  10.219 -0.8771 -1.2291 -0.9538
   86SAPS   C26 8191   1.276  -0.566  10.017 -0.5355 -0.3901 -0.2048
   86SAPS   H6R 8192   1.304  -0.665   9.978 -0.2839  0.3485 -1.9928
   86SAPS   C27 8193   1.204  -0.475   9.919 -0.6333 -0.3786  0.4999
   86SAPS   H7R 8194   1.232  -0.368   9.925  2.5430 -0.7857 -4.5587
   86SAPS   H7S 8195   1.097  -0.482   9.947 -1.3025  2.3390 -1.2676
   86SAPS   C28 8196   1.234  -0.512   9.781 -0.4325  0.2754  0.7122
   86SAPS   H8R 8197   1.312  -0.587   9.764 -0.6441 -0.1430  1.5515
   86SAPS   C29 8198   1.164  -0.468   9.676  0.2417  0.1663  0.8159
   86SAPS   H9R 8199   1.206  -0.493   9.577  2.1221  1.2462  1.3023
   86SAPS  C210 8200   1.039  -0.376   9.670 -0.0682  0.1617  0.2001
   86SAPS  H10R 8201   1.062  -0.267   9.673 -1.8269  0.5495  0.3017
   86SAPS  H10S 8202   0.966  -0.397   9.751 -1.6190  4.0021 -0.0842
   86SAPS  C211 8203   0.968  -0.405   9.540 -0.2501  0.4546  0.8433
   86SAPS  H11R 8204   0.896  -0.488   9.537  0.8817 -0.4826 -1.2629
   86SAPS  C212 8205   1.000  -0.353   9.416  0.1077  0.5968 -0.1728
   86SAPS  H12R 8206   0.952  -0.395   9.326  2.2892  0.0875 -1.1190
   86SAPS  C213 8207   1.110  -0.247   9.389 -0.1391 -0.1953 -0.1135
   86SAPS  H13R 8208   1.180  -0.230   9.473  0.6172 -0.0097 -0.7705
   86SAPS  H13S 8209   1.054  -0.151   9.393 -0.4216 -0.4374  2.5128
   86SAPS  C214 8210   1.193  -0.249   9.260  0.5166 -0.1461 -0.3259
   86SAPS  H14R 8211   1.154  -0.183   9.181  1.4129 -0.9818 -1.4765
   86SAPS  C215 8212   1.315  -0.304   9.244  0.4010  0.0300  0.4132
   86SAPS  H15R 8213   1.369  -0.288   9.150  0.0182  1.1178  0.3681
   86SAPS  C216 8214   1.382  -0.383   9.353  0.2671 -0.8791 -0.0241
   86SAPS  H16R 8215   1.344  -0.343   9.449 -0.7275 -1.3536 -0.2121
   86SAPS  H16S 8216   1.493  -0.374   9.357  0.0967  0.9442  1.2238
   86SAPS  C217 8217   1.338  -0.526   9.341 -0.0600  0.0667 -0.5097
   86SAPS  H17R 8218   1.229  -0.548   9.346  0.4094 -1.8615  2.4599
   86SAPS  H17S 8219   1.391  -0.579   9.423 -0.0777  1.1738  0.2176
   86SAPS  C218 8220   1.395  -0.611   9.218  0.1742  0.0801  1.4060
   86SAPS  H18R 8221   1.498  -0.586   9.186 -0.3370  0.3737 -0.0586
   86SAPS  H18S 8222   1.346  -0.574   9.125 -0.0100 -0.3936  1.3138
   86SAPS  C219 8223   1.369  -0.761   9.220  0.1700 -0.2992  0.0552
   86SAPS  H19R 8224   1.262  -0.767   9.249  0.2294 -0.1165  0.3225
   86SAPS  H19S 8225   1.431  -0.810   9.298  1.2305  0.4491 -0.3048
   86SAPS  C220 8226   1.383  -0.832   9.088 -0.0476  0.2482 -0.7030
   86SAPS  H20R 8227   1.344  -0.936   9.077  1.3754 -0.2162 -1.4371
   86SAPS  H20S 8228   1.487  -0.839   9.050 -0.1239 -1.9702 -0.5900
   86SAPS  H20T 8229   1.338  -0.781   9.001  0.5143 -0.5641 -1.4758
   86SAPS   C33 8230   2.062  -0.245  10.106  0.0679 -0.3667  0.1775
   86SAPS   H3X 8231   2.131  -0.160  10.126  0.7208 -1.0407  0.8361
   86SAPS   H3Y 8232   1.970  -0.189  10.078 -0.9120 -0.2458  3.4182
   86SAPS   C34 8233   2.114  -0.328   9.989 -0.1616  0.4281  0.1391
   86SAPS   H4X 8234   2.046  -0.413   9.968  1.3690  0.1813 -4.1307
   86SAPS   H4Y 8235   2.206  -0.375  10.029  0.1113 -0.1640 -1.1600
   86SAPS   C35 8236   2.155  -0.249   9.861  0.5910  0.0211  0.2717
   86SAPS   H5X 8237   2.265  -0.257   9.846  1.1377  0.8102  3.3753
   86SAPS   H5Y 8238   2.126  -0.142   9.868 -1.4670 -0.4865 -0.1072
   86SAPS   C36 8239   2.084  -0.301   9.738  0.3427 -0.5713 -0.0427
   86SAPS   H6X 8240   1.976  -0.302   9.760  0.0655  0.6309 -1.2651
   86SAPS   H6Y 8241   2.115  -0.408   9.729 -2.1968 -1.4512  1.2489
   86SAPS   C37 8242   2.123  -0.218   9.610  0.1580 -0.3653  0.3028
   86SAPS   H7X 8243   2.230  -0.190   9.603  0.6006 -1.9621  0.6124
   86SAPS   H7Y 8244   2.069  -0.122   9.625 -0.1551 -0.8184  2.3093
   86SAPS   C38 8245   2.080  -0.282   9.474  0.2956  0.6707 -0.0134
   86SAPS   H8X 8246   2.112  -0.389   9.473 -0.4999  0.4008  1.3634
   86SAPS   H8Y 8247   2.139  -0.223   9.401  2.6804 -1.2437  0.3070
   86SAPS   C39 8248   1.932  -0.266   9.441  1.8837 -0.2306 -0.2783
   86SAPS   H9X 8249   1.907  -0.194   9.360 -2.5826 -1.0845  0.2050
   86SAPS   H9Y 8250   1.887  -0.221   9.531  2.5932 -0.1341  0.0301
   86SAPS  C310 8251   1.838  -0.389   9.417  0.3645 -0.4118 -0.5193
   86SAPS  H10X 8252   1.734  -0.351   9.428  1.0288  0.9334  1.3709
   86SAPS  H10Y 8253   1.864  -0.444   9.509  0.4354  0.9211  0.2782
   86SAPS  C311 8254   1.875  -0.464   9.281 -0.0792  0.2598  0.3715
   86SAPS  H11X 8255   1.861  -0.573   9.292  2.8565 -0.3394 -1.3992
   86SAPS  H11Y 8256   1.984  -0.466   9.263 -0.1143 -1.6995  0.3567
   86SAPS  C312 8257   1.813  -0.406   9.148  0.0031  0.2348  0.2383
   86SAPS  H12X 8258   1.851  -0.302   9.138 -0.6879  0.6587  1.9319
   86SAPS  H12Y 8259   1.703  -0.399   9.160 -0.1033  0.8252 -0.9387
   86SAPS  C313 8260   1.846  -0.481   9.019  0.4915 -0.0034  0.1827
   86SAPS  H13X 8261   1.844  -0.588   9.050 -1.4786 -0.4201 -1.1916
   86SAPS  H13Y 8262   1.949  -0.444   9.001  0.7794  1.8734  5.0338
   86SAPS  C314 8263   1.748  -0.459   8.900  0.0858 -1.0894 -0.7177
   86SAPS  H14X 8264   1.722  -0.351   8.908  1.0217 -0.8067 -1.3413
   86SAPS  H14Y 8265   1.656  -0.512   8.931 -0.2195  0.3819  0.9369
   86SAPS  C315 8266   1.816  -0.505   8.769 -0.4142  0.2362 -0.3208
   86SAPS  H15X 8267   1.849  -0.611   8.772 -1.0518  0.0553  0.4372
   86SAPS  H15Y 8268   1.896  -0.437   8.731 -1.0644 -0.0313 -2.2424
   86SAPS  C316 8269   1.710  -0.497   8.663  0.6605 -0.0648  0.2001
   86SAPS  H16X 8270   1.662  -0.397   8.660  2.0533  0.5741 -1.5655
   86SAPS  H16Y 8271   1.631  -0.575   8.662  2.7889 -2.2859  1.4348
   86SAPS  C317 8272   1.771  -0.518   8.517  0.0308 -0.1389 -0.0697
   86SAPS  H17X 8273   1.819  -0.618   8.509 -0.7998 -0.4075 -1.9405
   86SAPS  H17Y 8274   1.844  -0.435   8.508  1.8848 -1.6803  0.5658
   86SAPS  C318 8275   1.656  -0.497   8.417  0.0166 -0.0026 -0.0448
   86SAPS  H18X 8276   1.587  -0.584   8.416  0.9870 -0.8227 -4.4069
   86SAPS  H18Y 8277   1.690  -0.488   8.312  0.9517  1.3905  0.3584
   86SAPS  H18Z 8278   1.595  -0.408   8.443 -0.2280 -0.0767 -0.3584
   87SAPS     N 8279   2.104   0.476  11.122 -0.3828  0.2448  0.0991
   87SAPS   HN1 8280   2.065   0.414  11.049  0.3179  1.0839 -0.9975
   87SAPS   HN2 8281   2.178   0.426  11.175 -0.1864  1.1148  0.6699
   87SAPS   HN3 8282   2.029   0.486  11.194 -0.3952  0.0287  0.1169
   87SAPS   C12 8283   2.134   0.610  11.057 -0.8513  0.5334  0.1574
   87SAPS  H12A 8284   2.045   0.651  11.012 -0.4251 -0.7189 -1.8358
   87SAPS   C13 8285   2.186   0.702  11.169 -0.5316  0.3290  0.8881
   87SAPS  O13A 8286   2.210   0.674  11.288  0.2855 -0.1233  0.2879
   87SAPS  O13B 8287   2.197   0.824  11.134  0.3877 -0.1660 -0.0427
   87SAPS   C11 8288   2.240   0.585  10.953  0.1100 -0.5936 -0.5487
   87SAPS  H11A 8289   2.320   0.533  11.008 -1.0607 -1.8431  0.0066
   87SAPS  H11B 8290   2.280   0.681  10.913  0.0082  0.8359  2.6057
   87SAPS     P 8291   2.181   0.553  10.699 -0.3826 -0.4786 -0.0557
   87SAPS   O13 8292   2.317   0.562  10.647  0.6117 -0.2805 -0.2090
   87SAPS   O14 8293   2.088   0.465  10.625  0.0592  0.2351  0.1288
   87SAPS   O12 8294   2.188   0.501  10.855  0.1862 -0.3245  0.1810
   87SAPS   O11 8295   2.125   0.698  10.705 -0.5877 -0.2381 -0.3560
   87SAPS    C1 8296   1.986   0.721  10.694 -0.0334 -0.3946 -0.4131
   87SAPS    HA 8297   1.914   0.640  10.716 -0.6419  0.1790 -0.2757
   87SAPS    HB 8298   1.964   0.784  10.783 -0.8274  0.0222 -0.8971
   87SAPS    C2 8299   1.947   0.777  10.556  0.4967 -0.0375 -0.6489
   87SAPS    HS 8300   1.845   0.817  10.573  0.3774  0.2873 -2.0184
   87SAPS   O21 8301   1.951   0.679  10.450  0.1725  0.5049 -0.5076
   87SAPS   C21 8302   1.837   0.606  10.449 -0.7189 -0.0662 -0.2332
   87SAPS   O22 8303   1.749   0.599  10.532 -0.2329 -0.2385 -0.1016
   87SAPS   C22 8304   1.828   0.536  10.323 -0.5257 -0.2512 -0.0250
   87SAPS   H2R 8305   1.929   0.547  10.279 -0.4021 -0.6780  0.1472
   87SAPS   H2S 8306   1.819   0.430  10.356  1.6814 -0.3759  0.2252
   87SAPS    C3 8307   2.040   0.901  10.523  0.6750 -0.1216 -0.0542
   87SAPS    HX 8308   2.142   0.863  10.502  0.7697  0.2993 -0.3759
   87SAPS    HY 8309   2.047   0.961  10.616 -3.6106  0.8240 -0.2630
   87SAPS   O31 8310   1.978   0.990  10.423  0.3060 -0.2234  0.7486
   87SAPS   C31 8311   2.024   0.977  10.303  0.4999 -0.8970 -0.1158
   87SAPS   O32 8312   2.097   0.886  10.265  0.2354 -0.1190 -0.3096
   87SAPS   C32 8313   1.977   1.099  10.216  0.3586 -0.2402  0.5384
   87SAPS   H2X 8314   1.973   1.193  10.275  2.7862  0.6706 -0.6903
   87SAPS   H2Y 8315   1.870   1.084  10.190  0.1906  0.4655  0.8060
   87SAPS   C23 8316   1.715   0.576  10.225 -0.0932 -0.6125 -0.2251
   87SAPS   H3R 8317   1.616   0.581  10.276 -0.6958 -2.2221 -1.2313
   87SAPS   H3S 8318   1.711   0.503  10.142  0.0326  0.5071 -1.2361
   87SAPS   C24 8319   1.734   0.720  10.162 -0.7414  0.4557 -0.5723
   87SAPS   H4R 8320   1.749   0.789  10.247  2.8682 -1.1023  0.1758
   87SAPS   H4S 8321   1.636   0.757  10.127 -1.7664 -0.6973  1.0203
   87SAPS   C25 8322   1.847   0.736  10.068 -0.2139 -0.6210 -0.3111
   87SAPS   H5R 8323   1.945   0.751  10.114 -0.8120 -1.7185  1.3421
   87SAPS   C26 8324   1.843   0.723   9.936  0.6668 -0.7570 -0.7703
   87SAPS   H6R 8325   1.939   0.741   9.886  0.6803  0.1815 -0.4060
   87SAPS   C27 8326   1.719   0.689   9.855  0.0920  0.0675  0.0605
   87SAPS   H7R 8327   1.719   0.750   9.762 -0.3987  1.7250  1.1171
   87SAPS   H7S 8328   1.622   0.706   9.908  0.4057  2.3154 -0.0547
   87SAPS   C28 8329   1.700   0.546   9.823 -0.4247 -0.2087 -0.0471
   87SAPS   H8R 8330   1.693   0.475   9.906 -0.6709  0.2492  0.3290
   87SAPS   C29 8331   1.686   0.494   9.702  0.0956 -0.0712  0.2327
   87SAPS   H9R 8332   1.671   0.386   9.688  0.3787 -0.0704 -0.1041
   87SAPS  C210 8333   1.688   0.565   9.562 -0.4848  0.2053 -0.6310
   87SAPS  H10R 8334   1.650   0.669   9.568  0.4850  0.5142  0.4094
   87SAPS  H10S 8335   1.607   0.508   9.512 -1.9759  1.9672 -0.2780
   87SAPS  C211 8336   1.820   0.567   9.485  0.3871  0.1599  0.0012
   87SAPS  H11R 8337   1.910   0.604   9.536 -1.2940  2.3774  1.5126
   87SAPS  C212 8338   1.821   0.555   9.356  0.5842  0.5979 -0.0926
   87SAPS  H12R 8339   1.908   0.587   9.296  0.5230  1.2439  0.1670
   87SAPS  C213 8340   1.706   0.522   9.262  0.6215  0.4326 -0.2429
   87SAPS  H13R 8341   1.710   0.599   9.182 -0.6266  0.1864 -0.5635
   87SAPS  H13S 8342   1.604   0.539   9.304  0.5045 -0.9557  0.0506
   87SAPS  C214 8343   1.700   0.384   9.210 -0.1158  0.0911 -0.1580
   87SAPS  H14R 8344   1.734   0.304   9.277 -1.0201  0.0596  0.2707
   87SAPS  C215 8345   1.681   0.341   9.080  0.6104 -0.4782 -0.3571
   87SAPS  H15R 8346   1.694   0.233   9.061  1.8345 -1.0190  3.2675
   87SAPS  C216 8347   1.652   0.421   8.958 -0.2032  0.1962  0.4810
   87SAPS  H16R 8348   1.728   0.409   8.877  1.4071  0.8911  1.8520
   87SAPS  H16S 8349   1.652   0.529   8.985 -0.3660  0.1914  0.4999
   87SAPS  C217 8350   1.516   0.385   8.881  0.7700 -0.4102 -0.3051
   87SAPS  H17R 8351   1.502   0.275   8.882  0.0452 -0.3115  0.5909
   87SAPS  H17S 8352   1.518   0.413   8.773 -0.2493  1.3229  0.1114
   87SAPS  C218 8353   1.396   0.448   8.945 -0.0728 -0.1120 -0.2554
   87SAPS  H18R 8354   1.416   0.557   8.952  0.8827 -0.3608  1.0110
   87SAPS  H18S 8355   1.382   0.424   9.053  1.7567  1.2253  0.2923
   87SAPS  C219 8356   1.255   0.429   8.872 -0.5905 -0.1226  0.5704
   87SAPS  H19R 8357   1.181   0.456   8.950 -1.5847 -2.3076  0.4090
   87SAPS  H19S 8358   1.256   0.324   8.835  1.5881  0.6853 -1.8508
   87SAPS  C220 8359   1.231   0.531   8.765  0.7678  0.2405 -0.4006
   87SAPS  H20R 8360   1.153   0.515   8.687  1.3921  3.3189 -1.7689
   87SAPS  H20S 8361   1.320   0.534   8.698  0.1280  2.2107 -1.2019
   87SAPS  H20T 8362   1.206   0.630   8.810 -0.3345  0.7265 -2.0430
   87SAPS   C33 8363   2.055   1.129  10.092  0.2579 -0.8091 -0.8893
   87SAPS   H3X 8364   2.161   1.143  10.122  0.0439 -3.1207  1.0372
   87SAPS   H3Y 8365   2.034   1.229  10.048 -1.1304 -1.1296 -0.9851
   87SAPS   C34 8366   2.027   1.032   9.980  0.5163 -0.0044 -0.4164
   87SAPS   H4X 8367   1.923   1.012   9.948  0.6938 -2.0724  0.2321
   87SAPS   H4Y 8368   2.060   0.935  10.021 -0.0788  0.0502  0.1933
   87SAPS   C35 8369   2.117   1.061   9.852  0.2465 -0.0697 -0.6632
   87SAPS   H5X 8370   2.208   0.997   9.856 -0.1681 -0.5732  1.2948
   87SAPS   H5Y 8371   2.162   1.163   9.853  0.5137 -0.1816 -1.0942
   87SAPS   C36 8372   2.048   1.034   9.715  0.0626  0.1700  0.0011
   87SAPS   H6X 8373   1.963   1.103   9.696  1.4082  1.8103 -0.2744
   87SAPS   H6Y 8374   2.002   0.934   9.726 -0.9808  0.8444  2.0237
   87SAPS   C37 8375   2.145   1.033   9.597  0.1531 -0.2134 -0.4166
   87SAPS   H7X 8376   2.222   0.954   9.607  2.6400  1.9435 -1.9257
   87SAPS   H7Y 8377   2.203   1.127   9.590  1.1393 -0.6668  1.2833
   87SAPS   C38 8378   2.068   1.015   9.464 -0.1114  0.0246 -0.3883
   87SAPS   H8X 8379   1.998   1.099   9.447 -2.7953 -2.1065 -0.1698
   87SAPS   H8Y 8380   2.000   0.928   9.472  2.4379 -2.1510 -1.7435
   87SAPS   C39 8381   2.154   0.991   9.344  0.0505 -0.0175 -0.3323
   87SAPS   H9X 8382   2.225   0.910   9.371  1.6694  1.3827 -0.3102
   87SAPS   H9Y 8383   2.213   1.084   9.324 -0.5412  0.8379  1.7396
   87SAPS  C310 8384   2.072   0.965   9.220  0.0505  0.6176 -0.5401
   87SAPS  H10X 8385   2.017   1.060   9.209 -0.8881  0.2830  1.0560
   87SAPS  H10Y 8386   2.010   0.874   9.242 -1.1537  1.1894 -1.5286
   87SAPS  C311 8387   2.138   0.936   9.085 -0.1869 -0.6126  0.3200
   87SAPS  H11X 8388   2.239   0.894   9.100  2.0418  3.7977 -1.2830
   87SAPS  H11Y 8389   2.157   1.033   9.034  1.1398  1.0961  3.8630
   87SAPS  C312 8390   2.053   0.860   8.986 -0.1867  0.1230 -0.3509
   87SAPS  H12X 8391   1.962   0.920   8.961 -0.0907 -0.4064 -2.0280
   87SAPS  H12Y 8392   2.018   0.767   9.036 -1.5714  1.4903  1.2923
   87SAPS  C313 8393   2.134   0.826   8.868 -0.3804 -0.3467 -0.2550
   87SAPS  H13X 8394   2.142   0.715   8.871  0.5588 -0.2887 -0.4399
   87SAPS  H13Y 8395   2.241   0.854   8.884 -0.5559 -0.0091  0.3168
   87SAPS  C314 8396   2.088   0.887   8.740 -0.1424  0.1542  0.4332
   87SAPS  H14X 8397   2.048   0.989   8.761  0.2302  0.5188 -0.6317
   87SAPS  H14Y 8398   1.996   0.833   8.709 -1.6041  1.9304  1.5485
   87SAPS  C315 8399   2.194   0.881   8.634  0.4947 -0.8198  0.8036
   87SAPS  H15X 8400   2.217   0.775   8.608 -0.7354 -0.5006 -1.8337
   87SAPS  H15Y 8401   2.280   0.929   8.684  0.0776  1.6139 -0.7241
   87SAPS  C316 8402   2.158   0.961   8.509 -0.3173 -0.0094 -0.2481
   87SAPS  H16X 8403   2.129   1.066   8.532 -0.4462 -0.1505  0.2433
   87SAPS  H16Y 8404   2.062   0.920   8.470 -2.4234  2.0292  2.5398
   87SAPS  C317 8405   2.267   0.957   8.404  0.9056  0.7764  0.0619
   87SAPS  H17X 8406   2.298   0.862   8.356 -2.0355 -0.5801  0.7387
   87SAPS  H17Y 8407   2.367   0.993   8.436  2.2396 -0.6957 -2.3460
   87SAPS  C318 8408   2.211   1.042   8.292  0.7469  0.4479 -0.1166
   87SAPS  H18X 8409   2.178   1.146   8.310  0.5287  0.7909 -2.3971
   87SAPS  H18Y 8410   2.126   0.988   8.245  0.8908 -1.2502  1.5230
   87SAPS  H18Z 8411   2.278   1.052   8.204 -0.7501  0.6114 -1.2551
   88SAPS     N 8412   4.303   5.786  11.234 -0.3257 -0.3162 -0.0985
   88SAPS   HN1 8413   4.216   5.814  11.284  0.7735  0.1949  1.5538
   88SAPS   HN2 8414   4.274   5.805  11.136 -0.9840  2.7782  0.6484
   88SAPS   HN3 8415   4.333   5.689  11.255  1.8878  0.3047 -0.2348
   88SAPS   C12 8416   4.411   5.887  11.269  0.2766 -0.7407 -0.3365
   88SAPS  H12A 8417   4.365   5.983  11.287 -2.2253 -1.8783 -0.3979
   88SAPS   C13 8418   4.495   5.842  11.384  0.5381 -0.4816 -0.3517
   88SAPS  O13A 8419   4.476   5.733  11.453 -0.6902 -0.5659  0.6386
   88SAPS  O13B 8420   4.564   5.942  11.433  0.1310  0.4799 -0.7498
   88SAPS   C11 8421   4.500   5.907  11.139  0.5400  0.0200 -0.0968
   88SAPS  H11A 8422   4.544   5.812  11.103  0.3984 -0.6641  1.4989
   88SAPS  H11B 8423   4.592   5.962  11.167  0.5365  0.0327 -0.1093
   88SAPS     P 8424   4.359   5.930  10.928 -0.2566  0.3995  0.1599
   88SAPS   O13 8425   4.234   5.864  10.983 -0.3043  0.3458 -0.2457
   88SAPS   O14 8426   4.336   6.037  10.832 -0.2013 -0.4843 -0.4517
   88SAPS   O12 8427   4.439   5.986  11.044  0.1495  0.3796 -0.1590
   88SAPS   O11 8428   4.450   5.804  10.876  0.0860 -0.5126  0.1672
   88SAPS    C1 8429   4.577   5.824  10.805  0.3536 -0.1070  0.0174
   88SAPS    HA 8430   4.649   5.871  10.875 -0.9544 -3.1328  3.5685
   88SAPS    HB 8431   4.613   5.722  10.780  0.8383  0.1619 -0.3981
   88SAPS    C2 8432   4.558   5.892  10.668  0.2501  0.2692 -0.3431
   88SAPS    HS 8433   4.551   6.001  10.688  1.7580 -0.0798  2.2228
   88SAPS   O21 8434   4.443   5.846  10.604  0.1199 -0.3213  0.7171
   88SAPS   C21 8435   4.397   5.909  10.497  0.0986 -0.5391 -0.0212
   88SAPS   O22 8436   4.432   6.020  10.460 -0.2890 -0.0627 -0.5263
   88SAPS   C22 8437   4.293   5.822  10.432  0.4254 -0.2888 -0.1324
   88SAPS   H2R 8438   4.337   5.728  10.393 -1.8849 -0.7178 -1.8199
   88SAPS   H2S 8439   4.210   5.797  10.503  0.3488  0.4614  0.0535
   88SAPS    C3 8440   4.686   5.872  10.582 -0.3850 -0.5867 -1.2362
   88SAPS    HX 8441   4.774   5.931  10.617 -0.9415 -1.0735  1.0061
   88SAPS    HY 8442   4.667   5.920  10.483  2.4094 -1.8856 -2.4526
   88SAPS   O31 8443   4.731   5.738  10.561  0.0225  0.3762 -0.1131
   88SAPS   C31 8444   4.668   5.660  10.474 -0.0832 -0.2133  0.0258
   88SAPS   O32 8445   4.567   5.691  10.417 -0.0176 -0.2067 -0.3644
   88SAPS   C32 8446   4.741   5.529  10.459 -0.1477 -0.0105 -0.4232
   88SAPS   H2X 8447   4.656   5.459  10.447  0.8065 -0.8353 -2.5471
   88SAPS   H2Y 8448   4.806   5.502  10.545 -0.0875 -0.1161 -0.5031
   88SAPS   C23 8449   4.225   5.899  10.314  0.3280 -0.4925 -0.1080
   88SAPS   H3R 8450   4.305   5.946  10.253 -1.5079 -1.5015 -3.4259
   88SAPS   H3S 8451   4.165   5.982  10.356  1.3008 -1.1489  2.6663
   88SAPS   C24 8452   4.148   5.814  10.211 -0.1425 -0.5137  0.2532
   88SAPS   H4R 8453   4.071   5.750  10.259 -1.4345 -0.6960 -2.0219
   88SAPS   H4S 8454   4.220   5.759  10.146  0.1950  1.2425 -0.8847
   88SAPS   C25 8455   4.063   5.896  10.117 -0.9216 -0.1169  0.0942
   88SAPS   H5R 8456   3.996   5.970  10.164 -0.5846 -0.3252  0.9196
   88SAPS   C26 8457   4.040   5.883   9.984 -0.3857 -0.1042  0.6637
   88SAPS   H6R 8458   3.974   5.954   9.933  0.5195 -0.4619 -1.0381
   88SAPS   C27 8459   4.099   5.771   9.898  0.0607  0.1147  0.0602
   88SAPS   H7R 8460   4.025   5.733   9.825  0.1519 -0.4468  0.2566
   88SAPS   H7S 8461   4.125   5.680   9.956 -1.5550 -0.5170 -0.1897
   88SAPS   C28 8462   4.226   5.820   9.823 -0.4967  0.7620  0.3923
   88SAPS   H8R 8463   4.314   5.818   9.888 -0.9306 -1.1061  0.9473
   88SAPS   C29 8464   4.238   5.822   9.689 -0.3286 -0.9531 -0.2042
   88SAPS   H9R 8465   4.328   5.866   9.644  0.0302 -1.1334  0.3436
   88SAPS  C210 8466   4.128   5.795   9.590  0.1196 -0.6487 -0.7102
   88SAPS  H10R 8467   4.026   5.791   9.634  1.0687  0.9824  1.7272
   88SAPS  H10S 8468   4.159   5.698   9.544  1.8849 -1.0637  1.2462
   88SAPS  C211 8469   4.113   5.897   9.480  0.2761  0.1777  0.1979
   88SAPS  H11R 8470   4.106   6.001   9.512 -3.2687  0.4170 -1.1522
   88SAPS  C212 8471   4.086   5.863   9.350 -0.9372 -0.7058  0.0030
   88SAPS  H12R 8472   4.086   5.944   9.275  2.0624  0.5217  1.2567
   88SAPS  C213 8473   4.081   5.720   9.284 -0.3126  0.3685 -0.2843
   88SAPS  H13R 8474   3.990   5.709   9.222 -1.0975  0.4102  0.8294
   88SAPS  H13S 8475   4.067   5.640   9.360 -3.7921  1.7940  0.6659
   88SAPS  C214 8476   4.202   5.691   9.206 -0.3063  0.6493  0.2882
   88SAPS  H14R 8477   4.295   5.711   9.260 -0.7705 -3.3000  2.7073
   88SAPS  C215 8478   4.210   5.631   9.085 -0.1293 -0.4271 -0.0513
   88SAPS  H15R 8479   4.307   5.639   9.033  1.5655 -3.4770  2.5047
   88SAPS  C216 8480   4.098   5.589   8.995  0.0858 -1.0960  0.1030
   88SAPS  H16R 8481   4.089   5.658   8.909 -2.3808  0.0797  1.2353
   88SAPS  H16S 8482   4.000   5.600   9.047  0.1735 -0.6710  0.1817
   88SAPS  C217 8483   4.119   5.443   8.975  0.5622  0.2118 -0.0103
   88SAPS  H17R 8484   4.020   5.393   8.962 -0.0122  1.4638 -0.5277
   88SAPS  H17S 8485   4.141   5.393   9.072  2.3735  0.7265 -0.1488
   88SAPS  C218 8486   4.227   5.403   8.874 -0.6199 -0.7065  0.5968
   88SAPS  H18R 8487   4.328   5.428   8.912  0.3531 -1.0858 -1.6586
   88SAPS  H18S 8488   4.215   5.450   8.774  1.2530 -0.5280  0.4475
   88SAPS  C219 8489   4.229   5.255   8.848  0.7115  0.0443  0.5796
   88SAPS  H19R 8490   4.136   5.208   8.811  1.6205  0.4343 -2.3444
   88SAPS  H19S 8491   4.246   5.224   8.954 -1.2377  0.8707  1.1553
   88SAPS  C220 8492   4.357   5.201   8.777  1.3536  0.6830  0.1652
   88SAPS  H20R 8493   4.341   5.193   8.668  0.2732 -2.0133  0.4933
   88SAPS  H20S 8494   4.390   5.107   8.826 -0.8665  0.9153  2.1853
   88SAPS  H20T 8495   4.430   5.283   8.798 -0.0263  1.8561  0.4471
   88SAPS   C33 8496   4.820   5.534  10.328 -0.6147 -0.0446 -0.7603
   88SAPS   H3X 8497   4.903   5.608  10.329 -1.1736  0.5929  1.8067
   88SAPS   H3Y 8498   4.748   5.546  10.245 -2.0121  2.1619  0.7082
   88SAPS   C34 8499   4.884   5.391  10.301  0.4948 -0.2448 -0.5277
   88SAPS   H4X 8500   4.801   5.319  10.318  0.9404 -0.7139 -0.3552
   88SAPS   H4Y 8501   4.957   5.387  10.385  1.2073  3.1876 -0.9169
   88SAPS   C35 8502   4.943   5.376  10.161 -0.0089 -0.5523 -0.3697
   88SAPS   H5X 8503   4.981   5.271  10.158  0.4639 -0.3710 -0.7730
   88SAPS   H5Y 8504   5.031   5.444  10.163 -1.5310  1.4411  0.6939
   88SAPS   C36 8505   4.850   5.401  10.043 -0.5283 -0.4313  0.1207
   88SAPS   H6X 8506   4.798   5.498  10.050  1.4027  0.5832  0.9420
   88SAPS   H6Y 8507   4.763   5.338  10.070 -2.1785  1.0580 -1.6271
   88SAPS   C37 8508   4.909   5.375   9.901  0.6549 -0.1861  0.3200
   88SAPS   H7X 8509   4.825   5.367   9.829  1.5990 -1.6797 -0.6225
   88SAPS   H7Y 8510   4.952   5.273   9.905  0.8914 -0.1910 -1.7264
   88SAPS   C38 8511   5.006   5.485   9.859 -0.3244  0.0778 -0.4319
   88SAPS   H8X 8512   5.083   5.498   9.939 -0.5003 -0.8249 -0.1210
   88SAPS   H8Y 8513   4.949   5.581   9.859 -2.0284 -0.9325 -1.5578
   88SAPS   C39 8514   5.076   5.459   9.727  0.0268 -0.3126  0.5273
   88SAPS   H9X 8515   5.051   5.355   9.699  1.1423 -0.5299  0.3114
   88SAPS   H9Y 8516   5.186   5.453   9.743 -0.3012  0.2320  3.2692
   88SAPS  C310 8517   5.049   5.558   9.616  0.3329 -0.0888 -0.1186
   88SAPS  H10X 8518   5.090   5.657   9.642 -0.3554  0.3370 -0.6352
   88SAPS  H10Y 8519   4.939   5.575   9.609  0.6031  2.2983  0.9130
   88SAPS  C311 8520   5.099   5.521   9.476 -0.5526 -0.2154 -0.3801
   88SAPS  H11X 8521   5.048   5.430   9.437  0.9607 -0.1695 -2.5701
   88SAPS  H11Y 8522   5.207   5.498   9.477 -0.4051  0.4954  0.9128
   88SAPS  C312 8523   5.072   5.635   9.373  0.4388  0.2354  0.2296
   88SAPS  H12X 8524   5.117   5.731   9.404 -4.7891  2.6039  1.0991
   88SAPS  H12Y 8525   4.963   5.654   9.357  0.7484 -0.7428 -3.5796
   88SAPS  C313 8526   5.129   5.599   9.231 -0.0600  0.5740 -0.2883
   88SAPS  H13X 8527   5.132   5.489   9.214 -1.6842  0.8309 -2.4038
   88SAPS  H13Y 8528   5.231   5.641   9.234  0.6186 -1.0735  0.5952
   88SAPS  C314 8529   5.075   5.673   9.104 -0.0856 -0.1936 -0.0337
   88SAPS  H14X 8530   5.098   5.782   9.107  0.0911 -0.1448 -2.2816
   88SAPS  H14Y 8531   4.965   5.653   9.105 -0.1949  0.2740 -1.3970
   88SAPS  C315 8532   5.120   5.618   8.974 -0.3184 -0.2230 -0.8516
   88SAPS  H15X 8533   5.083   5.516   8.953  1.1929 -0.5531 -2.0131
   88SAPS  H15Y 8534   5.231   5.622   8.979 -0.3243  1.7979 -1.9110
   88SAPS  C316 8535   5.082   5.723   8.865 -0.4850 -0.1686 -0.3531
   88SAPS  H16X 8536   5.130   5.818   8.895  3.3929 -1.5591 -1.9050
   88SAPS  H16Y 8537   4.971   5.738   8.868 -0.6196 -0.9242 -1.3544
   88SAPS  C317 8538   5.138   5.682   8.728  0.3496  0.3126  0.1006
   88SAPS  H17X 8539   5.098   5.581   8.706 -1.4516  0.6975  1.4599
   88SAPS  H17Y 8540   5.249   5.682   8.724  0.3337 -1.5929 -0.6391
   88SAPS  C318 8541   5.084   5.789   8.634  0.0111  0.2090 -0.1294
   88SAPS  H18X 8542   5.124   5.890   8.657  0.6861 -0.4004  1.4345
   88SAPS  H18Y 8543   4.975   5.804   8.646 -0.0193  1.3346 -1.7450
   88SAPS  H18Z 8544   5.105   5.758   8.529  1.5467  1.1210 -0.1153
   89SAPS     N 8545   3.593   2.592  10.754 -0.0414 -0.5505 -0.1050
   89SAPS   HN1 8546   3.627   2.681  10.797  1.8861 -1.5963  0.5878
   89SAPS   HN2 8547   3.637   2.577  10.661  0.4673  0.5699 -0.0523
   89SAPS   HN3 8548   3.489   2.600  10.751 -0.0707 -0.2594  1.2214
   89SAPS   C12 8549   3.636   2.477  10.849 -0.0342  0.1535 -0.0234
   89SAPS  H12A 8550   3.733   2.445  10.815 -1.3541 -3.0546 -0.9813
   89SAPS   C13 8551   3.635   2.498  11.003  0.0157 -0.0227 -0.9400
   89SAPS  O13A 8552   3.620   2.613  11.055  0.0323  0.1920  0.1715
   89SAPS  O13B 8553   3.686   2.401  11.067  0.1546  0.0713 -0.5662
   89SAPS   C11 8554   3.545   2.357  10.822  0.4513  0.1208 -0.6699
   89SAPS  H11A 8555   3.439   2.388  10.812  0.5282  0.9520  0.9230
   89SAPS  H11B 8556   3.557   2.283  10.904  0.6630 -1.1716 -1.8451
   89SAPS     P 8557   3.665   2.174  10.671 -0.2554 -0.4100 -0.1304
   89SAPS   O13 8558   3.803   2.206  10.724  0.0772  0.4003 -0.0693
   89SAPS   O14 8559   3.599   2.056  10.738  0.7689  0.0659 -0.1345
   89SAPS   O12 8560   3.570   2.303  10.690  0.3685 -0.5428 -0.0484
   89SAPS   O11 8561   3.668   2.150  10.519 -0.0384 -0.2389 -0.2624
   89SAPS    C1 8562   3.687   2.263  10.428  0.1266 -0.3900  0.8454
   89SAPS    HA 8563   3.594   2.292  10.373  1.2208  0.3519 -0.6651
   89SAPS    HB 8564   3.716   2.357  10.479 -2.3006  1.4514 -1.0547
   89SAPS    C2 8565   3.802   2.236  10.324  0.0966 -0.7003  0.6146
   89SAPS    HS 8566   3.789   2.295  10.230 -0.4065  0.7635  1.5764
   89SAPS   O21 8567   3.804   2.103  10.289  0.5569 -0.0077  0.2960
   89SAPS   C21 8568   3.703   2.069  10.208 -0.0045 -0.8555  0.2014
   89SAPS   O22 8569   3.634   2.138  10.139  0.5659 -0.0396 -0.0112
   89SAPS   C22 8570   3.668   1.923  10.241 -0.8511  0.6481 -0.8827
   89SAPS   H2R 8571   3.677   1.899  10.349  2.0872 -0.9676 -1.4169
   89SAPS   H2S 8572   3.562   1.908  10.213 -0.5212  1.7513 -2.8415
   89SAPS    C3 8573   3.936   2.276  10.387 -0.8967 -0.1673 -0.7077
   89SAPS    HX 8574   3.973   2.196  10.454  1.6670  0.7787 -0.9445
   89SAPS    HY 8575   3.925   2.363  10.455  2.6431 -1.8248  2.1586
   89SAPS   O31 8576   4.030   2.313  10.285  0.9503  0.0121 -0.6927
   89SAPS   C31 8577   4.098   2.217  10.232  0.0350  0.0783  0.3394
   89SAPS   O32 8578   4.108   2.098  10.271 -0.5265  0.2944  0.5456
   89SAPS   C32 8579   4.146   2.262  10.095  0.9565  0.6508  0.4996
   89SAPS   H2X 8580   4.233   2.193  10.089  1.7941  1.6712  0.6692
   89SAPS   H2Y 8581   4.183   2.366  10.105 -0.5617  1.4304 -1.7300
   89SAPS   C23 8582   3.749   1.824  10.157 -0.2866  0.5129 -0.1728
   89SAPS   H3R 8583   3.858   1.820  10.180  0.0740  1.7256 -1.5596
   89SAPS   H3S 8584   3.740   1.857  10.051 -1.2149  0.5113 -0.0918
   89SAPS   C24 8585   3.687   1.682  10.165  0.8489  0.1125 -0.1354
   89SAPS   H4R 8586   3.693   1.627  10.068 -2.6238  0.0807 -0.3863
   89SAPS   H4S 8587   3.577   1.685  10.180  0.7145  0.1317 -1.0864
   89SAPS   C25 8588   3.752   1.598  10.273 -0.0780  0.2293 -0.2240
   89SAPS   H5R 8589   3.825   1.655  10.331 -0.8770  2.9415 -1.7862
   89SAPS   C26 8590   3.744   1.463  10.275  0.1750 -0.4248 -0.3300
   89SAPS   H6R 8591   3.806   1.410  10.350 -1.4574 -0.9846  0.6473
   89SAPS   C27 8592   3.673   1.372  10.177 -0.1665 -0.4727 -0.0293
   89SAPS   H7R 8593   3.631   1.435  10.095 -1.5741 -0.6697  0.5263
   89SAPS   H7S 8594   3.587   1.345  10.242  0.4139  1.6305  1.6650
   89SAPS   C28 8595   3.743   1.239  10.138 -0.0735 -0.2197 -0.4035
   89SAPS   H8R 8596   3.797   1.200  10.226 -1.2364  0.1620  0.5009
   89SAPS   C29 8597   3.754   1.174  10.020 -0.3001 -0.1245 -0.2181
   89SAPS   H9R 8598   3.809   1.079  10.025  2.7639  1.5884 -0.3866
   89SAPS  C210 8599   3.690   1.223   9.889  0.8559 -0.4591  0.3970
   89SAPS  H10R 8600   3.774   1.222   9.815  0.1910  1.7621 -0.4381
   89SAPS  H10S 8601   3.644   1.324   9.893  1.8544  0.2460 -3.2621
   89SAPS  C211 8602   3.583   1.117   9.855 -1.2770 -0.2855 -0.5296
   89SAPS  H11R 8603   3.521   1.094   9.943  1.3526  0.7108  1.6432
   89SAPS  C212 8604   3.549   1.071   9.732 -0.1412  1.0577 -0.1733
   89SAPS  H12R 8605   3.465   1.001   9.722  0.1944  0.9142 -2.2455
   89SAPS  C213 8606   3.604   1.102   9.596 -0.8711 -0.2302  0.0717
   89SAPS  H13R 8607   3.708   1.141   9.610 -0.9396  0.0459 -0.1630
   89SAPS  H13S 8608   3.554   1.190   9.550  0.2440  0.4363  0.0915
   89SAPS  C214 8609   3.605   0.986   9.497  0.5994 -0.0315  0.0623
   89SAPS  H14R 8610   3.579   0.885   9.533 -2.5233  0.7918  0.2930
   89SAPS  C215 8611   3.623   0.997   9.364 -0.1837  0.2327 -0.8467
   89SAPS  H15R 8612   3.635   0.902   9.311  1.6013  0.3019 -0.5990
   89SAPS  C216 8613   3.643   1.123   9.282  0.0469  0.7915 -0.6839
   89SAPS  H16R 8614   3.730   1.118   9.214 -0.8201 -0.1465 -1.7476
   89SAPS  H16S 8615   3.654   1.213   9.347 -1.8269  1.1692 -0.8680
   89SAPS  C217 8616   3.522   1.148   9.194 -0.1915  0.0321 -0.5725
   89SAPS  H17R 8617   3.428   1.165   9.251 -0.6118 -0.1142 -1.2092
   89SAPS  H17S 8618   3.521   1.062   9.123  1.4181  0.9648 -1.7763
   89SAPS  C218 8619   3.551   1.269   9.100 -0.0753  0.4180 -0.5538
   89SAPS  H18R 8620   3.641   1.236   9.043  0.5025 -5.8329  3.5111
   89SAPS  H18S 8621   3.586   1.353   9.164  0.2423  1.8690 -2.5840
   89SAPS  C219 8622   3.429   1.313   9.020 -0.3543 -0.1245  0.2813
   89SAPS  H19R 8623   3.452   1.410   8.972  0.9156 -0.9168 -0.7444
   89SAPS  H19S 8624   3.349   1.335   9.094 -0.4308 -1.2110  0.5336
   89SAPS  C220 8625   3.385   1.223   8.909 -0.1975  0.1618 -0.6186
   89SAPS  H20R 8626   3.357   1.123   8.948 -1.4950  1.0112  0.6731
   89SAPS  H20S 8627   3.472   1.192   8.848 -3.2191 -4.4297 -2.8588
   89SAPS  H20T 8628   3.311   1.249   8.831 -0.3071 -2.0580 -1.2714
   89SAPS   C33 8629   4.022   2.244  10.000 -0.7505  0.5129  0.2305
   89SAPS   H3X 8630   4.060   2.276   9.901 -3.2174  0.9778 -0.6104
   89SAPS   H3Y 8631   3.941   2.314  10.031 -0.6873  1.1544 -1.0296
   89SAPS   C34 8632   3.978   2.104   9.968  0.1763  0.3222 -0.3165
   89SAPS   H4X 8633   3.958   2.048  10.061  0.0678 -0.1665 -0.6319
   89SAPS   H4Y 8634   4.050   2.049   9.904 -0.1605 -0.5199  0.0268
   89SAPS   C35 8635   3.850   2.124   9.882  0.0079  0.0882 -0.2746
   89SAPS   H5X 8636   3.774   2.192   9.927  1.0688 -0.0629  1.7955
   89SAPS   H5Y 8637   3.795   2.028   9.893 -0.2506  0.2373 -0.2502
   89SAPS   C36 8638   3.882   2.126   9.732  0.4511  0.1412  0.1200
   89SAPS   H6X 8639   3.965   2.061   9.697  1.8849  1.6451  0.6232
   89SAPS   H6Y 8640   3.919   2.230   9.717 -2.0468  1.1286  0.4966
   89SAPS   C37 8641   3.765   2.111   9.632 -0.1717 -0.0818 -0.0177
   89SAPS   H7X 8642   3.678   2.177   9.653 -0.2597  0.4506 -1.8992
   89SAPS   H7Y 8643   3.727   2.007   9.644 -0.6265  0.3080  2.1016
   89SAPS   C38 8644   3.806   2.121   9.486 -1.0945 -0.4978  0.1707
   89SAPS   H8X 8645   3.903   2.068   9.477 -0.0029  1.4218  0.3820
   89SAPS   H8Y 8646   3.822   2.227   9.459 -1.4665 -0.2681  0.8464
   89SAPS   C39 8647   3.696   2.087   9.383 -0.2509 -0.1193  0.1037
   89SAPS   H9X 8648   3.599   2.132   9.414 -0.0176  0.3385  0.1748
   89SAPS   H9Y 8649   3.679   1.977   9.377 -1.3590  0.1560 -2.4935
   89SAPS  C310 8650   3.715   2.134   9.233 -0.0364 -0.1172  0.1774
   89SAPS  H10X 8651   3.744   2.241   9.222  2.0852 -0.7578 -0.7265
   89SAPS  H10Y 8652   3.617   2.114   9.184  0.3773 -0.3980 -0.5465
   89SAPS  C311 8653   3.821   2.048   9.172  0.6442 -0.0510  0.1265
   89SAPS  H11X 8654   3.789   1.942   9.184 -1.9861  0.8355  1.3377
   89SAPS  H11Y 8655   3.922   2.054   9.218  0.0052  1.5321  1.3669
   89SAPS  C312 8656   3.820   2.066   9.023 -0.4920  0.4394 -0.2635
   89SAPS  H12X 8657   3.875   2.159   8.999 -0.0384 -0.0321 -1.0585
   89SAPS  H12Y 8658   3.716   2.068   8.983 -1.1307 -2.2668  1.1747
   89SAPS  C313 8659   3.883   1.963   8.926 -0.0817  0.2944 -0.3749
   89SAPS  H13X 8660   3.841   1.864   8.951 -0.5104  0.7231  0.6220
   89SAPS  H13Y 8661   3.987   1.956   8.966  0.2690 -1.5104 -1.5482
   89SAPS  C314 8662   3.889   2.019   8.782  0.2345 -0.2532  0.3474
   89SAPS  H14X 8663   3.927   2.123   8.782 -3.5041  1.2052  0.7398
   89SAPS  H14Y 8664   3.783   2.021   8.748  0.3932 -2.9317 -0.4944
   89SAPS  C315 8665   3.988   1.934   8.692  0.4145  0.1779  0.0762
   89SAPS  H15X 8666   3.934   1.853   8.639 -0.5839  0.7603  0.1932
   89SAPS  H15Y 8667   4.056   1.882   8.764 -1.8144 -0.3657  1.8504
   89SAPS  C316 8668   4.060   2.018   8.594 -0.1450 -0.4610 -0.0055
   89SAPS  H16X 8669   4.122   2.093   8.646  2.1892 -0.6592 -2.4193
   89SAPS  H16Y 8670   3.980   2.066   8.533  0.9333 -1.0059 -1.8917
   89SAPS  C317 8671   4.163   1.938   8.507  0.6974  0.4754 -0.4696
   89SAPS  H17X 8672   4.215   1.875   8.583  0.9929  0.2906 -0.8199
   89SAPS  H17Y 8673   4.230   2.007   8.450 -0.0613  1.4262 -0.2267
   89SAPS  C318 8674   4.096   1.839   8.407 -0.1313  0.4343  0.0643
   89SAPS  H18X 8675   4.180   1.794   8.349 -0.6637 -1.6919  0.8914
   89SAPS  H18Y 8676   4.024   1.895   8.344 -2.5496 -1.6486  0.8743
   89SAPS  H18Z 8677   4.045   1.751   8.451  0.6894  0.7394  1.6649
   90SAPS     N 8678   6.175   1.486  10.615  0.0983 -0.4916 -0.2655
   90SAPS   HN1 8679   6.242   1.530  10.548 -1.5600  1.1968 -0.8513
   90SAPS   HN2 8680   6.075   1.495  10.587 -0.4674  1.5897  2.2552
   90SAPS   HN3 8681   6.194   1.537  10.704  1.4301  0.0107 -0.8327
   90SAPS   C12 8682   6.216   1.351  10.609 -0.1759  1.0415  0.2587
   90SAPS  H12A 8683   6.317   1.345  10.573  0.8937  0.0089  3.3258
   90SAPS   C13 8684   6.206   1.265  10.734  0.7776 -0.3077 -0.6843
   90SAPS  O13A 8685   6.175   1.318  10.846  0.4409  0.1418  0.6427
   90SAPS  O13B 8686   6.249   1.143  10.738 -0.0608  0.1804  0.8680
   90SAPS   C11 8687   6.129   1.281  10.508 -0.0740 -0.1513 -0.0851
   90SAPS  H11A 8688   6.147   1.172  10.496 -0.5442 -0.1458 -0.8906
   90SAPS  H11B 8689   6.149   1.328  10.409  0.7690  0.4109  0.3526
   90SAPS     P 8690   5.867   1.239  10.461 -0.1375 -0.2283 -0.2327
   90SAPS   O13 8691   5.836   1.121  10.540 -0.1250  0.1519  0.0378
   90SAPS   O14 8692   5.758   1.335  10.457  0.0665  0.1511  0.1433
   90SAPS   O12 8693   5.992   1.310  10.527 -0.1286 -0.1969 -0.2501
   90SAPS   O11 8694   5.916   1.192  10.323 -0.5191 -0.6201 -0.0923
   90SAPS    C1 8695   5.861   1.225  10.200  0.4749  0.0555  0.3375
   90SAPS    HA 8696   5.817   1.327  10.197  0.3725  0.0916  2.1530
   90SAPS    HB 8697   5.944   1.218  10.127  0.1435  0.5000 -0.0841
   90SAPS    C2 8698   5.745   1.116  10.159 -0.1933  1.0533  0.1668
   90SAPS    HS 8699   5.655   1.131  10.221 -0.5556 -1.2046  0.2255
   90SAPS   O21 8700   5.811   0.990  10.164 -0.2383 -0.1085  0.9358
   90SAPS   C21 8701   5.731   0.884  10.172 -0.1200  0.2678 -0.4799
   90SAPS   O22 8702   5.611   0.885  10.168 -0.1635 -0.1885  0.1157
   90SAPS   C22 8703   5.814   0.758  10.198 -0.3587  0.1849  0.4571
   90SAPS   H2R 8704   5.920   0.791  10.208 -0.1564  0.0941 -1.1480
   90SAPS   H2S 8705   5.792   0.724  10.301 -0.9838  0.7363  0.5106
   90SAPS    C3 8706   5.706   1.148  10.009 -0.0127 -0.4136  0.0791
   90SAPS    HX 8707   5.639   1.071   9.963 -0.2805 -0.4750  0.5714
   90SAPS    HY 8708   5.798   1.135   9.948 -2.1531  1.8516 -3.8614
   90SAPS   O31 8709   5.669   1.283   9.998 -0.3940 -0.0641  0.2445
   90SAPS   C31 8710   5.540   1.308   9.987 -0.4461  0.0339  0.1671
   90SAPS   O32 8711   5.451   1.224   9.957  0.0411  0.7920 -0.1057
   90SAPS   C32 8712   5.523   1.464  10.011  0.4897 -0.3449  0.2642
   90SAPS   H2X 8713   5.621   1.509  10.041  0.0997  1.4361 -1.0941
   90SAPS   H2Y 8714   5.463   1.482  10.103  2.0124  1.9597  0.8473
   90SAPS   C23 8715   5.796   0.655  10.089  0.7289  0.9940  0.5581
   90SAPS   H3R 8716   5.688   0.631  10.088  1.0401 -0.4373 -0.9958
   90SAPS   H3S 8717   5.848   0.559  10.113  0.6994  1.2994  1.8883
   90SAPS   C24 8718   5.861   0.703   9.957 -0.2151  0.5631  0.7786
   90SAPS   H4R 8719   5.971   0.704   9.970  0.4154 -0.8974 -3.5866
   90SAPS   H4S 8720   5.836   0.808   9.935 -0.9068  0.5125  1.3189
   90SAPS   C25 8721   5.833   0.612   9.841 -0.6997  0.0403  0.8103
   90SAPS   H5R 8722   5.860   0.507   9.857 -0.1455 -0.0804 -0.8671
   90SAPS   C26 8723   5.763   0.642   9.731 -0.3995 -0.0062  0.4794
   90SAPS   H6R 8724   5.757   0.567   9.651  0.1164 -0.8021  1.1768
   90SAPS   C27 8725   5.704   0.777   9.708  0.0246 -0.1194 -0.2741
   90SAPS   H7R 8726   5.668   0.772   9.603  0.5364 -1.2936 -0.4067
   90SAPS   H7S 8727   5.782   0.855   9.704 -2.8449  2.8688 -0.1121
   90SAPS   C28 8728   5.586   0.820   9.791 -0.3463 -0.4394  0.7925
   90SAPS   H8R 8729   5.566   0.752   9.875  0.4939 -0.9587  0.5728
   90SAPS   C29 8730   5.493   0.922   9.785  0.0090  0.2111  0.6031
   90SAPS   H9R 8731   5.416   0.936   9.862  0.0419  0.3538  0.6107
   90SAPS  C210 8732   5.497   1.024   9.683  0.2678 -0.4820 -0.7298
   90SAPS  H10R 8733   5.590   1.012   9.623  0.7248  0.3244 -0.1865
   90SAPS  H10S 8734   5.506   1.127   9.723  1.5338 -0.4813 -0.9830
   90SAPS  C211 8735   5.376   1.016   9.590  0.0120  0.0862  0.0763
   90SAPS  H11R 8736   5.289   0.961   9.630  0.4954 -1.1148 -0.4845
   90SAPS  C212 8737   5.368   1.069   9.465  0.6204 -0.3114 -0.1507
   90SAPS  H12R 8738   5.287   1.030   9.402 -1.1074 -1.3180  2.5889
   90SAPS  C213 8739   5.490   1.141   9.407 -0.1538 -0.5088  0.2432
   90SAPS  H13R 8740   5.544   1.192   9.490  1.8809 -1.8423 -0.2224
   90SAPS  H13S 8741   5.447   1.230   9.355 -0.9743 -1.3196 -0.4959
   90SAPS  C214 8742   5.591   1.055   9.333  0.2883 -0.0778  0.3826
   90SAPS  H14R 8743   5.631   0.983   9.406 -0.4061  0.3858  1.2422
   90SAPS  C215 8744   5.625   1.054   9.203 -0.3816 -0.2081  0.5188
   90SAPS  H15R 8745   5.694   0.978   9.163  1.3950  1.9308 -0.5314
   90SAPS  C216 8746   5.578   1.156   9.105  0.1723  0.1185  0.1652
   90SAPS  H16R 8747   5.624   1.253   9.133  1.1221 -0.1717 -0.3671
   90SAPS  H16S 8748   5.468   1.166   9.104  0.1203 -0.4716 -1.5332
   90SAPS  C217 8749   5.629   1.115   8.970  0.1496 -0.4692 -0.5453
   90SAPS  H17R 8750   5.586   1.018   8.938  0.9659 -0.4512 -1.7477
   90SAPS  H17S 8751   5.740   1.102   8.967  0.0792 -1.0542 -0.5999
   90SAPS  C218 8752   5.585   1.207   8.861 -0.0558  0.2439  0.2078
   90SAPS  H18R 8753   5.637   1.303   8.886  0.7922  0.1969 -1.2765
   90SAPS  H18S 8754   5.475   1.210   8.869  0.0279 -0.0519  1.5848
   90SAPS  C219 8755   5.641   1.159   8.718 -0.3158  0.4035  0.1049
   90SAPS  H19R 8756   5.745   1.137   8.753 -0.4149  1.3386  0.9862
   90SAPS  H19S 8757   5.645   1.244   8.647  1.0779 -0.6419 -1.0995
   90SAPS  C220 8758   5.564   1.039   8.658 -0.3265  0.0686 -0.1885
   90SAPS  H20R 8759   5.611   1.021   8.559  1.1619 -1.4024  0.7653
   90SAPS  H20S 8760   5.455   1.060   8.643 -0.7346 -0.8127  1.4373
   90SAPS  H20T 8761   5.581   0.950   8.723  4.9385 -0.9652 -2.6953
   90SAPS   C33 8762   5.456   1.528   9.899 -0.2567  0.8521  0.4471
   90SAPS   H3X 8763   5.449   1.639   9.912 -3.9629  0.5187  1.7287
   90SAPS   H3Y 8764   5.354   1.487   9.884 -0.3017  1.4656 -0.9972
   90SAPS   C34 8765   5.536   1.504   9.769 -0.3728  0.8538 -0.1177
   90SAPS   H4X 8766   5.552   1.396   9.748 -2.4561  0.8164 -1.6793
   90SAPS   H4Y 8767   5.642   1.531   9.790 -0.8665  1.4779  1.6840
   90SAPS   C35 8768   5.481   1.583   9.649  0.1089 -0.0173  0.0706
   90SAPS   H5X 8769   5.525   1.685   9.653 -0.9783  0.4736 -0.3849
   90SAPS   H5Y 8770   5.370   1.585   9.643  0.1125  0.6023  0.1298
   90SAPS   C36 8771   5.535   1.521   9.516  0.6654  0.2806 -0.0887
   90SAPS   H6X 8772   5.509   1.413   9.515  0.1322  0.4024 -2.2163
   90SAPS   H6Y 8773   5.645   1.515   9.506  0.3341 -0.9214 -3.9867
   90SAPS   C37 8774   5.479   1.596   9.401 -0.4455  0.4946 -0.3100
   90SAPS   H7X 8775   5.492   1.705   9.416  0.8823  0.2227  0.5795
   90SAPS   H7Y 8776   5.369   1.582   9.393 -0.6034  1.6042 -0.1679
   90SAPS   C38 8777   5.530   1.539   9.260 -0.9099  0.0133 -0.4976
   90SAPS   H8X 8778   5.520   1.430   9.246 -0.3295 -0.5540  3.0773
   90SAPS   H8Y 8779   5.640   1.554   9.254 -0.8691 -0.6401 -1.5312
   90SAPS   C39 8780   5.471   1.618   9.151 -0.3911  0.2290  0.3280
   90SAPS   H9X 8781   5.536   1.708   9.153 -0.5836  0.4333 -1.4454
   90SAPS   H9Y 8782   5.363   1.644   9.162 -0.3911 -0.3682  1.7961
   90SAPS  C310 8783   5.503   1.552   9.007 -0.6285 -1.0400 -0.3779
   90SAPS  H10X 8784   5.469   1.446   9.010 -0.3097 -1.1179  0.5259
   90SAPS  H10Y 8785   5.611   1.554   8.981 -1.1098  0.1999 -2.3872
   90SAPS  C311 8786   5.426   1.632   8.896 -0.3911  0.4781  0.1247
   90SAPS  H11X 8787   5.495   1.720   8.894  1.0086 -0.5455  1.4346
   90SAPS  H11Y 8788   5.333   1.666   8.945 -0.2447  0.0459  0.7155
   90SAPS  C312 8789   5.404   1.562   8.759 -0.2110 -0.0320  0.7989
   90SAPS  H12X 8790   5.502   1.514   8.741 -0.3718 -1.0302  2.4790
   90SAPS  H12Y 8791   5.387   1.640   8.681 -0.7178 -2.4813 -1.6365
   90SAPS  C313 8792   5.291   1.461   8.754 -0.7123  0.2671  0.5810
   90SAPS  H13X 8793   5.202   1.502   8.807 -0.4995 -0.1477  1.2650
   90SAPS  H13Y 8794   5.315   1.362   8.798  0.3077  0.8869  1.4617
   90SAPS  C314 8795   5.244   1.438   8.606 -0.6922 -0.1942 -0.9490
   90SAPS  H14X 8796   5.212   1.536   8.565 -4.3069  0.1733  2.4134
   90SAPS  H14Y 8797   5.144   1.391   8.622 -0.2433  0.4209  4.4994
   90SAPS  C315 8798   5.340   1.363   8.516  0.4968 -0.0084 -0.1074
   90SAPS  H15X 8799   5.355   1.262   8.560  0.5427 -0.3480 -0.8984
   90SAPS  H15Y 8800   5.444   1.400   8.526  0.1921  0.4562  1.3853
   90SAPS  C316 8801   5.294   1.358   8.371 -0.5609 -0.5764 -0.9312
   90SAPS  H16X 8802   5.285   1.463   8.335  3.1044 -0.2957 -1.1959
   90SAPS  H16Y 8803   5.200   1.303   8.351  0.0570 -2.0037  0.0464
   90SAPS  C317 8804   5.399   1.297   8.272 -0.4671  0.1082  0.5270
   90SAPS  H17X 8805   5.478   1.375   8.260 -1.4093  0.7207 -1.9885
   90SAPS  H17Y 8806   5.339   1.293   8.179  0.6672 -2.9281 -0.1170
   90SAPS  C318 8807   5.460   1.161   8.310 -0.1116  0.8075 -0.6022
   90SAPS  H18X 8808   5.433   1.086   8.233 -2.6396 -1.5290  2.3892
   90SAPS  H18Y 8809   5.425   1.115   8.405 -0.7268 -1.1740 -1.7576
   90SAPS  H18Z 8810   5.571   1.166   8.318 -0.1008  0.5347 -0.5763
   91SAPS     N 8811   3.739   5.663   6.061 -0.0356  0.2730  0.3536
   91SAPS   HN1 8812   3.777   5.663   6.158  2.3761 -1.9901 -0.5464
   91SAPS   HN2 8813   3.755   5.565   6.030  1.2119  0.0349  1.7180
   91SAPS   HN3 8814   3.792   5.723   5.995  1.7401 -2.7812 -1.0572
   91SAPS   C12 8815   3.596   5.708   6.086 -0.7881  0.2334 -0.3420
   91SAPS  H12A 8816   3.572   5.769   6.001  1.6176  0.3840 -0.9650
   91SAPS   C13 8817   3.487   5.599   6.080  0.7406 -0.4873  0.0248
   91SAPS  O13A 8818   3.519   5.477   6.065 -0.4493 -0.3032 -0.2779
   91SAPS  O13B 8819   3.364   5.631   6.078 -0.4875  0.0287  0.0462
   91SAPS   C11 8820   3.586   5.810   6.203 -0.0517  1.1509  0.6835
   91SAPS  H11A 8821   3.603   5.741   6.288 -2.4388 -0.4612 -0.0890
   91SAPS  H11B 8822   3.483   5.850   6.211  0.1428  2.1013 -1.1163
   91SAPS     P 8823   3.809   5.918   6.277  0.3827  0.0052 -0.4190
   91SAPS   O13 8824   3.888   5.805   6.241 -0.3073 -0.8804  0.0838
   91SAPS   O14 8825   3.871   6.053   6.266  0.1665  0.3684 -0.1340
   91SAPS   O12 8826   3.684   5.913   6.180 -0.4145 -0.7283  1.0301
   91SAPS   O11 8827   3.737   5.892   6.416  0.2135 -0.5865 -0.3295
   91SAPS    C1 8828   3.636   5.991   6.462  0.2241 -0.2685  0.0869
   91SAPS    HA 8829   3.603   6.053   6.376  0.8695  1.1583  0.8431
   91SAPS    HB 8830   3.547   5.934   6.495 -1.9822  3.2687  0.5373
   91SAPS    C2 8831   3.690   6.087   6.565  0.4341  0.2821 -0.1891
   91SAPS    HS 8832   3.790   6.123   6.532 -0.3779  0.0631 -3.0589
   91SAPS   O21 8833   3.706   6.029   6.696  0.3205 -0.2663  0.0331
   91SAPS   C21 8834   3.795   6.071   6.782  0.9559 -0.0603 -0.6716
   91SAPS   O22 8835   3.864   6.174   6.769  0.1985  0.3255  0.3621
   91SAPS   C22 8836   3.810   5.962   6.892 -0.3697 -0.7361  0.0958
   91SAPS   H2R 8837   3.710   5.954   6.938 -2.1909  1.6458 -3.1962
   91SAPS   H2S 8838   3.832   5.871   6.832  2.4292 -2.0541  2.9663
   91SAPS    C3 8839   3.600   6.218   6.556  0.1368  0.7718 -0.1369
   91SAPS    HX 8840   3.616   6.265   6.456 -1.9117  1.5494 -0.1391
   91SAPS    HY 8841   3.636   6.289   6.634  0.4142 -1.4433  1.7993
   91SAPS   O31 8842   3.456   6.189   6.568 -0.1467 -0.1451 -0.2726
   91SAPS   C31 8843   3.416   6.174   6.692 -0.1654  0.1310  0.1750
   91SAPS   O32 8844   3.477   6.208   6.793  0.0898 -0.0519  0.1154
   91SAPS   C32 8845   3.266   6.139   6.692 -0.5258 -0.1044  0.1869
   91SAPS   H2X 8846   3.260   6.033   6.661  0.3875 -0.7761  2.2322
   91SAPS   H2Y 8847   3.215   6.197   6.612 -1.7296 -0.0526  0.9718
   91SAPS   C23 8848   3.927   5.981   6.998 -0.0895 -0.0046 -0.1269
   91SAPS   H3R 8849   4.015   6.017   6.941 -1.7219  1.0837 -2.0256
   91SAPS   H3S 8850   3.961   5.884   7.042 -1.0322 -0.6581 -0.8337
   91SAPS   C24 8851   3.893   6.084   7.108  0.4856 -0.3493  0.6786
   91SAPS   H4R 8852   3.834   6.162   7.055  0.3477 -1.2900 -0.5779
   91SAPS   H4S 8853   3.980   6.124   7.163  0.3994  1.7574 -0.6429
   91SAPS   C25 8854   3.820   6.013   7.215 -0.9828  0.9208  0.5362
   91SAPS   H5R 8855   3.745   5.938   7.189 -0.7643  0.9264 -0.1321
   91SAPS   C26 8856   3.839   6.022   7.345  0.5284 -0.2814 -0.1627
   91SAPS   H6R 8857   3.784   5.947   7.404 -1.4694  0.6831 -0.7574
   91SAPS   C27 8858   3.933   6.109   7.425 -0.3464 -0.6061 -0.0672
   91SAPS   H7R 8859   4.002   6.162   7.357  0.1167 -0.8745  0.1844
   91SAPS   H7S 8860   3.993   6.050   7.498  0.6407 -0.9762 -1.1621
   91SAPS   C28 8861   3.845   6.206   7.506 -0.4203  0.1511  0.1562
   91SAPS   H8R 8862   3.775   6.268   7.448 -0.6452  1.0010  1.3266
   91SAPS   C29 8863   3.840   6.214   7.642  0.3020  0.1465  0.8234
   91SAPS   H9R 8864   3.770   6.289   7.681  0.4227  0.4900  0.3855
   91SAPS  C210 8865   3.919   6.139   7.754  0.4662  0.5413  0.3744
   91SAPS  H10R 8866   3.985   6.215   7.801 -0.6451  0.9898  1.2283
   91SAPS  H10S 8867   3.988   6.064   7.710  0.3290  1.1048 -0.7992
   91SAPS  C211 8868   3.820   6.064   7.844 -0.4660  0.3375 -0.0132
   91SAPS  H11R 8869   3.752   5.993   7.795 -2.1454  1.8457  0.1106
   91SAPS  C212 8870   3.788   6.090   7.972 -0.3133  0.2875 -0.3346
   91SAPS  H12R 8871   3.715   6.037   8.036  1.1930 -0.8448  0.4804
   91SAPS  C213 8872   3.851   6.200   8.056 -0.2795 -0.2626 -0.1557
   91SAPS  H13R 8873   3.780   6.243   8.129 -0.8621  2.4218 -2.1959
   91SAPS  H13S 8874   3.852   6.289   7.989 -2.0632 -0.1232  0.0012
   91SAPS  C214 8875   4.001   6.172   8.098 -0.2100 -0.7102  0.0803
   91SAPS  H14R 8876   4.059   6.124   8.018 -2.3476 -4.1944  0.5267
   91SAPS  C215 8877   4.054   6.199   8.218 -0.9321  0.2363  0.1767
   91SAPS  H15R 8878   4.151   6.156   8.246 -0.5852  1.7653  1.3903
   91SAPS  C216 8879   3.998   6.269   8.334  0.3582  0.0372 -0.4562
   91SAPS  H16R 8880   3.961   6.201   8.414  0.7747  0.2594 -0.0676
   91SAPS  H16S 8881   3.901   6.315   8.307  1.4542  3.6310  1.3526
   91SAPS  C217 8882   4.082   6.376   8.411 -0.8755 -0.1876 -0.6814
   91SAPS  H17R 8883   4.168   6.313   8.445 -2.6232 -1.7308  1.0256
   91SAPS  H17S 8884   4.025   6.404   8.503 -0.2693 -0.0311 -0.3481
   91SAPS  C218 8885   4.144   6.501   8.335 -0.0259  0.1997 -0.2074
   91SAPS  H18R 8886   4.201   6.472   8.244 -1.6517 -1.4621 -0.7439
   91SAPS  H18S 8887   4.210   6.540   8.416  0.7192 -1.4374 -0.0141
   91SAPS  C219 8888   4.043   6.614   8.302 -0.4779  0.2614 -0.1922
   91SAPS  H19R 8889   3.979   6.643   8.388  0.9138  0.6801  0.7128
   91SAPS  H19S 8890   3.975   6.551   8.240 -1.2175  2.3691 -1.5882
   91SAPS  C220 8891   4.099   6.731   8.223 -0.1192 -0.2205  0.4679
   91SAPS  H20R 8892   4.019   6.808   8.208 -0.4036 -0.6396 -0.1821
   91SAPS  H20S 8893   4.155   6.703   8.132  0.0562 -0.2784  0.5931
   91SAPS  H20T 8894   4.183   6.767   8.286  1.7353 -1.9970 -0.9647
   91SAPS   C33 8895   3.198   6.163   6.827  1.0663  0.8359  0.3829
   91SAPS   H3X 8896   3.213   6.265   6.868 -0.2192  1.5830 -1.0057
   91SAPS   H3Y 8897   3.258   6.099   6.897 -0.4263  0.3129  1.2007
   91SAPS   C34 8898   3.053   6.117   6.836  0.6416 -0.0779  0.2060
   91SAPS   H4X 8899   3.031   6.015   6.798 -1.0675  1.0969 -2.0677
   91SAPS   H4Y 8900   2.989   6.173   6.765  1.4347  0.3531 -0.1785
   91SAPS   C35 8901   2.985   6.113   6.972  0.4063  0.2532  1.1577
   91SAPS   H5X 8902   3.038   6.039   7.036  1.7167  0.1946  0.0166
   91SAPS   H5Y 8903   2.878   6.087   6.960  1.2339 -2.4238 -0.7991
   91SAPS   C36 8904   2.986   6.250   7.044  0.2581 -0.1021  0.3152
   91SAPS   H6X 8905   2.951   6.321   6.966 -0.6132  1.3946  2.0276
   91SAPS   H6Y 8906   3.083   6.294   7.077  0.9998 -1.3288 -0.2007
   91SAPS   C37 8907   2.887   6.268   7.160  0.2571  0.1740 -0.6695
   91SAPS   H7X 8908   2.785   6.231   7.138 -0.6636  2.2069  0.0798
   91SAPS   H7Y 8909   2.884   6.374   7.194  2.1948 -0.5584  1.9892
   91SAPS   C38 8910   2.947   6.186   7.275 -0.9681 -0.0642 -0.3326
   91SAPS   H8X 8911   3.056   6.178   7.261 -0.5220  1.3080  2.1157
   91SAPS   H8Y 8912   2.905   6.083   7.277  1.0588 -0.9061 -0.6453
   91SAPS   C39 8913   2.927   6.265   7.407  0.2082 -0.4918 -0.1753
   91SAPS   H9X 8914   2.821   6.296   7.421  0.5993 -0.0268  1.8944
   91SAPS   H9Y 8915   2.988   6.357   7.399 -0.5821  0.0369 -0.2471
   91SAPS  C310 8916   2.980   6.197   7.528  0.0193  0.4077 -0.3612
   91SAPS  H10X 8917   3.085   6.162   7.524 -0.0950  0.0849 -0.5545
   91SAPS  H10Y 8918   2.910   6.114   7.553 -0.3425  0.7052 -0.3714
   91SAPS  C311 8919   2.971   6.286   7.653  0.6097 -0.5069 -0.1000
   91SAPS  H11X 8920   2.866   6.321   7.663  1.1598  0.5101  2.5970
   91SAPS  H11Y 8921   3.027   6.380   7.633 -2.0884  0.9641 -0.8973
   91SAPS  C312 8922   3.019   6.216   7.783  0.4196  0.0605  0.9836
   91SAPS  H12X 8923   3.126   6.188   7.768  0.0842 -0.0771 -1.3142
   91SAPS  H12Y 8924   2.953   6.130   7.809 -1.1691  0.0966 -2.6923
   91SAPS  C313 8925   3.020   6.312   7.901  0.5240  0.0888  0.3192
   91SAPS  H13X 8926   3.020   6.262   8.000 -0.1456  1.5616  1.0800
   91SAPS  H13Y 8927   2.929   6.376   7.903  0.8330  0.5279  0.5747
   91SAPS  C314 8928   3.148   6.401   7.899 -0.1347 -0.7839 -0.1009
   91SAPS  H14X 8929   3.156   6.445   7.797  1.5993 -0.8742 -0.0137
   91SAPS  H14Y 8930   3.233   6.330   7.896 -1.6158 -2.7275  2.3549
   91SAPS  C315 8931   3.145   6.518   8.002 -0.0696 -0.0616  0.0777
   91SAPS  H15X 8932   3.153   6.481   8.107  0.1209 -1.1834 -0.3293
   91SAPS  H15Y 8933   3.047   6.570   7.995  0.3328  0.4806 -1.6170
   91SAPS  C316 8934   3.264   6.617   7.991  0.6243 -0.3185  0.7008
   91SAPS  H16X 8935   3.275   6.636   7.883  1.7417 -0.1539  0.8394
   91SAPS  H16Y 8936   3.354   6.556   8.018  0.6335 -0.9782 -0.7945
   91SAPS  C317 8937   3.254   6.739   8.083 -0.0112 -0.2147  0.3008
   91SAPS  H17X 8938   3.155   6.788   8.076  0.7169  1.1839 -0.5157
   91SAPS  H17Y 8939   3.328   6.818   8.059 -1.5514  0.9024 -0.8022
   91SAPS  C318 8940   3.280   6.692   8.226 -0.2373 -0.0151  0.0814
   91SAPS  H18X 8941   3.190   6.645   8.271 -0.4154 -0.6270 -0.9061
   91SAPS  H18Y 8942   3.308   6.786   8.279  1.8499 -1.1502  1.0488
   91SAPS  H18Z 8943   3.355   6.612   8.239 -0.8195 -1.0697 -2.7690
   92SAPS     N 8944   3.529   4.041   6.104 -0.2817  0.2288  0.2042
   92SAPS   HN1 8945   3.468   3.957   6.096  0.5130 -0.1884 -1.7202
   92SAPS   HN2 8946   3.554   4.070   6.008  0.7859 -0.8994  0.1414
   92SAPS   HN3 8947   3.611   4.013   6.162 -1.1785 -1.9488  0.4853
   92SAPS   C12 8948   3.436   4.135   6.167 -0.7729 -0.0689 -0.3261
   92SAPS  H12A 8949   3.499   4.164   6.250 -1.4383 -0.8333  0.4483
   92SAPS   C13 8950   3.389   4.255   6.085 -0.5089 -0.1597  0.3957
   92SAPS  O13A 8951   3.419   4.263   5.957  0.0238  0.6939 -0.0196
   92SAPS  O13B 8952   3.345   4.361   6.147 -0.0276  0.5076  0.1699
   92SAPS   C11 8953   3.317   4.048   6.211  0.2683  0.3587 -0.3969
   92SAPS  H11A 8954   3.257   4.007   6.127 -1.9052  2.6387 -0.0023
   92SAPS  H11B 8955   3.246   4.118   6.260 -0.5969 -0.2267 -0.8175
   92SAPS     P 8956   3.341   3.938   6.449  0.3400  0.0310 -0.1837
   92SAPS   O13 8957   3.250   3.827   6.495 -0.8066 -0.5001  0.4559
   92SAPS   O14 8958   3.480   3.934   6.503 -0.3173 -0.5408 -0.0791
   92SAPS   O12 8959   3.348   3.940   6.290 -0.4245 -0.2657 -0.2311
   92SAPS   O11 8960   3.270   4.082   6.493  0.1808 -0.2267  0.0462
   92SAPS    C1 8961   3.349   4.159   6.572 -0.1386 -0.0154  0.0969
   92SAPS    HA 8962   3.457   4.170   6.548 -0.3059  0.1920 -0.5528
   92SAPS    HB 8963   3.298   4.257   6.575  1.4939  0.9155 -1.5484
   92SAPS    C2 8964   3.331   4.121   6.719 -0.2345 -0.0841 -0.1396
   92SAPS    HS 8965   3.400   4.037   6.740 -3.1892 -1.9049  2.9469
   92SAPS   O21 8966   3.196   4.087   6.730  0.9739 -0.2416 -0.3724
   92SAPS   C21 8967   3.161   3.994   6.823  0.0629  0.0470  0.3552
   92SAPS   O22 8968   3.235   3.924   6.884  0.7473  0.4257 -0.3004
   92SAPS   C22 8969   3.014   4.009   6.860  0.7931 -0.2821 -0.1490
   92SAPS   H2R 8970   2.943   3.990   6.777 -2.5613  0.3588  2.4639
   92SAPS   H2S 8971   2.999   3.933   6.939 -1.0651  0.3730  0.1543
   92SAPS    C3 8972   3.358   4.240   6.815 -0.8164 -0.5259  0.2077
   92SAPS    HX 8973   3.291   4.321   6.781  1.0199  1.5225  1.3046
   92SAPS    HY 8974   3.456   4.292   6.809 -0.7476 -0.8294 -1.6480
   92SAPS   O31 8975   3.316   4.205   6.955  0.1783 -0.4211  0.3895
   92SAPS   C31 8976   3.412   4.144   7.019  0.1950  0.5406  0.0246
   92SAPS   O32 8977   3.524   4.129   6.972 -0.7928 -0.2202  0.1119
   92SAPS   C32 8978   3.356   4.077   7.145 -0.4100 -0.3322 -0.1124
   92SAPS   H2X 8979   3.331   3.971   7.125 -0.4856 -0.0997 -1.3202
   92SAPS   H2Y 8980   3.258   4.120   7.176 -0.5574 -1.8426  1.5885
   92SAPS   C23 8981   2.989   4.153   6.925  0.9385  0.3852  0.1670
   92SAPS   H3R 8982   3.053   4.232   6.881  1.4705 -0.5061 -0.6761
   92SAPS   H3S 8983   3.015   4.137   7.032 -1.7995  1.7551  1.0687
   92SAPS   C24 8984   2.838   4.175   6.918 -0.8132 -0.0214  0.4791
   92SAPS   H4R 8985   2.793   4.085   6.965  0.8476  0.0084  2.1589
   92SAPS   H4S 8986   2.797   4.172   6.815  0.5826 -0.5386 -0.0698
   92SAPS   C25 8987   2.799   4.315   6.979  0.2845  0.2229  0.0724
   92SAPS   H5R 8988   2.834   4.404   6.925 -1.1956  1.5545  1.2469
   92SAPS   C26 8989   2.705   4.327   7.076  0.0908 -0.5178  0.3465
   92SAPS   H6R 8990   2.698   4.430   7.115 -1.8109 -0.4349 -0.1810
   92SAPS   C27 8991   2.616   4.223   7.150  0.8081 -0.1107  0.5670
   92SAPS   H7R 8992   2.567   4.157   7.074 -0.4198  0.1690  1.0975
   92SAPS   H7S 8993   2.531   4.278   7.195 -0.0930 -0.4887 -0.6414
   92SAPS   C28 8994   2.685   4.144   7.255 -0.8554 -0.0576  0.2477
   92SAPS   H8R 8995   2.780   4.102   7.219 -1.8471 -0.8330 -1.5247
   92SAPS   C29 8996   2.646   4.128   7.382  0.6838 -0.6440 -0.4935
   92SAPS   H9R 8997   2.709   4.069   7.449 -0.9894  0.2817  1.9770
   92SAPS  C210 8998   2.514   4.187   7.448  0.5823 -0.1867  0.1421
   92SAPS  H10R 8999   2.488   4.121   7.533 -0.1825 -1.6152 -1.1690
   92SAPS  H10S 9000   2.429   4.193   7.376 -0.2293 -4.6074  0.5495
   92SAPS  C211 9001   2.538   4.326   7.493 -0.7372  0.2570 -0.6946
   92SAPS  H11R 9002   2.552   4.401   7.414 -1.0703  0.4511 -0.5728
   92SAPS  C212 9003   2.550   4.368   7.624 -0.7079 -0.4896 -0.2977
   92SAPS  H12R 9004   2.584   4.468   7.654 -1.4131 -0.4845  0.5257
   92SAPS  C213 9005   2.522   4.284   7.744 -0.4378  0.4113 -0.3242
   92SAPS  H13R 9006   2.599   4.326   7.812  1.0440  0.8823 -2.2523
   92SAPS  H13S 9007   2.558   4.183   7.715 -0.3008 -0.1268  1.6609
   92SAPS  C214 9008   2.378   4.282   7.794 -0.3863 -0.4019 -0.2226
   92SAPS  H14R 9009   2.300   4.311   7.722 -1.7331 -0.3095  1.2396
   92SAPS  C215 9010   2.338   4.263   7.921  0.0586  0.4198  0.0280
   92SAPS  H15R 9011   2.230   4.281   7.935 -0.4692 -1.6575 -1.0739
   92SAPS  C216 9012   2.423   4.219   8.043  0.4524  0.2935  0.3997
   92SAPS  H16R 9013   2.424   4.295   8.124  1.3403 -0.4942  1.1379
   92SAPS  H16S 9014   2.529   4.211   8.013  0.2917 -0.2409 -0.0484
   92SAPS  C217 9015   2.383   4.086   8.105  0.3416 -0.7273  0.1052
   92SAPS  H17R 9016   2.362   4.005   8.032  0.0823 -1.9374  1.4708
   92SAPS  H17S 9017   2.291   4.105   8.164 -0.0721  0.7788 -1.0086
   92SAPS  C218 9018   2.500   4.042   8.194  0.4714 -0.5604 -0.2178
   92SAPS  H18R 9019   2.527   4.127   8.260 -2.4321  0.1917  0.0640
   92SAPS  H18S 9020   2.592   4.011   8.140  1.0252 -0.0094  0.4027
   92SAPS  C219 9021   2.456   3.931   8.299 -0.3637 -0.0118  0.1727
   92SAPS  H19R 9022   2.412   3.841   8.251 -0.6206  0.1528  0.0953
   92SAPS  H19S 9023   2.376   3.976   8.363  0.6417  0.1363  1.3398
   92SAPS  C220 9024   2.565   3.897   8.391  0.1390 -1.1838  0.1382
   92SAPS  H20R 9025   2.530   3.831   8.474  2.2989  0.1485  2.1676
   92SAPS  H20S 9026   2.600   3.993   8.433  0.3204 -0.7880 -0.9188
   92SAPS  H20T 9027   2.645   3.844   8.336 -2.1068 -5.0036  0.3382
   92SAPS   C33 9028   3.451   4.097   7.263  0.0019 -0.0798  0.1125
   92SAPS   H3X 9029   3.471   4.206   7.269 -0.7179  0.0462  0.2605
   92SAPS   H3Y 9030   3.544   4.037   7.247 -1.6370 -2.6134 -0.2779
   92SAPS   C34 9031   3.388   4.060   7.397  0.6107  0.2514  0.5775
   92SAPS   H4X 9032   3.349   3.956   7.393  0.0323  0.5279 -1.7412
   92SAPS   H4Y 9033   3.298   4.124   7.409 -0.3790 -1.0824  0.4873
   92SAPS   C35 9034   3.493   4.093   7.509  0.5311  0.1632  0.4342
   92SAPS   H5X 9035   3.516   4.202   7.514  0.4077  0.1914  0.3822
   92SAPS   H5Y 9036   3.584   4.029   7.507  0.4969  0.0935  0.9966
   92SAPS   C36 9037   3.425   4.057   7.643 -0.1046 -0.1710  0.3998
   92SAPS   H6X 9038   3.429   3.946   7.637  2.5612 -0.0627 -1.0031
   92SAPS   H6Y 9039   3.320   4.089   7.633 -0.4299 -0.3874  2.8490
   92SAPS   C37 9040   3.494   4.118   7.762  0.7284  1.1318 -0.5689
   92SAPS   H7X 9041   3.503   4.229   7.758 -0.6722  1.2292 -1.3399
   92SAPS   H7Y 9042   3.599   4.083   7.751  0.4538  0.6920 -1.8250
   92SAPS   C38 9043   3.422   4.084   7.895  0.3656 -0.5899 -0.4898
   92SAPS   H8X 9044   3.358   3.997   7.870  0.1269  0.1178 -2.5081
   92SAPS   H8Y 9045   3.349   4.163   7.924  1.0261 -0.6336  1.3427
   92SAPS   C39 9046   3.523   4.047   8.003 -0.1628 -0.4498  0.3913
   92SAPS   H9X 9047   3.591   4.134   8.016  0.0798 -0.3646 -1.3492
   92SAPS   H9Y 9048   3.591   3.966   7.969  0.4800 -0.0682  0.7531
   92SAPS  C310 9049   3.449   4.013   8.130  0.2823 -0.9698 -0.0497
   92SAPS  H10X 9050   3.373   3.936   8.105  0.0821 -1.2738  1.4391
   92SAPS  H10Y 9051   3.394   4.100   8.170  2.5827 -0.2296  1.6084
   92SAPS  C311 9052   3.539   3.962   8.237 -0.2956 -0.4284 -0.0320
   92SAPS  H11X 9053   3.618   4.033   8.270 -0.6502  0.1222 -0.3694
   92SAPS  H11Y 9054   3.592   3.875   8.191  0.8325 -0.2194  0.8432
   92SAPS  C312 9055   3.468   3.904   8.366  0.3939 -1.4053  0.3818
   92SAPS  H12X 9056   3.363   3.885   8.333 -0.0958  0.7467  0.6675
   92SAPS  H12Y 9057   3.467   3.974   8.451  1.3040 -0.9672  0.0365
   92SAPS  C313 9058   3.523   3.774   8.421  0.1551 -0.1314 -0.1952
   92SAPS  H13X 9059   3.517   3.773   8.531 -2.9037 -3.1624 -0.3111
   92SAPS  H13Y 9060   3.631   3.753   8.401  0.0249  1.1115 -2.4349
   92SAPS  C314 9061   3.442   3.643   8.386 -0.2206  0.0859 -0.3456
   92SAPS  H14X 9062   3.419   3.641   8.277 -0.2785 -2.6917 -0.3252
   92SAPS  H14Y 9063   3.347   3.637   8.443 -2.6543  0.4207 -4.1469
   92SAPS  C315 9064   3.528   3.521   8.405 -0.3364  0.3293 -0.0303
   92SAPS  H15X 9065   3.573   3.526   8.506  0.4275 -0.9991 -0.2887
   92SAPS  H15Y 9066   3.607   3.530   8.328  1.0304 -1.2174  1.1527
   92SAPS  C316 9067   3.455   3.392   8.398  0.1941  0.2037 -0.1090
   92SAPS  H16X 9068   3.406   3.371   8.300 -0.0824 -1.9135  0.4657
   92SAPS  H16Y 9069   3.371   3.392   8.470  2.2497  0.7410  2.3783
   92SAPS  C317 9070   3.534   3.267   8.433 -0.3111  0.0344  0.2074
   92SAPS  H17X 9071   3.452   3.192   8.428 -1.6480  1.6126 -3.0670
   92SAPS  H17Y 9072   3.581   3.275   8.534 -2.0590  1.4670  0.9345
   92SAPS  C318 9073   3.645   3.244   8.327 -0.1909 -0.5349  0.1822
   92SAPS  H18X 9074   3.599   3.186   8.245 -0.5513 -0.5623  0.4012
   92SAPS  H18Y 9075   3.725   3.179   8.369 -1.4483 -0.7912  2.2985
   92SAPS  H18Z 9076   3.692   3.329   8.274 -0.5331 -1.1932 -1.2069
   93SAPS     N 9077   3.930   3.892   6.400 -0.0938  0.9491  0.5532
   93SAPS   HN1 9078   4.011   3.867   6.460  1.7507  2.5819 -1.1489
   93SAPS   HN2 9079   3.848   3.930   6.452 -1.4790 -0.1802 -0.7696
   93SAPS   HN3 9080   3.896   3.804   6.357 -0.3932  0.9401  0.8081
   93SAPS   C12 9081   3.959   3.992   6.292  0.0374 -0.2850 -0.5817
   93SAPS  H12A 9082   4.047   3.969   6.235  0.8249  1.5712 -0.1562
   93SAPS   C13 9083   3.842   3.999   6.198  0.1203  0.1139 -0.2015
   93SAPS  O13A 9084   3.742   3.924   6.215  0.2378  0.2815  0.4672
   93SAPS  O13B 9085   3.835   4.083   6.101 -0.3365  0.3274  0.1017
   93SAPS   C11 9086   3.993   4.130   6.357  0.0724 -0.0783  0.1437
   93SAPS  H11A 9087   3.903   4.170   6.409 -0.4832 -2.4672  1.0624
   93SAPS  H11B 9088   4.005   4.199   6.270 -1.6528  0.5333  0.3670
   93SAPS     P 9089   4.175   4.257   6.490  0.0306 -0.1866  0.4093
   93SAPS   O13 9090   4.311   4.271   6.431 -1.0940  0.7192 -0.0184
   93SAPS   O14 9091   4.085   4.369   6.460  0.2500  0.3268 -0.3701
   93SAPS   O12 9092   4.107   4.118   6.443 -0.5536 -0.4736 -0.4304
   93SAPS   O11 9093   4.184   4.255   6.649  0.3008 -0.1777  0.1684
   93SAPS    C1 9094   4.059   4.241   6.723 -0.4489 -0.7697 -0.0804
   93SAPS    HA 9095   3.977   4.176   6.686  0.9727 -2.7891  0.2426
   93SAPS    HB 9096   4.084   4.181   6.812  1.8776 -1.8229 -1.3916
   93SAPS    C2 9097   3.992   4.368   6.769 -0.2412  0.5747 -0.8766
   93SAPS    HS 9098   3.986   4.435   6.680 -1.0661  1.8997  0.1436
   93SAPS   O21 9099   4.067   4.419   6.887 -0.2011 -0.3157  0.4581
   93SAPS   C21 9100   4.086   4.547   6.908  0.0651  0.4557  0.5199
   93SAPS   O22 9101   4.068   4.638   6.824  0.1654  0.0803  0.1205
   93SAPS   C22 9102   4.137   4.573   7.052  0.2425 -0.4901 -0.4006
   93SAPS   H2R 9103   4.140   4.472   7.099  0.0290 -0.1729  0.3016
   93SAPS   H2S 9104   4.239   4.614   7.039 -0.0481 -0.2215 -1.8758
   93SAPS    C3 9105   3.844   4.351   6.825  0.2916 -0.2183 -0.3782
   93SAPS    HX 9106   3.781   4.337   6.734  0.7679 -0.6361 -0.6579
   93SAPS    HY 9107   3.821   4.441   6.884 -2.2152 -0.7930 -0.4405
   93SAPS   O31 9108   3.842   4.241   6.919 -0.2010 -0.8202  0.3529
   93SAPS   C31 9109   3.854   4.264   7.042 -0.3627 -0.1163 -0.0648
   93SAPS   O32 9110   3.863   4.375   7.100  0.7182  0.9596  0.3654
   93SAPS   C32 9111   3.846   4.125   7.108 -0.0353 -0.0897 -0.0697
   93SAPS   H2X 9112   3.933   4.066   7.073  0.0395  0.4068 -0.7201
   93SAPS   H2Y 9113   3.758   4.071   7.067 -0.0467 -0.8378  0.9232
   93SAPS   C23 9114   4.036   4.655   7.137  0.3365  0.1902  0.1536
   93SAPS   H3R 9115   3.935   4.619   7.106  0.1402 -0.0531  1.0732
   93SAPS   H3S 9116   4.036   4.764   7.117 -2.5705  0.4830  1.4898
   93SAPS   C24 9117   4.043   4.624   7.287 -0.4597  0.1196  0.5177
   93SAPS   H4R 9118   4.140   4.668   7.317 -0.5599  0.2980  0.5836
   93SAPS   H4S 9119   4.043   4.514   7.300 -0.7416  0.0569 -0.0011
   93SAPS   C25 9120   3.929   4.678   7.369  0.1922 -0.5456 -0.3562
   93SAPS   H5R 9121   3.830   4.666   7.321 -0.1148 -1.8247  0.5944
   93SAPS   C26 9122   3.930   4.742   7.490 -0.7070 -0.5006 -0.0460
   93SAPS   H6R 9123   3.833   4.767   7.535 -1.3625 -1.1765 -1.0522
   93SAPS   C27 9124   4.048   4.770   7.583  0.0550  0.9636  0.5924
   93SAPS   H7R 9125   4.038   4.877   7.614 -1.2474  0.2426  2.7903
   93SAPS   H7S 9126   4.131   4.745   7.514 -1.1534  0.9067 -0.8611
   93SAPS   C28 9127   4.060   4.680   7.707 -0.4843  0.6827 -0.2983
   93SAPS   H8R 9128   4.081   4.573   7.689  0.0170  0.7241  0.0419
   93SAPS   C29 9129   4.025   4.717   7.835 -0.1962 -0.4708 -0.9379
   93SAPS   H9R 9130   4.040   4.644   7.915 -2.1635  0.2500  0.1009
   93SAPS  C210 9131   3.988   4.846   7.897 -0.1186  0.4091 -0.0462
   93SAPS  H10R 9132   4.020   4.921   7.821 -1.4934  0.4140 -0.6290
   93SAPS  H10S 9133   4.058   4.854   7.983  3.0456  0.4251 -2.5209
   93SAPS  C211 9134   3.842   4.873   7.930 -0.2851  0.7990 -0.0090
   93SAPS  H11R 9135   3.760   4.832   7.869  1.1325 -1.0670 -0.7396
   93SAPS  C212 9136   3.799   4.956   8.025  0.7676 -0.4640 -0.6723
   93SAPS  H12R 9137   3.690   4.970   8.038  0.6723 -0.8815 -0.9986
   93SAPS  C213 9138   3.876   5.039   8.125  0.5125 -0.0739 -0.2279
   93SAPS  H13R 9139   3.985   5.045   8.105  0.3384 -1.6593 -1.7384
   93SAPS  H13S 9140   3.864   4.983   8.220  0.9158 -2.9071 -1.7945
   93SAPS  C214 9141   3.818   5.173   8.163 -0.3741 -0.0283 -0.2205
   93SAPS  H14R 9142   3.724   5.204   8.113 -1.5256  0.1308  1.9573
   93SAPS  C215 9143   3.857   5.258   8.257 -0.2975 -0.6916  0.4407
   93SAPS  H15R 9144   3.804   5.349   8.288  0.0145 -0.3825  0.0794
   93SAPS  C216 9145   3.979   5.238   8.349  1.0372  0.2619 -0.0129
   93SAPS  H16R 9146   4.051   5.321   8.338  2.2288 -1.1035 -2.9462
   93SAPS  H16S 9147   4.042   5.151   8.321  0.4035 -0.0436 -0.5015
   93SAPS  C217 9148   3.944   5.215   8.497  0.3308 -0.6178  0.7922
   93SAPS  H17R 9149   4.042   5.211   8.550 -0.1278 -0.3852  1.6597
   93SAPS  H17S 9150   3.906   5.110   8.497  0.0294 -0.5077  0.6241
   93SAPS  C218 9151   3.850   5.327   8.554 -0.2649  0.5854 -0.6554
   93SAPS  H18R 9152   3.746   5.298   8.529 -0.6634 -0.0636  1.6227
   93SAPS  H18S 9153   3.875   5.421   8.501  0.9596 -0.7501 -2.5288
   93SAPS  C219 9154   3.860   5.361   8.697 -0.4837 -0.5216  0.0010
   93SAPS  H19R 9155   3.966   5.377   8.726 -0.9304 -1.3345  2.2118
   93SAPS  H19S 9156   3.826   5.270   8.751  2.3624 -0.5539  1.8116
   93SAPS  C220 9157   3.775   5.485   8.733 -0.2131  0.8059 -0.0395
   93SAPS  H20R 9158   3.686   5.496   8.668 -2.0310 -0.0272  2.2588
   93SAPS  H20S 9159   3.838   5.574   8.710  0.5071 -0.8013 -4.6395
   93SAPS  H20T 9160   3.755   5.490   8.842 -0.0342  0.1903  0.0240
   93SAPS   C33 9161   3.840   4.133   7.261  0.3145 -0.0963 -0.6415
   93SAPS   H3X 9162   3.808   4.031   7.292 -0.9961  0.4893  0.0006
   93SAPS   H3Y 9163   3.759   4.203   7.290 -1.4564 -2.9026  1.4614
   93SAPS   C34 9164   3.975   4.158   7.323 -0.3136  0.3242 -0.4260
   93SAPS   H4X 9165   3.999   4.267   7.320  0.0324  0.3513  2.5118
   93SAPS   H4Y 9166   4.056   4.100   7.272 -2.2052 -0.3098 -2.8142
   93SAPS   C35 9167   3.989   4.107   7.464  0.2240  0.0932  0.7101
   93SAPS   H5X 9168   4.092   4.128   7.500 -0.2727  0.9874  1.6340
   93SAPS   H5Y 9169   3.976   3.997   7.470 -1.5765  0.2037 -0.8101
   93SAPS   C36 9170   3.895   4.168   7.568 -0.4394 -0.0924 -0.0983
   93SAPS   H6X 9171   3.960   4.161   7.658  0.5693 -0.4634 -0.8541
   93SAPS   H6Y 9172   3.804   4.104   7.575 -1.2430  1.0479  0.0501
   93SAPS   C37 9173   3.848   4.316   7.559 -0.4145 -0.4815  0.6495
   93SAPS   H7X 9174   3.777   4.320   7.474  0.0677 -0.2133  0.2524
   93SAPS   H7Y 9175   3.932   4.386   7.540  0.1398 -0.9878  1.1966
   93SAPS   C38 9176   3.772   4.373   7.677  0.2993 -0.4777  0.0994
   93SAPS   H8X 9177   3.674   4.325   7.654  0.9477 -2.4208  1.2822
   93SAPS   H8Y 9178   3.764   4.483   7.674  2.0503 -0.3078  1.1935
   93SAPS   C39 9179   3.832   4.339   7.810  0.6400  0.2557  0.5314
   93SAPS   H9X 9180   3.940   4.359   7.796  0.6759 -0.7250 -0.7025
   93SAPS   H9Y 9181   3.825   4.233   7.843 -2.5537  0.5403  0.9066
   93SAPS  C310 9182   3.779   4.419   7.930  0.1672 -0.5794 -0.4102
   93SAPS  H10X 9183   3.668   4.419   7.935  0.1818 -0.3641 -0.0109
   93SAPS  H10Y 9184   3.809   4.525   7.916  0.1462 -0.4992  0.1387
   93SAPS  C311 9185   3.833   4.378   8.067  0.0866  0.2863 -0.0384
   93SAPS  H11X 9186   3.939   4.411   8.060 -0.5963  2.1068 -2.1640
   93SAPS  H11Y 9187   3.825   4.270   8.094  2.2398  0.1156  0.0601
   93SAPS  C312 9188   3.768   4.461   8.178 -0.2483  0.4786  0.5119
   93SAPS  H12X 9189   3.669   4.416   8.202 -0.8008  1.8374  0.7699
   93SAPS  H12Y 9190   3.757   4.564   8.138  2.6279 -0.8765 -4.2616
   93SAPS  C313 9191   3.851   4.456   8.304  1.0147 -0.0414  0.6317
   93SAPS  H13X 9192   3.934   4.529   8.298  1.9263 -1.1085 -0.1305
   93SAPS  H13Y 9193   3.911   4.363   8.310  1.9622  0.4776 -0.6529
   93SAPS  C314 9194   3.770   4.471   8.430 -0.0851 -0.0508 -0.4781
   93SAPS  H14X 9195   3.842   4.478   8.514  0.2098  3.0140 -0.9354
   93SAPS  H14Y 9196   3.711   4.378   8.439 -2.0608  1.2894  0.7443
   93SAPS  C315 9197   3.680   4.594   8.445  0.2505  0.4997  0.1621
   93SAPS  H15X 9198   3.644   4.607   8.549 -0.3519 -0.5066  0.0847
   93SAPS  H15Y 9199   3.588   4.575   8.386 -0.6516 -3.9359  2.7371
   93SAPS  C316 9200   3.741   4.734   8.390 -0.1028  0.3076 -0.3878
   93SAPS  H16X 9201   3.764   4.726   8.282  2.4831  1.5471  0.0322
   93SAPS  H16Y 9202   3.833   4.768   8.442  0.5559  0.5920 -1.7053
   93SAPS  C317 9203   3.634   4.845   8.403 -0.6297  0.0270 -0.2382
   93SAPS  H17X 9204   3.533   4.800   8.409 -0.1706 -0.8307  1.2316
   93SAPS  H17Y 9205   3.655   4.912   8.316 -0.4289  1.8178  1.1465
   93SAPS  C318 9206   3.659   4.945   8.519  0.2119 -0.0606  0.1100
   93SAPS  H18X 9207   3.574   5.015   8.532  2.0508  1.7282  2.8056
   93SAPS  H18Y 9208   3.752   5.005   8.507 -1.3589  1.8347 -3.2429
   93SAPS  H18Z 9209   3.652   4.887   8.613  1.4515  0.6681  0.6656
   94SAPS     N 9210   3.786   6.587   5.530  1.0564 -0.1470  0.5421
   94SAPS   HN1 9211   3.792   6.641   5.619 -0.0811 -0.7530  1.0030
   94SAPS   HN2 9212   3.775   6.657   5.454 -1.5583  0.7685  1.7088
   94SAPS   HN3 9213   3.700   6.530   5.545  2.0553 -1.4539  1.5454
   94SAPS   C12 9214   3.905   6.502   5.522  0.3537  0.0182 -0.0928
   94SAPS  H12A 9215   3.886   6.415   5.583  0.3311 -1.1555 -1.7546
   94SAPS   C13 9216   3.932   6.453   5.373  0.3854  0.6606 -0.0147
   94SAPS  O13A 9217   3.837   6.454   5.288 -0.4602 -0.5745 -0.0370
   94SAPS  O13B 9218   4.028   6.373   5.351 -0.4502  0.3158  0.5181
   94SAPS   C11 9219   4.031   6.581   5.571 -0.6591  0.4246 -0.2897
   94SAPS  H11A 9220   4.060   6.653   5.491  2.9305 -0.2655  0.3016
   94SAPS  H11B 9221   4.121   6.516   5.570  1.1121  2.8117 -0.8427
   94SAPS     P 9222   3.995   6.600   5.834 -0.0849 -0.0168  0.2249
   94SAPS   O13 9223   3.862   6.534   5.833  0.3677  0.7532 -0.6361
   94SAPS   O14 9224   4.114   6.525   5.885 -0.2105  0.5173  0.3142
   94SAPS   O12 9225   4.011   6.659   5.690  0.8293  0.5691  0.5804
   94SAPS   O11 9226   3.986   6.744   5.908 -0.1540  0.3607 -0.2581
   94SAPS    C1 9227   4.086   6.819   5.971 -0.3229  0.2842 -0.0372
   94SAPS    HA 9228   4.185   6.767   5.969  0.4290  1.6071  1.8167
   94SAPS    HB 9229   4.094   6.916   5.918 -0.6052  1.5844  2.2289
   94SAPS    C2 9230   4.056   6.845   6.124 -0.1716  0.0296  0.1185
   94SAPS    HS 9231   4.142   6.798   6.176 -1.0496 -2.4021 -0.5640
   94SAPS   O21 9232   3.931   6.788   6.161 -0.0737  0.3981 -0.5519
   94SAPS   C21 9233   3.934   6.664   6.212 -0.5443  0.2355  1.2046
   94SAPS   O22 9234   4.040   6.608   6.237  0.2559  0.0323 -0.7023
   94SAPS   C22 9235   3.798   6.605   6.209  0.2483 -0.0528 -0.1985
   94SAPS   H2R 9236   3.790   6.569   6.104  1.3312 -0.0995 -0.2767
   94SAPS   H2S 9237   3.806   6.520   6.280  0.4118 -0.3675 -0.5862
   94SAPS    C3 9238   4.054   6.997   6.160  0.2468 -0.2259 -0.0436
   94SAPS    HX 9239   4.003   7.053   6.078  2.7934  0.5098 -1.1576
   94SAPS    HY 9240   4.157   7.036   6.150 -0.4635  1.5824 -0.5623
   94SAPS   O31 9241   4.004   7.023   6.295  0.1741  0.7292  0.7418
   94SAPS   C31 9242   3.874   7.050   6.295 -0.2005 -0.4840 -0.4217
   94SAPS   O32 9243   3.806   7.067   6.195 -0.7242 -0.3737  0.2114
   94SAPS   C32 9244   3.831   7.033   6.441  0.1606  0.1223  0.5806
   94SAPS   H2X 9245   3.892   7.106   6.499 -1.0082  1.0543  0.6466
   94SAPS   H2Y 9246   3.858   6.931   6.475 -1.6373  0.0480  1.8503
   94SAPS   C23 9247   3.685   6.710   6.235  0.0230  0.3577 -0.2321
   94SAPS   H3R 9248   3.683   6.786   6.154 -1.8525  2.3801  1.6522
   94SAPS   H3S 9249   3.707   6.759   6.332  1.7629 -0.5071 -0.1737
   94SAPS   C24 9250   3.545   6.650   6.240  0.6252 -0.1483  0.5048
   94SAPS   H4R 9251   3.526   6.610   6.138 -0.1364  0.0939  0.5466
   94SAPS   H4S 9252   3.463   6.723   6.258  0.8888  0.2162  0.2405
   94SAPS   C25 9253   3.538   6.546   6.345 -0.3952 -0.0815 -0.1520
   94SAPS   H5R 9254   3.507   6.443   6.319 -1.3950 -0.0738  0.9329
   94SAPS   C26 9255   3.554   6.563   6.478  0.2000 -0.3509 -0.0934
   94SAPS   H6R 9256   3.529   6.483   6.550  0.5622  0.3940  0.8735
   94SAPS   C27 9257   3.602   6.686   6.551  0.4250  0.6141 -0.2595
   94SAPS   H7R 9258   3.576   6.771   6.485  0.4220  1.0838  0.3491
   94SAPS   H7S 9259   3.711   6.668   6.556  0.3007  0.2162  1.6462
   94SAPS   C28 9260   3.537   6.704   6.687  0.1481 -0.5924 -0.8717
   94SAPS   H8R 9261   3.427   6.699   6.695  0.1652  2.1782  2.6463
   94SAPS   C29 9262   3.604   6.729   6.804  0.4940  0.0082  0.2848
   94SAPS   H9R 9263   3.538   6.723   6.892 -2.3100  1.5848 -1.6478
   94SAPS  C210 9264   3.754   6.743   6.827  0.3050  0.0909 -0.1196
   94SAPS  H10R 9265   3.776   6.818   6.906 -0.5989 -0.6915  0.8939
   94SAPS  H10S 9266   3.797   6.799   6.742  1.3492 -2.2285 -1.1711
   94SAPS  C211 9267   3.832   6.619   6.841  0.1368 -0.4666  0.0574
   94SAPS  H11R 9268   3.909   6.604   6.764  1.4734  3.5509  0.4988
   94SAPS  C212 9269   3.819   6.521   6.927 -0.1190 -0.1943  0.1821
   94SAPS  H12R 9270   3.873   6.427   6.908  0.6379  0.6559 -1.9657
   94SAPS  C213 9271   3.719   6.526   7.037 -0.1321 -0.6013  0.1578
   94SAPS  H13R 9272   3.683   6.630   7.054 -3.4455 -1.4395 -1.2954
   94SAPS  H13S 9273   3.771   6.504   7.132  0.3374  2.4681  0.6622
   94SAPS  C214 9274   3.605   6.428   7.025  0.1844 -0.4310 -0.0849
   94SAPS  H14R 9275   3.577   6.404   6.921  1.5409  2.7319 -1.2549
   94SAPS  C215 9276   3.525   6.385   7.117  0.2218 -0.0138 -1.0046
   94SAPS  H15R 9277   3.445   6.318   7.082 -0.3863 -0.3709  0.9927
   94SAPS  C216 9278   3.533   6.418   7.262 -0.1821  0.7321  0.6929
   94SAPS  H16R 9279   3.519   6.527   7.278 -1.7608  0.6313  0.1511
   94SAPS  H16S 9280   3.633   6.400   7.306 -1.1159 -1.0041  2.1864
   94SAPS  C217 9281   3.426   6.348   7.357  0.0902  0.0001  0.3440
   94SAPS  H17R 9282   3.322   6.354   7.318 -0.0780 -2.2825  0.3475
   94SAPS  H17S 9283   3.419   6.395   7.457 -2.5641  1.5593 -0.5098
   94SAPS  C218 9284   3.475   6.200   7.383  0.6000  0.0136  0.2056
   94SAPS  H18R 9285   3.570   6.204   7.441  0.1698  1.2281  0.8335
   94SAPS  H18S 9286   3.475   6.141   7.288  1.1351  1.6521 -0.8292
   94SAPS  C219 9287   3.370   6.127   7.475  0.1662 -0.1476 -0.3658
   94SAPS  H19R 9288   3.393   6.018   7.476  0.9519  0.0225  1.7658
   94SAPS  H19S 9289   3.268   6.141   7.433 -1.6853 -3.3949  2.7048
   94SAPS  C220 9290   3.376   6.179   7.618  0.2009  0.8172 -0.1011
   94SAPS  H20R 9291   3.301   6.122   7.676  0.7186  2.7882  2.5855
   94SAPS  H20S 9292   3.338   6.284   7.620  0.8822  1.0528  0.5507
   94SAPS  H20T 9293   3.478   6.160   7.657 -0.0004  0.2941  0.1654
   94SAPS   C33 9294   3.678   7.042   6.453  0.0715 -0.6406 -0.4364
   94SAPS   H3X 9295   3.624   6.954   6.412 -0.9154 -1.2428  2.0494
   94SAPS   H3Y 9296   3.640   7.138   6.413  0.1998 -0.2419  0.3865
   94SAPS   C34 9297   3.637   7.046   6.606  0.6587 -0.1994 -0.1768
   94SAPS   H4X 9298   3.696   6.970   6.661 -1.4553 -1.8920 -0.1957
   94SAPS   H4Y 9299   3.529   7.022   6.613  1.2432 -2.4954  1.9848
   94SAPS   C35 9300   3.664   7.191   6.664 -0.6448  0.3116 -0.6224
   94SAPS   H5X 9301   3.623   7.258   6.586 -2.3574 -0.9073 -0.8024
   94SAPS   H5Y 9302   3.775   7.191   6.669 -0.7327 -0.6747  2.1366
   94SAPS   C36 9303   3.612   7.211   6.810  0.2506  0.0538 -0.4591
   94SAPS   H6X 9304   3.504   7.236   6.808  0.2552  0.3009  1.2875
   94SAPS   H6Y 9305   3.672   7.285   6.867 -0.4022  0.8657 -0.8340
   94SAPS   C37 9306   3.623   7.089   6.897  0.2311  0.2867  0.5461
   94SAPS   H7X 9307   3.732   7.067   6.896 -0.1224 -1.7797 -2.8025
   94SAPS   H7Y 9308   3.568   7.001   6.857 -0.0529  0.4783  0.5177
   94SAPS   C38 9309   3.574   7.121   7.038 -0.1596 -0.4653  0.8944
   94SAPS   H8X 9310   3.464   7.141   7.033  0.0250 -0.1924 -3.5458
   94SAPS   H8Y 9311   3.625   7.214   7.071 -0.1697  0.0727 -0.5825
   94SAPS   C39 9312   3.612   7.017   7.147  0.1041 -0.1524 -0.6550
   94SAPS   H9X 9313   3.722   7.014   7.158  0.2734  0.6939 -1.8997
   94SAPS   H9Y 9314   3.580   6.917   7.110  0.2983 -0.0306 -1.1649
   94SAPS  C310 9315   3.545   7.045   7.284  0.5056  0.4485 -0.0792
   94SAPS  H10X 9316   3.588   6.963   7.347  0.6634  0.2777 -0.4093
   94SAPS  H10Y 9317   3.436   7.024   7.277  0.3002  1.6702 -0.5179
   94SAPS  C311 9318   3.583   7.173   7.350  0.4879  0.2930  0.1628
   94SAPS  H11X 9319   3.559   7.257   7.281 -0.1545 -0.9088 -1.1040
   94SAPS  H11Y 9320   3.692   7.178   7.372  0.7901  0.2799 -1.2813
   94SAPS  C312 9321   3.510   7.193   7.488  0.6255 -0.2886  0.2944
   94SAPS  H12X 9322   3.551   7.113   7.551 -2.2978 -0.6120  1.8819
   94SAPS  H12Y 9323   3.399   7.184   7.482  0.6037  0.2068 -0.1924
   94SAPS  C313 9324   3.553   7.328   7.561  0.0498 -0.0171 -0.0768
   94SAPS  H13X 9325   3.571   7.403   7.481 -2.0878  0.6603  0.0490
   94SAPS  H13Y 9326   3.650   7.295   7.603  0.2620  0.4970 -0.1620
   94SAPS  C314 9327   3.446   7.361   7.668  0.3015  0.0140  0.4846
   94SAPS  H14X 9328   3.409   7.273   7.725  1.9197 -0.8304  0.2709
   94SAPS  H14Y 9329   3.362   7.398   7.605  1.8536 -1.6512 -2.6840
   94SAPS  C315 9330   3.489   7.474   7.759 -0.1072  0.1561 -0.7578
   94SAPS  H15X 9331   3.403   7.527   7.806  1.5724  1.3247  1.1050
   94SAPS  H15Y 9332   3.541   7.555   7.705 -0.5682  0.7527 -0.3285
   94SAPS  C316 9333   3.570   7.410   7.871  0.0644  0.6803  0.5384
   94SAPS  H16X 9334   3.657   7.354   7.831 -0.6606  0.1053 -0.2648
   94SAPS  H16Y 9335   3.493   7.341   7.910 -1.0702  0.5505 -1.8067
   94SAPS  C317 9336   3.617   7.511   7.978 -0.3905  0.4476 -0.5285
   94SAPS  H17X 9337   3.707   7.563   7.938  0.0652 -0.0308 -0.1345
   94SAPS  H17Y 9338   3.657   7.473   8.074  2.3415  1.4121 -1.2070
   94SAPS  C318 9339   3.502   7.610   8.017  0.3758  0.1503  0.0772
   94SAPS  H18X 9340   3.419   7.548   8.057  0.2828 -0.3820 -0.9245
   94SAPS  H18Y 9341   3.463   7.658   7.924  0.2880 -3.6383 -1.9095
   94SAPS  H18Z 9342   3.540   7.682   8.093 -3.1435  2.1115  0.0868
   95SAPS     N 9343   0.507   4.952   5.902 -0.1082  0.0439 -0.3710
   95SAPS   HN1 9344   0.492   4.981   6.001  0.0911  1.8618 -0.8459
   95SAPS   HN2 9345   0.595   4.996   5.871 -1.0999  1.7766 -0.8177
   95SAPS   HN3 9346   0.428   4.978   5.839 -0.8947  0.9522  0.9551
   95SAPS   C12 9347   0.532   4.807   5.886 -0.3146 -0.2566  0.0959
   95SAPS  H12A 9348   0.437   4.767   5.852 -0.3936 -0.1231  0.1572
   95SAPS   C13 9349   0.651   4.757   5.794  0.5596 -0.0394  0.2565
   95SAPS  O13A 9350   0.708   4.849   5.730  0.2008  0.0824  0.0412
   95SAPS  O13B 9351   0.649   4.639   5.752 -0.4024 -0.2164 -0.7968
   95SAPS   C11 9352   0.558   4.746   6.023 -0.1592  0.1908  0.2848
   95SAPS  H11A 9353   0.646   4.795   6.070  1.5496 -1.9960 -0.5882
   95SAPS  H11B 9354   0.579   4.638   6.013 -1.1211  0.1597 -1.4947
   95SAPS     P 9355   0.347   4.667   6.157 -0.1951  0.0389 -0.2171
   95SAPS   O13 9356   0.220   4.672   6.080  0.7633  0.4039  0.5813
   95SAPS   O14 9357   0.412   4.532   6.167  0.4364 -0.3138  0.3994
   95SAPS   O12 9358   0.452   4.776   6.110 -0.0805  0.5875  0.1590
   95SAPS   O11 9359   0.314   4.715   6.303 -0.1421  0.3073  0.0704
   95SAPS    C1 9360   0.272   4.847   6.335  0.2372 -0.9563  0.3668
   95SAPS    HA 9361   0.344   4.922   6.296 -0.3543 -0.8775 -0.5760
   95SAPS    HB 9362   0.173   4.872   6.291 -0.1024 -0.4042  1.4195
   95SAPS    C2 9363   0.251   4.866   6.486 -0.8731 -0.5163  0.0501
   95SAPS    HS 9364   0.238   4.975   6.504 -1.2752 -0.8075  1.6179
   95SAPS   O21 9365   0.372   4.821   6.549  0.1553  0.2228 -0.1772
   95SAPS   C21 9366   0.399   4.873   6.669 -1.1527  0.8639 -0.4033
   95SAPS   O22 9367   0.340   4.966   6.726  0.2748  0.1156 -0.1368
   95SAPS   C22 9368   0.519   4.796   6.725 -0.3441 -1.1617 -0.1563
   95SAPS   H2R 9369   0.493   4.689   6.738  0.5384 -1.4775 -0.9619
   95SAPS   H2S 9370   0.598   4.801   6.648  2.6282  0.0589  2.8661
   95SAPS    C3 9371   0.130   4.783   6.536 -0.1913  0.1001 -0.5827
   95SAPS    HX 9372   0.138   4.691   6.474 -1.3930  0.2072 -0.9129
   95SAPS    HY 9373   0.032   4.821   6.500 -0.6778 -0.2611  0.3511
   95SAPS   O31 9374   0.129   4.748   6.673  0.0354 -0.5552 -0.4684
   95SAPS   C31 9375   0.054   4.834   6.752  0.4515  0.2781  0.2577
   95SAPS   O32 9376  -0.012   4.925   6.707 -0.4319 -0.4783 -0.1626
   95SAPS   C32 9377   0.061   4.789   6.891  1.0396 -0.2695 -0.4216
   95SAPS   H2X 9378   0.087   4.873   6.959 -0.9323 -0.0153  0.0702
   95SAPS   H2Y 9379   0.136   4.708   6.905  2.4318  0.7657 -1.8635
   95SAPS   C23 9380   0.587   4.864   6.850 -0.2477  1.1285  0.9774
   95SAPS   H3R 9381   0.597   4.971   6.821  0.7635  0.7550 -0.1065
   95SAPS   H3S 9382   0.685   4.813   6.863 -3.0347 -5.0862 -0.7916
   95SAPS   C24 9383   0.513   4.849   6.982 -0.3450  0.2776  0.1262
   95SAPS   H4R 9384   0.416   4.901   6.966 -0.6010 -0.0372  0.6308
   95SAPS   H4S 9385   0.562   4.915   7.057 -1.9930 -0.6387  2.0756
   95SAPS   C25 9386   0.494   4.700   7.031  0.9349  0.6492 -0.1650
   95SAPS   H5R 9387   0.545   4.626   6.969  1.6513  0.4555  0.6455
   95SAPS   C26 9388   0.418   4.650   7.132  0.5441 -0.2297 -0.5343
   95SAPS   H6R 9389   0.423   4.541   7.149  2.1919  0.0729  1.0856
   95SAPS   C27 9390   0.337   4.737   7.230 -0.3219  0.1821 -0.0775
   95SAPS   H7R 9391   0.229   4.717   7.248  0.0350 -1.7388  0.0724
   95SAPS   H7S 9392   0.327   4.837   7.184  0.1870  0.7281  0.9841
   95SAPS   C28 9393   0.404   4.753   7.365  0.2549 -0.3621 -0.3931
   95SAPS   H8R 9394   0.504   4.797   7.357  0.7157 -1.0243  1.5342
   95SAPS   C29 9395   0.348   4.728   7.489 -0.7786 -0.3443  0.5648
   95SAPS   H9R 9396   0.406   4.755   7.579  0.3090 -0.0215 -0.2237
   95SAPS  C210 9397   0.210   4.674   7.517  0.0419 -0.2129 -0.3643
   95SAPS  H10R 9398   0.165   4.603   7.444  1.8962  0.1420 -1.8873
   95SAPS  H10S 9399   0.141   4.761   7.524  1.0392  0.4536  1.3994
   95SAPS  C211 9400   0.213   4.588   7.644 -0.3254  0.1858  0.0974
   95SAPS  H11R 9401   0.208   4.481   7.621  0.9867  0.4577 -1.6118
   95SAPS  C212 9402   0.230   4.623   7.775  0.0689 -0.7761  0.0891
   95SAPS  H12R 9403   0.241   4.551   7.859 -1.5760  0.8356  1.7305
   95SAPS  C213 9404   0.248   4.770   7.816  0.4859 -0.1448 -0.3780
   95SAPS  H13R 9405   0.265   4.837   7.729 -0.3835 -0.7302 -1.0086
   95SAPS  H13S 9406   0.346   4.769   7.867  0.7610  1.2882 -0.8707
   95SAPS  C214 9407   0.143   4.819   7.911 -0.3082 -0.3293  0.1066
   95SAPS  H14R 9408   0.045   4.838   7.864 -0.1305  2.1810  0.6861
   95SAPS  C215 9409   0.157   4.843   8.046  0.0585 -0.6579 -0.9804
   95SAPS  H15R 9410   0.064   4.856   8.103 -0.2631 -2.1849 -1.1180
   95SAPS  C216 9411   0.287   4.826   8.118  0.2080 -0.0324 -0.2273
   95SAPS  H16R 9412   0.370   4.885   8.074 -1.2356 -0.5195 -3.7630
   95SAPS  H16S 9413   0.316   4.720   8.100 -1.8903 -0.8481  0.9714
   95SAPS  C217 9414   0.274   4.857   8.272 -0.6126  0.2796  0.8811
   95SAPS  H17R 9415   0.176   4.817   8.305 -1.3225  1.0256 -0.2921
   95SAPS  H17S 9416   0.272   4.968   8.274  2.1655  0.4225 -1.2582
   95SAPS  C218 9417   0.401   4.805   8.339  0.8592  0.1011 -0.3412
   95SAPS  H18R 9418   0.489   4.854   8.291  0.1211  1.3494 -0.4165
   95SAPS  H18S 9419   0.410   4.695   8.325  3.0324 -0.0425  1.7271
   95SAPS  C219 9420   0.416   4.849   8.489  0.7550 -0.2811  0.0753
   95SAPS  H19R 9421   0.322   4.825   8.543 -0.8530  1.5916 -1.7958
   95SAPS  H19S 9422   0.431   4.959   8.479 -0.9759  0.2355  2.6081
   95SAPS  C220 9423   0.545   4.803   8.562 -0.6597  1.5124 -0.5048
   95SAPS  H20R 9424   0.634   4.846   8.510  1.0639 -0.8320  0.3682
   95SAPS  H20S 9425   0.557   4.693   8.551  1.8250  1.4350  2.1358
   95SAPS  H20T 9426   0.562   4.831   8.668  0.7766  0.9426 -0.5685
   95SAPS   C33 9427  -0.078   4.728   6.920 -0.0630 -0.8281  0.5322
   95SAPS   H3X 9428  -0.115   4.660   6.840  1.8418  0.2325 -1.2964
   95SAPS   H3Y 9429  -0.152   4.809   6.910  0.8661 -0.0253  0.0559
   95SAPS   C34 9430  -0.088   4.670   7.060  0.6007 -0.3220  0.3718
   95SAPS   H4X 9431  -0.028   4.577   7.072 -1.2153 -1.6005 -0.1328
   95SAPS   H4Y 9432  -0.193   4.634   7.062  0.6938 -0.6768 -0.7393
   95SAPS   C35 9433  -0.087   4.766   7.177  0.0686 -0.5104  0.0790
   95SAPS   H5X 9434  -0.138   4.864   7.166  1.6905  0.3419  0.1198
   95SAPS   H5Y 9435   0.014   4.795   7.211  0.8369 -2.4354 -0.5206
   95SAPS   C36 9436  -0.156   4.705   7.298  0.9522  0.0548 -0.1616
   95SAPS   H6X 9437  -0.104   4.615   7.339 -0.5606 -0.7646  0.0152
   95SAPS   H6Y 9438  -0.256   4.666   7.268  0.3765  1.2678  0.1761
   95SAPS   C37 9439  -0.164   4.802   7.415  0.2571 -0.1442  1.1309
   95SAPS   H7X 9440  -0.222   4.890   7.381  0.8087  0.3489  1.4587
   95SAPS   H7Y 9441  -0.061   4.833   7.444 -0.5683 -0.3349  4.4991
   95SAPS   C38 9442  -0.232   4.735   7.538  0.3901  0.2189  0.1429
   95SAPS   H8X 9443  -0.195   4.632   7.558 -0.4682 -0.2519 -0.6896
   95SAPS   H8Y 9444  -0.337   4.720   7.508  0.8440  2.0055 -2.5371
   95SAPS   C39 9445  -0.227   4.810   7.672 -1.0409 -1.1514  0.5674
   95SAPS   H9X 9446  -0.230   4.919   7.652  1.5090 -0.9045  1.2899
   95SAPS   H9Y 9447  -0.127   4.792   7.718  0.8688  1.2128 -2.4159
   95SAPS  C310 9448  -0.331   4.763   7.769 -0.1150  0.4238  0.1212
   95SAPS  H10X 9449  -0.334   4.653   7.783 -3.1134  0.4058 -0.3708
   95SAPS  H10Y 9450  -0.428   4.791   7.723 -0.6052 -2.3003 -0.6411
   95SAPS  C311 9451  -0.307   4.811   7.917  0.6512 -0.4635 -0.2552
   95SAPS  H11X 9452  -0.402   4.850   7.958 -1.0329 -4.6230  0.0407
   95SAPS  H11Y 9453  -0.226   4.887   7.926  1.1598 -1.2344  2.1027
   95SAPS  C312 9454  -0.253   4.692   8.001  0.3004  0.0206 -0.7538
   95SAPS  H12X 9455  -0.158   4.650   7.962 -0.2355 -2.4777  0.5161
   95SAPS  H12Y 9456  -0.323   4.606   7.993  0.1876  0.1393 -1.0625
   95SAPS  C313 9457  -0.223   4.719   8.152 -0.5370 -0.3588  0.1523
   95SAPS  H13X 9458  -0.297   4.786   8.201  0.1736 -1.6208  3.0640
   95SAPS  H13Y 9459  -0.122   4.765   8.160 -0.7884  0.6426 -2.0060
   95SAPS  C314 9460  -0.203   4.593   8.242  0.2540  0.0054  0.2610
   95SAPS  H14X 9461  -0.133   4.526   8.190  0.4776  0.1921  0.3179
   95SAPS  H14Y 9462  -0.297   4.534   8.245  1.2179 -1.5448  0.1089
   95SAPS  C315 9463  -0.154   4.608   8.387 -0.3323  0.0024  0.2070
   95SAPS  H15X 9464  -0.052   4.650   8.396 -0.6309  0.5832  1.0710
   95SAPS  H15Y 9465  -0.152   4.505   8.429 -3.8445 -0.1921  0.0637
   95SAPS  C316 9466  -0.254   4.698   8.476  0.4724 -0.3629  0.7072
   95SAPS  H16X 9467  -0.291   4.790   8.427 -1.5512  0.2131  3.2062
   95SAPS  H16Y 9468  -0.192   4.721   8.565 -0.3136  0.6898  0.9862
   95SAPS  C317 9469  -0.376   4.617   8.525  0.2694  0.4848  0.6109
   95SAPS  H17X 9470  -0.426   4.577   8.435 -1.4064  0.4069  1.5422
   95SAPS  H17Y 9471  -0.449   4.671   8.589  0.9220  1.1005  0.8464
   95SAPS  C318 9472  -0.340   4.494   8.623 -0.3701  0.4831  0.4451
   95SAPS  H18X 9473  -0.266   4.526   8.698  0.0559  1.5804 -0.4406
   95SAPS  H18Y 9474  -0.289   4.411   8.569  0.5066 -1.0263  3.4592
   95SAPS  H18Z 9475  -0.432   4.455   8.672 -0.4495 -1.6023 -1.2392
   96SAPS     N 9476   1.074   6.355   5.772  0.3242  0.6197 -0.1359
   96SAPS   HN1 9477   1.078   6.391   5.674 -3.0578 -0.8231 -0.8627
   96SAPS   HN2 9478   1.000   6.400   5.829 -0.3624 -0.2888 -0.2912
   96SAPS   HN3 9479   1.161   6.373   5.825 -0.0435 -0.5922  0.9064
   96SAPS   C12 9480   1.040   6.201   5.779  0.5680  0.1107  0.0719
   96SAPS  H12A 9481   0.938   6.190   5.746  0.0287  2.3346  0.8927
   96SAPS   C13 9482   1.130   6.098   5.707 -0.2171  0.7320  0.0898
   96SAPS  O13A 9483   1.223   6.152   5.639 -0.4604 -0.1966 -0.5287
   96SAPS  O13B 9484   1.104   5.976   5.701 -0.0290 -0.0512  0.2192
   96SAPS   C11 9485   1.037   6.160   5.931  0.0781 -0.0198  0.2948
   96SAPS  H11A 9486   1.138   6.187   5.969  1.2182  2.7564 -4.2334
   96SAPS  H11B 9487   1.033   6.049   5.927  1.4431 -0.0636 -0.5577
   96SAPS     P 9488   0.935   6.195   6.163 -0.5666  0.6754 -0.2462
   96SAPS   O13 9489   0.846   6.285   6.235  0.5751  0.7184  0.0307
   96SAPS   O14 9490   0.912   6.050   6.186 -0.0731 -0.2188 -0.1884
   96SAPS   O12 9491   0.932   6.215   6.011  0.2097  0.6942 -0.1760
   96SAPS   O11 9492   1.086   6.216   6.193 -0.4205  0.0837 -0.4353
   96SAPS    C1 9493   1.118   6.324   6.281 -0.7378 -0.1231  0.2288
   96SAPS    HA 9494   1.207   6.367   6.231  0.7746 -1.3843  1.7746
   96SAPS    HB 9495   1.044   6.406   6.287  0.1390  0.7010 -0.1282
   96SAPS    C2 9496   1.141   6.278   6.430 -0.1118 -0.1779  0.5507
   96SAPS    HS 9497   1.225   6.207   6.414 -0.1770  0.3148 -2.3244
   96SAPS   O21 9498   1.031   6.216   6.477  0.0488  0.4330  0.3235
   96SAPS   C21 9499   1.034   6.123   6.566 -0.7494 -0.1537 -0.2116
   96SAPS   O22 9500   1.139   6.070   6.610  0.7057 -0.2957  0.2073
   96SAPS   C22 9501   0.891   6.093   6.621  0.3147  0.3388  0.1494
   96SAPS   H2R 9502   0.840   6.192   6.620  0.9945  0.6906 -1.1751
   96SAPS   H2S 9503   0.834   6.028   6.551  2.4305  0.0415 -1.3354
   96SAPS    C3 9504   1.183   6.396   6.527 -0.1730 -0.0074 -0.7274
   96SAPS    HX 9505   1.113   6.482   6.542 -0.6943 -0.6798  0.8311
   96SAPS    HY 9506   1.277   6.447   6.496 -0.1520  0.6918  0.4435
   96SAPS   O31 9507   1.204   6.342   6.658  0.6943 -0.0426  0.1708
   96SAPS   C31 9508   1.323   6.293   6.680 -0.5454 -0.4334  0.3167
   96SAPS   O32 9509   1.419   6.282   6.608 -0.2619 -0.1391 -0.7830
   96SAPS   C32 9510   1.325   6.243   6.825 -0.3124  0.2611 -0.6358
   96SAPS   H2X 9511   1.400   6.161   6.826 -0.0151  0.5160 -1.7287
   96SAPS   H2Y 9512   1.225   6.206   6.857  0.4030 -0.4670  0.8720
   96SAPS   C23 9513   0.909   6.034   6.762  0.0178 -0.5077 -0.9639
   96SAPS   H3R 9514   0.979   6.088   6.829  3.3294 -2.6862 -2.5240
   96SAPS   H3S 9515   0.939   5.927   6.752 -0.7398 -0.6432 -1.9793
   96SAPS   C24 9516   0.770   6.027   6.835  0.5276 -0.1395 -0.4307
   96SAPS   H4R 9517   0.785   5.954   6.917  1.9464 -0.1403 -0.6677
   96SAPS   H4S 9518   0.697   5.987   6.761 -0.1524 -0.7023  0.5351
   96SAPS   C25 9519   0.734   6.155   6.895 -0.2487  0.2898  0.5896
   96SAPS   H5R 9520   0.703   6.228   6.819 -0.5034 -1.6812 -1.2743
   96SAPS   C26 9521   0.743   6.198   7.021  0.2639 -0.0540 -0.0830
   96SAPS   H6R 9522   0.686   6.290   7.041  0.7881  0.2297  0.1127
   96SAPS   C27 9523   0.785   6.111   7.138 -0.3801  0.1126 -0.1576
   96SAPS   H7R 9524   0.845   6.023   7.108 -0.0165  0.5866 -0.8318
   96SAPS   H7S 9525   0.692   6.068   7.182 -0.3773 -0.2753 -0.5275
   96SAPS   C28 9526   0.852   6.206   7.235  0.1285  0.1238 -0.4886
   96SAPS   H8R 9527   0.900   6.294   7.189 -1.7942  1.0732 -0.7237
   96SAPS   C29 9528   0.862   6.201   7.362 -0.5847 -0.2504  0.0187
   96SAPS   H9R 9529   0.901   6.296   7.402  0.4442  0.0136 -1.5362
   96SAPS  C210 9530   0.804   6.100   7.461  0.3856 -0.6058  0.8214
   96SAPS  H10R 9531   0.724   6.044   7.409 -1.1979  2.2024  0.0797
   96SAPS  H10S 9532   0.761   6.149   7.552  0.7343  1.9302 -0.3181
   96SAPS  C211 9533   0.913   6.003   7.501  0.7380 -0.1012  0.4139
   96SAPS  H11R 9534   0.984   5.977   7.422  3.1852  2.1134  1.7898
   96SAPS  C212 9535   0.920   5.941   7.624  0.0977  0.0255 -0.4449
   96SAPS  H12R 9536   1.005   5.873   7.638  0.4800  0.9597  2.0452
   96SAPS  C213 9537   0.824   5.974   7.733 -0.3401 -0.3666 -0.1195
   96SAPS  H13R 9538   0.817   5.898   7.814 -0.8284  0.0792  0.2616
   96SAPS  H13S 9539   0.722   5.968   7.689 -1.0939 -4.4869  1.8846
   96SAPS  C214 9540   0.834   6.110   7.794 -0.0647 -0.2787  0.1527
   96SAPS  H14R 9541   0.862   6.188   7.722 -1.4878  1.5020  1.4795
   96SAPS  C215 9542   0.801   6.146   7.917 -0.4403  0.1175 -0.8451
   96SAPS  H15R 9543   0.813   6.249   7.952 -2.0052  0.7618 -2.1844
   96SAPS  C216 9544   0.768   6.043   8.022 -0.6955  0.5119  0.2155
   96SAPS  H16R 9545   0.841   5.959   8.017  0.6382  1.6359  0.5487
   96SAPS  H16S 9546   0.689   5.972   7.992  2.2216 -4.1773  2.9626
   96SAPS  C217 9547   0.756   6.105   8.166 -0.4990  0.7317  0.5532
   96SAPS  H17R 9548   0.671   6.175   8.176 -0.5462  0.7442  0.1030
   96SAPS  H17S 9549   0.848   6.165   8.181 -0.4563  1.0139 -0.7245
   96SAPS  C218 9550   0.756   6.007   8.274  0.1323 -0.1954  0.2212
   96SAPS  H18R 9551   0.840   5.937   8.254  0.9070  0.7454  0.1416
   96SAPS  H18S 9552   0.663   5.951   8.252 -0.2479  1.5580 -2.8750
   96SAPS  C219 9553   0.766   6.049   8.425  0.5339  0.0166  0.6200
   96SAPS  H19R 9554   0.668   6.088   8.460  0.7067 -1.1955  2.4847
   96SAPS  H19S 9555   0.843   6.129   8.432  0.2835  0.1982  1.3877
   96SAPS  C220 9556   0.801   5.928   8.513 -0.0762  0.2374 -0.1858
   96SAPS  H20R 9557   0.839   5.967   8.610 -0.0132 -1.2902  0.4162
   96SAPS  H20S 9558   0.877   5.866   8.462 -0.4340 -0.3675  0.0156
   96SAPS  H20T 9559   0.716   5.861   8.536  1.7642 -2.3821 -0.7989
   96SAPS   C33 9560   1.340   6.356   6.933  0.4182  0.1268 -0.1313
   96SAPS   H3X 9561   1.253   6.424   6.922  0.0739 -0.3995 -0.7170
   96SAPS   H3Y 9562   1.436   6.411   6.919 -0.4114  1.3568 -1.1069
   96SAPS   C34 9563   1.343   6.292   7.074 -0.1130  0.3594  0.6747
   96SAPS   H4X 9564   1.431   6.230   7.101 -1.1381 -0.0338  3.2213
   96SAPS   H4Y 9565   1.258   6.221   7.079  2.9679 -3.4287  1.9769
   96SAPS   C35 9566   1.313   6.382   7.191 -0.0425 -0.2082  0.1186
   96SAPS   H5X 9567   1.239   6.462   7.167 -2.0326 -1.5450  1.6436
   96SAPS   H5Y 9568   1.407   6.424   7.232  0.5416 -0.0297 -1.3800
   96SAPS   C36 9569   1.247   6.303   7.312  0.2303 -0.3650 -0.2500
   96SAPS   H6X 9570   1.319   6.221   7.328  1.3750  0.7662  0.4581
   96SAPS   H6Y 9571   1.148   6.258   7.290  0.1655 -0.7872  0.8991
   96SAPS   C37 9572   1.239   6.389   7.435 -0.0673  0.0231 -0.5137
   96SAPS   H7X 9573   1.174   6.478   7.430 -1.7815 -1.1318  0.8006
   96SAPS   H7Y 9574   1.338   6.432   7.465  0.0759 -1.4250  1.1462
   96SAPS   C38 9575   1.190   6.296   7.560  0.0292 -0.5510  0.1811
   96SAPS   H8X 9576   1.268   6.217   7.569  0.1388 -0.4747 -0.0998
   96SAPS   H8Y 9577   1.091   6.251   7.538 -1.2850  2.0993  0.4126
   96SAPS   C39 9578   1.181   6.375   7.688  0.1858  0.2134  0.1322
   96SAPS   H9X 9579   1.084   6.429   7.679 -0.6796 -1.2312  0.5982
   96SAPS   H9Y 9580   1.261   6.451   7.695 -1.1983  2.0195 -2.7983
   96SAPS  C310 9581   1.191   6.282   7.813  0.8101 -0.1913  0.3491
   96SAPS  H10X 9582   1.282   6.218   7.811 -0.9093 -2.7099  0.8058
   96SAPS  H10Y 9583   1.110   6.207   7.802  0.6544 -0.0808  0.7599
   96SAPS  C311 9584   1.163   6.355   7.945  0.4532  1.5027  0.3472
   96SAPS  H11X 9585   1.070   6.415   7.940  0.9676  2.2418 -0.5269
   96SAPS  H11Y 9586   1.237   6.436   7.962  2.4957 -0.4501  0.9482
   96SAPS  C312 9587   1.178   6.265   8.075  0.4926  0.5845 -0.1570
   96SAPS  H12X 9588   1.281   6.224   8.078  0.5991  0.7046 -1.7343
   96SAPS  H12Y 9589   1.115   6.174   8.072  0.0689  0.9223 -3.6964
   96SAPS  C313 9590   1.142   6.357   8.201  0.1913  0.6422 -0.4881
   96SAPS  H13X 9591   1.053   6.422   8.189  0.7176  1.6334  0.8637
   96SAPS  H13Y 9592   1.227   6.428   8.210  2.0523 -1.3987 -1.3694
   96SAPS  C314 9593   1.152   6.283   8.331 -0.5755 -0.9315 -0.2938
   96SAPS  H14X 9594   1.253   6.241   8.349 -1.3666 -2.2268  1.3053
   96SAPS  H14Y 9595   1.088   6.193   8.317 -3.4142  0.6390  2.0750
   96SAPS  C315 9596   1.105   6.360   8.456  0.0289  0.1128  0.6732
   96SAPS  H15X 9597   0.994   6.367   8.450  0.1270  0.9500 -0.2327
   96SAPS  H15Y 9598   1.150   6.461   8.467 -0.4254  0.4249 -0.2668
   96SAPS  C316 9599   1.141   6.285   8.582  0.4660 -0.4679 -0.1514
   96SAPS  H16X 9600   1.242   6.306   8.622  0.7394 -0.0219 -1.0543
   96SAPS  H16Y 9601   1.138   6.177   8.556  1.0522 -0.6832  0.6678
   96SAPS  C317 9602   1.035   6.304   8.694  0.2111 -0.1137  0.1169
   96SAPS  H17X 9603   0.943   6.253   8.658  0.5775 -0.0118 -0.9798
   96SAPS  H17Y 9604   1.013   6.412   8.709 -1.3692 -0.2204 -1.2146
   96SAPS  C318 9605   1.074   6.237   8.824 -0.2269 -0.5473 -0.2240
   96SAPS  H18X 9606   1.066   6.127   8.810  0.9556 -0.5285 -1.1234
   96SAPS  H18Y 9607   0.998   6.251   8.904 -0.7614 -1.3024 -0.5959
   96SAPS  H18Z 9608   1.177   6.263   8.857 -0.2325  0.2898 -0.8421
   97SAPS     N 9609   1.824   4.122   6.325  0.2450  0.3172 -0.0127
   97SAPS   HN1 9610   1.755   4.044   6.321  1.6779 -1.0024  0.6995
   97SAPS   HN2 9611   1.819   4.163   6.420  0.2312  1.7243 -0.6114
   97SAPS   HN3 9612   1.778   4.184   6.256  1.5617  1.0968 -0.2024
   97SAPS   C12 9613   1.963   4.095   6.287  0.3543 -0.2213 -0.0036
   97SAPS  H12A 9614   1.964   4.046   6.191 -1.1587 -2.0939  0.8879
   97SAPS   C13 9615   2.065   4.213   6.259 -0.7109  0.3424 -0.2230
   97SAPS  O13A 9616   2.042   4.333   6.289  0.0787 -0.1077 -0.0444
   97SAPS  O13B 9617   2.174   4.189   6.202 -0.0411  0.4723 -0.2957
   97SAPS   C11 9618   2.013   3.990   6.392  0.0510 -0.0605  0.5678
   97SAPS  H11A 9619   1.992   4.034   6.492 -1.9010  0.1298  0.1027
   97SAPS  H11B 9620   2.121   3.974   6.373  0.0433 -1.8357  1.9245
   97SAPS     P 9621   1.954   3.764   6.506 -0.0837  0.0203  0.3419
   97SAPS   O13 9622   1.870   3.644   6.472 -0.1549  0.4032 -0.5883
   97SAPS   O14 9623   2.094   3.733   6.547 -0.0185  0.0504 -0.4258
   97SAPS   O12 9624   1.954   3.863   6.382  0.1715  0.0497  0.2617
   97SAPS   O11 9625   1.899   3.846   6.624 -0.1193  0.0501 -0.7578
   97SAPS    C1 9626   1.759   3.834   6.669  0.2604  0.4269  0.3765
   97SAPS    HA 9627   1.705   3.760   6.606 -0.8316 -1.2245  3.1514
   97SAPS    HB 9628   1.763   3.781   6.767  1.4096 -0.5681 -0.1948
   97SAPS    C2 9629   1.682   3.965   6.679  0.8567  0.5953  0.2948
   97SAPS    HS 9630   1.684   4.008   6.577  2.6757  0.4523  0.2422
   97SAPS   O21 9631   1.760   4.036   6.771  0.0710  0.6358  0.5215
   97SAPS   C21 9632   1.838   4.131   6.737 -0.6027  0.3244 -0.7104
   97SAPS   O22 9633   1.859   4.169   6.619  0.3516 -0.2157  0.0223
   97SAPS   C22 9634   1.886   4.213   6.863  0.2771  0.1246  0.4221
   97SAPS   H2R 9635   1.997   4.205   6.867  0.2620 -0.3866 -0.1905
   97SAPS   H2S 9636   1.861   4.320   6.846  0.7424  0.2082  0.2614
   97SAPS    C3 9637   1.538   3.953   6.722  0.3044  0.2308 -0.4578
   97SAPS    HX 9638   1.480   3.886   6.656 -1.9465 -1.2070  2.7968
   97SAPS    HY 9639   1.489   4.053   6.722  1.4228  0.7824 -0.8000
   97SAPS   O31 9640   1.528   3.900   6.851  1.0064  0.7136 -0.2598
   97SAPS   C31 9641   1.484   3.965   6.958  0.1086 -0.1592  0.1125
   97SAPS   O32 9642   1.428   4.074   6.964  0.3753  0.0649  0.8829
   97SAPS   C32 9643   1.527   3.882   7.078 -0.4544  0.0557  0.7907
   97SAPS   H2X 9644   1.638   3.882   7.078 -0.4470  1.3314  0.7939
   97SAPS   H2Y 9645   1.487   3.779   7.068 -0.1669 -0.0948  1.2151
   97SAPS   C23 9646   1.817   4.169   7.000  0.6541 -0.3943 -0.6807
   97SAPS   H3R 9647   1.820   4.059   7.012  2.8027 -0.1977  0.9095
   97SAPS   H3S 9648   1.712   4.203   7.009  0.8431 -0.0800  0.4082
   97SAPS   C24 9649   1.893   4.229   7.121 -0.1098 -1.6018 -0.3490
   97SAPS   H4R 9650   1.827   4.230   7.210 -0.3278  1.0854 -0.5107
   97SAPS   H4S 9651   1.911   4.337   7.107 -1.2191 -1.4457 -0.6558
   97SAPS   C25 9652   2.019   4.152   7.154 -0.0174  1.1689 -0.4415
   97SAPS   H5R 9653   2.007   4.043   7.139  0.6751  1.3277 -2.2878
   97SAPS   C26 9654   2.144   4.189   7.176  0.4710 -0.7108 -0.7833
   97SAPS   H6R 9655   2.212   4.111   7.213  1.2767  0.0785 -0.5892
   97SAPS   C27 9656   2.179   4.336   7.195 -0.8570  0.5253 -0.0456
   97SAPS   H7R 9657   2.180   4.365   7.302 -1.2740  0.3132  0.0171
   97SAPS   H7S 9658   2.092   4.400   7.171 -2.7211 -1.3224  1.6482
   97SAPS   C28 9659   2.296   4.381   7.112  0.3116  0.3999  0.8881
   97SAPS   H8R 9660   2.341   4.303   7.049 -0.1014  1.8080 -1.1772
   97SAPS   C29 9661   2.350   4.500   7.109  0.5303  0.5301 -0.2364
   97SAPS   H9R 9662   2.447   4.515   7.059 -0.5190  2.7832 -1.6675
   97SAPS  C210 9663   2.304   4.619   7.188 -0.4024  0.1779  0.3468
   97SAPS  H10R 9664   2.387   4.638   7.259  0.6316 -1.5262 -0.3477
   97SAPS  H10S 9665   2.221   4.591   7.257  1.8342 -1.8409  2.3534
   97SAPS  C211 9666   2.259   4.748   7.116  0.0936  0.2569 -1.2195
   97SAPS  H11R 9667   2.259   4.743   7.006 -3.5767  2.4794 -1.3988
   97SAPS  C212 9668   2.225   4.867   7.169 -0.0463  0.0150 -0.9310
   97SAPS  H12R 9669   2.172   4.936   7.102  0.3985 -0.7626 -2.0942
   97SAPS  C213 9670   2.204   4.894   7.317  0.5759  0.0670  0.6598
   97SAPS  H13R 9671   2.208   4.800   7.375 -1.1391 -0.5418 -0.1902
   97SAPS  H13S 9672   2.101   4.922   7.347  0.2800  0.0791 -0.3263
   97SAPS  C214 9673   2.291   5.002   7.375  0.3789  0.8564  0.3347
   97SAPS  H14R 9674   2.345   5.059   7.297 -0.4941  0.3729 -0.6358
   97SAPS  C215 9675   2.322   5.026   7.499 -0.1294 -0.3685 -0.7707
   97SAPS  H15R 9676   2.408   5.091   7.520  0.2344 -1.0765 -0.0615
   97SAPS  C216 9677   2.271   4.960   7.625 -0.1169  0.0037 -0.5214
   97SAPS  H16R 9678   2.187   4.890   7.606  0.6665 -1.3501  0.9615
   97SAPS  H16S 9679   2.233   5.036   7.697  2.4760 -0.4805  1.4499
   97SAPS  C217 9680   2.393   4.887   7.699  0.2976 -0.1344  0.6882
   97SAPS  H17R 9681   2.447   4.965   7.757  2.4957 -0.0685 -1.3658
   97SAPS  H17S 9682   2.459   4.845   7.620  0.1920 -0.3498  0.7141
   97SAPS  C218 9683   2.337   4.772   7.786 -0.8196  1.1369 -0.1398
   97SAPS  H18R 9684   2.276   4.697   7.730  0.4507  0.3462 -0.4782
   97SAPS  H18S 9685   2.276   4.817   7.868 -3.1608  0.7090 -1.5859
   97SAPS  C219 9686   2.454   4.706   7.859  0.5777 -0.2255  1.1658
   97SAPS  H19R 9687   2.516   4.780   7.914 -0.8860  2.1644 -0.2888
   97SAPS  H19S 9688   2.523   4.653   7.789  0.9064 -0.1423  1.4287
   97SAPS  C220 9689   2.405   4.604   7.965  0.0274 -0.0242 -0.1631
   97SAPS  H20R 9690   2.489   4.542   8.004  0.7951  1.1124  0.0014
   97SAPS  H20S 9691   2.333   4.522   7.941 -1.1577  0.5754  1.2609
   97SAPS  H20T 9692   2.372   4.666   8.050  1.4231 -0.5425  0.7787
   97SAPS   C33 9693   1.481   3.956   7.207 -0.3276 -0.3207  0.3443
   97SAPS   H3X 9694   1.370   3.957   7.214 -0.4872  3.1354 -1.4921
   97SAPS   H3Y 9695   1.513   4.061   7.220 -2.6542  0.4246  0.2357
   97SAPS   C34 9696   1.528   3.871   7.330  0.9445  0.5732  0.9444
   97SAPS   H4X 9697   1.637   3.864   7.310  0.4404  0.0873 -1.8728
   97SAPS   H4Y 9698   1.489   3.767   7.326  3.1787 -0.2950  1.2954
   97SAPS   C35 9699   1.487   3.926   7.463 -0.6823  0.1024  0.1822
   97SAPS   H5X 9700   1.498   3.843   7.536 -0.6041  0.3406  0.4427
   97SAPS   H5Y 9701   1.380   3.957   7.458 -0.5356  0.3792 -1.5789
   97SAPS   C36 9702   1.560   4.055   7.500  0.0361 -0.0351 -1.0993
   97SAPS   H6X 9703   1.545   4.131   7.421  0.7604  1.0631 -0.1925
   97SAPS   H6Y 9704   1.668   4.029   7.507 -0.3734 -1.1230  1.7637
   97SAPS   C37 9705   1.506   4.106   7.628  0.2011  0.2539 -0.5148
   97SAPS   H7X 9706   1.537   4.040   7.711  3.2542  1.6139 -0.5395
   97SAPS   H7Y 9707   1.395   4.101   7.625  0.0981  0.1499  2.4103
   97SAPS   C38 9708   1.565   4.243   7.658 -0.2608 -0.7442  0.0121
   97SAPS   H8X 9709   1.599   4.288   7.563  0.1689  0.3494  0.6768
   97SAPS   H8Y 9710   1.661   4.236   7.714  0.7559  2.7244 -1.1224
   97SAPS   C39 9711   1.467   4.339   7.740  0.4305  0.4075 -0.5048
   97SAPS   H9X 9712   1.375   4.363   7.684 -0.5109  1.6737  1.5161
   97SAPS   H9Y 9713   1.511   4.438   7.765  0.4448  0.4111 -0.5432
   97SAPS  C310 9714   1.423   4.282   7.881  0.0592 -0.2453  0.0943
   97SAPS  H10X 9715   1.511   4.269   7.948 -1.5170 -1.3402  2.0402
   97SAPS  H10Y 9716   1.390   4.177   7.862  1.0295 -0.7308  1.0378
   97SAPS  C311 9717   1.316   4.374   7.930  0.0230  0.3964 -0.1836
   97SAPS  H11X 9718   1.243   4.377   7.847  0.2824  1.5871 -0.3746
   97SAPS  H11Y 9719   1.357   4.476   7.944 -2.2070  1.3531 -0.3819
   97SAPS  C312 9720   1.248   4.344   8.065  0.0387  0.3831 -0.6174
   97SAPS  H12X 9721   1.167   4.268   8.053  0.3239 -0.0306  0.0534
   97SAPS  H12Y 9722   1.210   4.439   8.107  2.5544  0.8135  0.7864
   97SAPS  C313 9723   1.356   4.300   8.170 -0.1569  0.3297  0.6755
   97SAPS  H13X 9724   1.418   4.213   8.139 -0.2927 -0.8791  3.6038
   97SAPS  H13Y 9725   1.310   4.259   8.262  0.9026 -0.7304  0.7487
   97SAPS  C314 9726   1.444   4.415   8.215  0.2117 -0.4556  0.1243
   97SAPS  H14X 9727   1.381   4.488   8.271  1.5872  0.5249  0.4000
   97SAPS  H14Y 9728   1.482   4.474   8.129  0.2912  3.2062  2.5646
   97SAPS  C315 9729   1.575   4.365   8.282  0.5147 -0.0352  0.1774
   97SAPS  H15X 9730   1.648   4.332   8.205  0.2010 -5.1178  1.8932
   97SAPS  H15Y 9731   1.544   4.278   8.344 -2.9271  0.3471 -0.9609
   97SAPS  C316 9732   1.632   4.465   8.382  0.2403 -0.3815 -0.4032
   97SAPS  H16X 9733   1.542   4.519   8.419 -0.1803  0.1563 -2.1902
   97SAPS  H16Y 9734   1.704   4.536   8.336 -0.0748  1.2484  1.5172
   97SAPS  C317 9735   1.713   4.393   8.496 -0.9924  0.1366 -0.0469
   97SAPS  H17X 9736   1.789   4.466   8.531 -2.2589  2.0237 -1.1233
   97SAPS  H17Y 9737   1.771   4.317   8.439  1.0119 -0.1917  2.3299
   97SAPS  C318 9738   1.631   4.334   8.616  0.4416 -0.0453  0.5919
   97SAPS  H18X 9739   1.540   4.290   8.570  1.7529  0.0975 -2.2993
   97SAPS  H18Y 9740   1.587   4.417   8.675  0.9848  1.1512 -0.6426
   97SAPS  H18Z 9741   1.688   4.268   8.684  2.6774  0.4597 -0.7142
   98SAPS     N 9742   0.025   4.824   6.052 -0.0254  0.7491 -0.0599
   98SAPS   HN1 9743   0.002   4.789   5.957 -0.9469  0.6473  0.1939
   98SAPS   HN2 9744   0.091   4.904   6.052 -0.0551  0.7876 -1.1172
   98SAPS   HN3 9745   0.085   4.758   6.105  1.4348  1.3115 -1.0001
   98SAPS   C12 9746  -0.094   4.844   6.135  0.2715  0.4216 -0.5023
   98SAPS  H12A 9747  -0.071   4.882   6.234  1.2775 -0.9297 -0.2007
   98SAPS   C13 9748  -0.191   4.954   6.079 -0.9485 -0.3939 -0.1673
   98SAPS  O13A 9749  -0.178   5.007   5.966 -0.3177 -0.2665 -0.6471
   98SAPS  O13B 9750  -0.271   4.986   6.164  0.1338  0.4402  0.0005
   98SAPS   C11 9751  -0.167   4.710   6.156 -0.5135 -0.0922 -0.0489
   98SAPS  H11A 9752  -0.172   4.661   6.056 -2.8616  1.9886 -0.9891
   98SAPS  H11B 9753  -0.268   4.719   6.201  0.1665 -2.3867  2.0523
   98SAPS     P 9754  -0.127   4.479   6.261  0.1326 -0.2253 -0.0942
   98SAPS   O13 9755  -0.254   4.459   6.192  0.0711  0.0657 -0.5722
   98SAPS   O14 9756  -0.008   4.393   6.221 -0.1888  0.8188  0.0745
   98SAPS   O12 9757  -0.084   4.629   6.241  0.5686 -0.1698 -0.1657
   98SAPS   O11 9758  -0.147   4.460   6.419  0.2553 -0.0776  0.2044
   98SAPS    C1 9759  -0.052   4.410   6.510  0.2650  0.3932  0.3332
   98SAPS    HA 9760   0.051   4.452   6.503  0.0394  0.6383 -2.3150
   98SAPS    HB 9761  -0.087   4.438   6.611  0.9517 -1.0139  0.9788
   98SAPS    C2 9762  -0.065   4.252   6.516 -0.1707 -0.4867 -0.2161
   98SAPS    HS 9763  -0.067   4.218   6.410  0.1223 -0.4971 -0.2192
   98SAPS   O21 9764  -0.185   4.218   6.593 -0.2374  0.2920  0.1725
   98SAPS   C21 9765  -0.210   4.094   6.585  0.5194  0.6013  0.4435
   98SAPS   O22 9766  -0.143   4.005   6.532  0.0756 -0.1030 -1.0110
   98SAPS   C22 9767  -0.338   4.076   6.666  0.2306  0.4635 -0.1915
   98SAPS   H2R 9768  -0.416   4.142   6.622  0.9570  2.0655  0.9024
   98SAPS   H2S 9769  -0.369   3.970   6.651  0.0257  0.3031  1.2730
   98SAPS    C3 9770   0.064   4.186   6.580  0.2856  0.2671 -0.3626
   98SAPS    HX 9771   0.153   4.214   6.519 -0.8007  2.0079 -1.2316
   98SAPS    HY 9772   0.064   4.076   6.567  2.9667  0.4752 -2.7896
   98SAPS   O31 9773   0.084   4.240   6.709 -0.1616  0.3011 -0.0899
   98SAPS   C31 9774   0.068   4.154   6.803  0.2298  0.6575  0.0397
   98SAPS   O32 9775   0.058   4.035   6.787 -0.4869  0.9213  0.0282
   98SAPS   C32 9776   0.054   4.218   6.936 -0.4872 -0.1445  0.2144
   98SAPS   H2X 9777  -0.032   4.287   6.925 -2.0468 -2.2353 -1.0517
   98SAPS   H2Y 9778   0.141   4.285   6.951 -0.2058 -1.0704  3.2226
   98SAPS   C23 9779  -0.322   4.117   6.814 -0.1746  0.2545 -0.5522
   98SAPS   H3R 9780  -0.279   4.219   6.824 -0.2509  0.1623  0.7970
   98SAPS   H3S 9781  -0.265   4.037   6.865 -2.2756 -0.0957  1.3074
   98SAPS   C24 9782  -0.447   4.107   6.897  0.1438 -0.0858 -0.5618
   98SAPS   H4R 9783  -0.485   4.003   6.894 -0.0773  0.0357 -2.4034
   98SAPS   H4S 9784  -0.526   4.169   6.850  0.7407  0.3904 -0.9483
   98SAPS   C25 9785  -0.424   4.154   7.040 -0.7817  0.2457 -0.6213
   98SAPS   H5R 9786  -0.353   4.238   7.046  0.4383 -0.6410 -2.0619
   98SAPS   C26 9787  -0.482   4.118   7.157  0.7019  0.0026 -0.1791
   98SAPS   H6R 9788  -0.443   4.160   7.251  0.3386 -0.9421  0.3946
   98SAPS   C27 9789  -0.588   4.013   7.158 -0.1270  0.6786  0.0546
   98SAPS   H7R 9790  -0.631   3.981   7.061 -0.2302 -1.6311  0.8398
   98SAPS   H7S 9791  -0.673   4.050   7.219 -0.6979 -0.4877 -0.0060
   98SAPS   C28 9792  -0.526   3.890   7.221  0.3039  0.5280  0.3365
   98SAPS   H8R 9793  -0.459   3.840   7.150 -0.7395  0.9804 -0.9764
   98SAPS   C29 9794  -0.540   3.832   7.341 -0.1214 -0.0814 -0.3653
   98SAPS   H9R 9795  -0.482   3.741   7.360 -0.8820 -0.1197  1.9475
   98SAPS  C210 9796  -0.627   3.878   7.451 -0.1057  0.2056  0.0822
   98SAPS  H10R 9797  -0.646   3.786   7.511 -0.2329 -0.1543 -0.4979
   98SAPS  H10S 9798  -0.726   3.908   7.410  1.6989  4.5877 -1.2796
   98SAPS  C211 9799  -0.573   4.000   7.520 -0.6660 -0.0984 -0.7406
   98SAPS  H11R 9800  -0.546   4.081   7.450 -0.6516  1.1086  0.6244
   98SAPS  C212 9801  -0.541   4.003   7.651  0.2094  0.7898 -0.3205
   98SAPS  H12R 9802  -0.482   4.084   7.695 -1.2974  0.4509  2.4137
   98SAPS  C213 9803  -0.561   3.893   7.755  0.3638  0.2502 -0.6469
   98SAPS  H13R 9804  -0.497   3.931   7.838  0.4412 -0.5686 -0.3317
   98SAPS  H13S 9805  -0.525   3.792   7.725 -0.7511  0.0413 -1.3265
   98SAPS  C214 9806  -0.705   3.883   7.812  0.0739 -0.1130 -0.1273
   98SAPS  H14R 9807  -0.784   3.922   7.747 -0.6039  0.2304  0.9019
   98SAPS  C215 9808  -0.745   3.846   7.938  0.2791  0.4986  0.2420
   98SAPS  H15R 9809  -0.853   3.832   7.953  0.2876 -1.4471 -1.2230
   98SAPS  C216 9810  -0.648   3.790   8.036  0.7751 -0.2902 -0.7348
   98SAPS  H16R 9811  -0.552   3.772   7.983  0.3206 -1.3799 -1.1939
   98SAPS  H16S 9812  -0.682   3.691   8.072  1.3831  0.8519  3.1972
   98SAPS  C217 9813  -0.618   3.888   8.156  0.1240 -0.3497 -0.0966
   98SAPS  H17R 9814  -0.713   3.900   8.214  1.0184  1.6727  0.9965
   98SAPS  H17S 9815  -0.594   3.987   8.111  2.1830 -0.2152  1.2091
   98SAPS  C218 9816  -0.500   3.856   8.247  0.7315  0.3897 -0.2506
   98SAPS  H18R 9817  -0.480   3.925   8.331  2.8599  0.0335 -0.4258
   98SAPS  H18S 9818  -0.410   3.853   8.181  0.3861  2.2735 -0.8416
   98SAPS  C219 9819  -0.522   3.710   8.300  0.1589  0.1393  0.0611
   98SAPS  H19R 9820  -0.535   3.635   8.219 -0.0759  2.9914 -2.6622
   98SAPS  H19S 9821  -0.606   3.708   8.372  1.7367  1.6162  2.0028
   98SAPS  C220 9822  -0.404   3.663   8.382 -0.6124 -0.2442 -0.1790
   98SAPS  H20R 9823  -0.364   3.745   8.446  0.9222  0.6936 -2.2791
   98SAPS  H20S 9824  -0.322   3.613   8.326 -0.9189 -1.0452  0.0836
   98SAPS  H20T 9825  -0.445   3.582   8.446  0.3389 -2.0860 -1.8424
   98SAPS   C33 9826   0.032   4.123   7.053  0.4076  0.3755 -0.1590
   98SAPS   H3X 9827   0.104   4.039   7.047 -1.2702 -1.0875 -0.0631
   98SAPS   H3Y 9828  -0.071   4.082   7.050 -0.7405  3.2031 -3.2548
   98SAPS   C34 9829   0.072   4.200   7.180 -0.8117 -0.0235 -0.3853
   98SAPS   H4X 9830   0.171   4.246   7.160 -0.6189 -0.8422 -1.3334
   98SAPS   H4Y 9831   0.081   4.124   7.260  0.9470  1.2683  0.6873
   98SAPS   C35 9832  -0.016   4.324   7.227  0.3313  0.5698 -0.1832
   98SAPS   H5X 9833  -0.082   4.344   7.139  0.1939  0.9038 -0.0039
   98SAPS   H5Y 9834   0.055   4.409   7.236 -0.1669  1.1526 -1.5402
   98SAPS   C36 9835  -0.104   4.302   7.349 -0.0643  0.6418 -0.6108
   98SAPS   H6X 9836  -0.158   4.205   7.357  1.2676 -0.1282 -0.6428
   98SAPS   H6Y 9837  -0.185   4.375   7.366  0.0136  0.5699  0.0707
   98SAPS   C37 9838  -0.013   4.299   7.476  0.4907 -0.1921  0.6322
   98SAPS   H7X 9839   0.041   4.396   7.484 -0.8335  0.7087 -1.1193
   98SAPS   H7Y 9840   0.058   4.214   7.463  0.1486 -0.7645  2.4697
   98SAPS   C38 9841  -0.103   4.294   7.602 -0.1016  0.4747 -0.1093
   98SAPS   H8X 9842  -0.192   4.229   7.585 -0.1919  0.6263 -0.2207
   98SAPS   H8Y 9843  -0.145   4.397   7.614  0.3074  0.4372  1.8389
   98SAPS   C39 9844  -0.035   4.259   7.744 -0.8229 -0.5147 -0.3793
   98SAPS   H9X 9845   0.008   4.356   7.776 -0.9690 -0.5738 -0.0045
   98SAPS   H9Y 9846   0.050   4.189   7.728  0.0126  0.3686  0.1390
   98SAPS  C310 9847  -0.128   4.226   7.858  0.3306 -0.5672 -0.5230
   98SAPS  H10X 9848  -0.186   4.131   7.851  0.6114 -0.8499  0.7807
   98SAPS  H10Y 9849  -0.210   4.300   7.870  0.2592 -0.6860 -0.2713
   98SAPS  C311 9850  -0.043   4.218   7.989 -0.7728 -0.4096 -0.1948
   98SAPS  H11X 9851  -0.016   4.323   8.017  0.1322 -0.9579  1.0380
   98SAPS  H11Y 9852   0.048   4.162   7.958 -1.6341 -1.0756 -1.5750
   98SAPS  C312 9853  -0.121   4.144   8.102  0.0253 -0.6264  0.5833
   98SAPS  H12X 9854  -0.125   4.037   8.072  1.0748 -0.8419  1.2069
   98SAPS  H12Y 9855  -0.228   4.175   8.113  0.6408  0.6832  3.2952
   98SAPS  C313 9856  -0.048   4.149   8.242  0.3022 -0.4002  0.2719
   98SAPS  H13X 9857  -0.055   4.246   8.296 -0.0801 -1.1438  1.5896
   98SAPS  H13Y 9858   0.059   4.125   8.224  0.2523  0.1948 -0.8622
   98SAPS  C314 9859  -0.107   4.054   8.343 -0.3200  0.6000 -0.1423
   98SAPS  H14X 9860  -0.142   3.958   8.299  2.1690  0.0324 -0.9325
   98SAPS  H14Y 9861  -0.193   4.112   8.383  1.8344  3.0578  1.0120
   98SAPS  C315 9862  -0.003   4.044   8.455  0.0144  0.2382 -0.5320
   98SAPS  H15X 9863   0.047   4.142   8.470 -0.0575  0.5644 -2.2994
   98SAPS  H15Y 9864   0.074   3.967   8.435 -1.3111 -1.2376 -0.0243
   98SAPS  C316 9865  -0.058   3.979   8.583 -0.4534 -0.7527 -0.4398
   98SAPS  H16X 9866  -0.158   4.025   8.593 -0.8582 -0.9631 -3.2150
   98SAPS  H16Y 9867   0.005   4.005   8.671  0.1083  2.2201 -1.6827
   98SAPS  C317 9868  -0.071   3.830   8.559 -0.0970  0.4040  0.2326
   98SAPS  H17X 9869   0.026   3.778   8.569 -1.3669 -2.2264 -0.5796
   98SAPS  H17Y 9870  -0.114   3.808   8.459 -0.2184 -0.8255  0.5413
   98SAPS  C318 9871  -0.163   3.775   8.665  0.0394  0.2275  0.2677
   98SAPS  H18X 9872  -0.154   3.665   8.652 -0.1239  0.0460  1.6422
   98SAPS  H18Y 9873  -0.267   3.809   8.644 -0.3694 -1.2241 -0.0909
   98SAPS  H18Z 9874  -0.131   3.798   8.768  2.2658 -0.7916 -0.1700
   99SAPS     N 9875   6.345   1.172   6.294  0.3271 -0.6920 -0.5262
   99SAPS   HN1 9876   6.331   1.085   6.349 -0.8001 -0.1029  0.1301
   99SAPS   HN2 9877   6.439   1.161   6.250  0.9196  1.2799  0.1821
   99SAPS   HN3 9878   6.355   1.257   6.352 -1.1351  0.1311 -1.4515
   99SAPS   C12 9879   6.242   1.200   6.196 -0.1641 -0.5987  0.3789
   99SAPS  H12A 9880   6.288   1.236   6.105 -1.6039 -0.8011 -0.4620
   99SAPS   C13 9881   6.175   1.073   6.146 -0.2671  0.0380 -0.6545
   99SAPS  O13A 9882   6.210   0.958   6.195  0.5058  0.2420  0.6648
   99SAPS  O13B 9883   6.097   1.086   6.045 -0.0921  0.0540 -0.7369
   99SAPS   C11 9884   6.138   1.311   6.252  0.1480  0.5720  0.3566
   99SAPS  H11A 9885   6.073   1.260   6.326 -0.1428  2.3439  1.3293
   99SAPS  H11B 9886   6.074   1.345   6.168  1.2143  4.5554  1.0604
   99SAPS     P 9887   6.148   1.563   6.337  0.0469  0.1899  0.2090
   99SAPS   O13 9888   6.233   1.680   6.282  0.6630  0.3957  0.1143
   99SAPS   O14 9889   6.008   1.558   6.291 -0.5623  0.2840 -0.5720
   99SAPS   O12 9890   6.213   1.421   6.311 -0.2466 -0.4148  0.0187
   99SAPS   O11 9891   6.154   1.578   6.500  0.0260  0.3464  0.3192
   99SAPS    C1 9892   6.118   1.465   6.574 -0.1194 -0.1801 -0.5048
   99SAPS    HA 9893   6.007   1.461   6.579 -0.1267  1.5210  1.3610
   99SAPS    HB 9894   6.161   1.366   6.546  3.2300  0.7105  1.3018
   99SAPS    C2 9895   6.169   1.491   6.719 -0.6022 -0.0141 -0.8996
   99SAPS    HS 9896   6.201   1.392   6.757  0.1773  1.1542  1.5733
   99SAPS   O21 9897   6.069   1.550   6.811 -0.3403  0.3285  0.2617
   99SAPS   C21 9898   5.975   1.461   6.846 -0.4425  0.0176 -0.6675
   99SAPS   O22 9899   5.956   1.357   6.794 -0.2894  0.2809  0.1766
   99SAPS   C22 9900   5.883   1.526   6.946 -1.0108  0.0657  0.4848
   99SAPS   H2R 9901   5.945   1.534   7.038  1.8943  0.3056 -1.4509
   99SAPS   H2S 9902   5.849   1.626   6.911 -1.1556  0.0312  0.5238
   99SAPS    C3 9903   6.297   1.585   6.728 -0.0839 -0.2939 -1.2913
   99SAPS    HX 9904   6.287   1.680   6.672 -1.2619 -0.2737 -1.0705
   99SAPS    HY 9905   6.371   1.526   6.670  0.0989 -1.2721 -0.0624
   99SAPS   O31 9906   6.353   1.601   6.856 -0.0222  0.1359  0.3113
   99SAPS   C31 9907   6.417   1.713   6.886 -0.2990 -0.1039  0.5446
   99SAPS   O32 9908   6.433   1.809   6.809  0.1242  0.4977 -0.1245
   99SAPS   C32 9909   6.443   1.726   7.036  0.0963 -0.2810 -0.3034
   99SAPS   H2X 9910   6.500   1.818   7.061  1.9014 -1.1497 -1.1293
   99SAPS   H2Y 9911   6.521   1.650   7.058  0.8929  0.4810 -0.4409
   99SAPS   C23 9912   5.753   1.440   6.968 -0.0251 -0.2670  0.2472
   99SAPS   H3R 9913   5.711   1.400   6.873 -1.6747 -0.7723  1.1763
   99SAPS   H3S 9914   5.680   1.512   7.009  0.2266 -0.1953  0.5674
   99SAPS   C24 9915   5.763   1.322   7.075 -0.5923 -0.0378  0.2967
   99SAPS   H4R 9916   5.820   1.359   7.163  1.8379 -2.0064 -0.3943
   99SAPS   H4S 9917   5.824   1.245   7.023  0.7721  1.8432 -0.9828
   99SAPS   C25 9918   5.626   1.272   7.108 -0.1117  0.3463  0.3806
   99SAPS   H5R 9919   5.578   1.215   7.027 -0.0159  1.0123 -0.1571
   99SAPS   C26 9920   5.554   1.301   7.220  0.3891 -0.1439 -0.1137
   99SAPS   H6R 9921   5.454   1.258   7.235 -0.6402  2.3300  0.3865
   99SAPS   C27 9922   5.588   1.386   7.336  0.4470 -0.2287 -0.0652
   99SAPS   H7R 9923   5.509   1.465   7.335  0.5580 -0.1134 -2.5030
   99SAPS   H7S 9924   5.687   1.430   7.311 -0.3857  0.9821 -1.3210
   99SAPS   C28 9925   5.604   1.306   7.465  0.2685  0.7841  0.5860
   99SAPS   H8R 9926   5.550   1.211   7.478  0.2689  0.5428 -1.0523
   99SAPS   C29 9927   5.642   1.364   7.578  0.0613  0.1005 -0.1577
   99SAPS   H9R 9928   5.646   1.297   7.666 -1.7224  0.6460  0.3701
   99SAPS  C210 9929   5.676   1.512   7.605  0.2793  0.0119 -0.0481
   99SAPS  H10R 9930   5.600   1.550   7.676  1.4690  0.8897  0.7743
   99SAPS  H10S 9931   5.669   1.579   7.517  2.1911  1.2502  0.7148
   99SAPS  C211 9932   5.812   1.525   7.666  0.1982  0.1805  0.6398
   99SAPS  H11R 9933   5.900   1.517   7.600  1.9173 -1.9526  3.1042
   99SAPS  C212 9934   5.849   1.560   7.794  0.0617  0.9871  0.1865
   99SAPS  H12R 9935   5.951   1.565   7.834  0.2672  0.4747 -0.2877
   99SAPS  C213 9936   5.746   1.600   7.900 -0.5690 -0.1268 -0.4068
   99SAPS  H13R 9937   5.793   1.587   8.000  0.2987 -1.4046 -0.9518
   99SAPS  H13S 9938   5.656   1.535   7.897 -2.1248  2.0622 -1.7398
   99SAPS  C214 9939   5.686   1.741   7.895  0.3593  0.3222 -0.0886
   99SAPS  H14R 9940   5.639   1.759   7.798  1.2802 -2.4444 -1.0956
   99SAPS  C215 9941   5.693   1.845   7.981 -0.6318  0.3975  0.5499
   99SAPS  H15R 9942   5.632   1.934   7.960 -2.7707 -1.5935 -2.0551
   99SAPS  C216 9943   5.767   1.849   8.115  0.0934  0.0640 -0.1054
   99SAPS  H16R 9944   5.803   1.749   8.148  0.2357  0.7757  1.9918
   99SAPS  H16S 9945   5.696   1.883   8.194  0.1452  1.2291 -0.5543
   99SAPS  C217 9946   5.884   1.947   8.109 -0.7926  0.7315  0.0097
   99SAPS  H17R 9947   5.861   2.046   8.065  1.1270  1.0218 -0.4194
   99SAPS  H17S 9948   5.974   1.910   8.056 -1.1135 -1.6749  1.1085
   99SAPS  C218 9949   5.958   1.970   8.242  0.1499  0.7290  0.1782
   99SAPS  H18R 9950   6.048   2.028   8.213  0.8755  0.0793  1.1190
   99SAPS  H18S 9951   6.004   1.873   8.269 -0.3638  0.8781  1.6266
   99SAPS  C219 9952   5.881   2.044   8.356 -0.3154 -0.1069  0.1218
   99SAPS  H19R 9953   5.799   1.982   8.396  0.3341 -0.5934  0.6969
   99SAPS  H19S 9954   5.846   2.140   8.312 -2.3394  0.3159  2.5328
   99SAPS  C220 9955   5.977   2.070   8.470 -0.6360  0.1035  0.2040
   99SAPS  H20R 9956   6.037   1.979   8.492 -1.6324 -0.8216 -0.8391
   99SAPS  H20S 9957   5.944   2.088   8.575  1.3580  0.1741  0.8387
   99SAPS  H20T 9958   6.045   2.155   8.445  0.5273 -1.3673 -1.7794
   99SAPS   C33 9959   6.322   1.731   7.129  0.2397 -0.2202  0.2217
   99SAPS   H3X 9960   6.267   1.637   7.108  0.5827 -0.2585 -0.5541
   99SAPS   H3Y 9961   6.254   1.814   7.100 -0.6485 -0.4296  1.6784
   99SAPS   C34 9962   6.368   1.741   7.277  0.0889 -0.0702 -0.8527
   99SAPS   H4X 9963   6.400   1.844   7.305  1.1453 -0.8928  1.0395
   99SAPS   H4Y 9964   6.464   1.689   7.294  0.4744  0.5863 -1.0111
   99SAPS   C35 9965   6.279   1.689   7.387  0.3668  0.1257 -0.7934
   99SAPS   H5X 9966   6.277   1.578   7.391 -3.6809  0.1512 -0.3358
   99SAPS   H5Y 9967   6.177   1.722   7.360 -0.4968 -2.5276 -0.9529
   99SAPS   C36 9968   6.300   1.743   7.524  0.0445 -0.2756 -0.3768
   99SAPS   H6X 9969   6.283   1.853   7.526 -1.1324 -0.4831  1.4795
   99SAPS   H6Y 9970   6.407   1.725   7.548  0.5781 -1.0988 -3.2079
   99SAPS   C37 9971   6.205   1.676   7.627 -0.7060  0.0914 -0.1643
   99SAPS   H7X 9972   6.215   1.567   7.609  0.0141 -0.4057  2.9876
   99SAPS   H7Y 9973   6.101   1.715   7.624 -0.8939 -0.2257  1.5948
   99SAPS   C38 9974   6.227   1.726   7.771 -0.4288 -0.0342 -0.0047
   99SAPS   H8X 9975   6.145   1.699   7.841 -0.2288  0.9975  0.6317
   99SAPS   H8Y 9976   6.238   1.836   7.767 -0.8098 -0.0293 -1.2956
   99SAPS   C39 9977   6.353   1.663   7.839 -0.1992  0.0488  0.3096
   99SAPS   H9X 9978   6.441   1.673   7.772  2.1799  0.7128  3.3720
   99SAPS   H9Y 9979   6.328   1.556   7.861 -1.4043 -0.0304 -1.3941
   99SAPS  C310 9980   6.402   1.738   7.964 -0.4690  0.6983 -0.4425
   99SAPS  H10X 9981   6.407   1.845   7.934  1.3652  0.0128 -2.6802
   99SAPS  H10Y 9982   6.505   1.706   7.990 -1.4295  1.2640  4.6866
   99SAPS  C311 9983   6.305   1.720   8.081 -0.5189 -0.0669 -0.0589
   99SAPS  H11X 9984   6.311   1.612   8.105 -1.0812 -0.1873 -0.4334
   99SAPS  H11Y 9985   6.202   1.740   8.043 -1.4640 -2.6713  1.0369
   99SAPS  C312 9986   6.349   1.804   8.200  0.4078  0.3703 -0.4487
   99SAPS  H12X 9987   6.250   1.806   8.251  0.7175  0.9853  0.1215
   99SAPS  H12Y 9988   6.372   1.911   8.183  4.7553 -0.2856  0.8822
   99SAPS  C313 9989   6.463   1.731   8.282  0.0427 -0.0910  0.4376
   99SAPS  H13X 9990   6.558   1.770   8.240 -0.0191 -1.7106 -1.2530
   99SAPS  H13Y 9991   6.467   1.623   8.259  0.3080  0.2738 -1.2865
   99SAPS  C314 9992   6.457   1.779   8.430 -0.1736 -0.2533  0.4550
   99SAPS  H14X 9993   6.353   1.760   8.467 -1.2357  3.0630 -0.6520
   99SAPS  H14Y 9994   6.457   1.890   8.426 -1.3552 -0.3039 -1.2271
   99SAPS  C315 9995   6.573   1.721   8.517  0.8404 -0.5106 -0.5341
   99SAPS  H15X 9996   6.667   1.741   8.463  0.3973  1.3221 -0.6742
   99SAPS  H15Y 9997   6.558   1.611   8.528 -0.0387 -0.3144  0.3441
   99SAPS  C316 9998   6.585   1.788   8.661 -0.2455  0.2783  0.6086
   99SAPS  H16X 9999   6.480   1.789   8.699 -1.2708  1.2055 -2.1431
   99SAPS  H16Y10000   6.616   1.894   8.671  3.1247 -0.6374  0.2784
   99SAPS  C31710001   6.674   1.700   8.746 -0.4328  0.6090  0.2646
   99SAPS  H17X10002   6.759   1.670   8.681 -0.6689  1.2389 -0.3395
   99SAPS  H17Y10003   6.631   1.604   8.784  1.6287  0.2182  1.6606
   99SAPS  C31810004   6.743   1.757   8.868  0.2962 -0.0845  0.5618
   99SAPS  H18X10005   6.666   1.823   8.914 -4.0688 -1.8867 -3.7444
   99SAPS  H18Y10006   6.828   1.817   8.829 -0.5522  0.1266 -0.9837
   99SAPS  H18Z10007   6.780   1.675   8.934  1.9919 -0.3061 -0.6236
  100SAPS     N10008   1.624   3.570   6.393  0.4506 -0.1334  0.2867
  100SAPS   HN110009   1.570   3.659   6.388  0.4148 -0.1636  0.1636
  100SAPS   HN210010   1.587   3.499   6.459 -1.1869 -0.8839 -1.4291
  100SAPS   HN310011   1.721   3.591   6.425 -0.3075  4.1332  0.1407
  100SAPS   C1210012   1.625   3.499   6.265  0.4888 -0.3860 -0.0086
  100SAPS  H12A10013   1.524   3.466   6.248  0.1187  0.5328  0.3686
  100SAPS   C1310014   1.663   3.586   6.143 -0.4672 -0.1210  0.3996
  100SAPS  O13A10015   1.678   3.709   6.147  0.0796 -0.0785 -0.4931
  100SAPS  O13B10016   1.657   3.525   6.032 -0.2590 -0.0688 -0.1976
  100SAPS   C1110017   1.734   3.384   6.265 -0.1469  0.1290  0.0272
  100SAPS  H11A10018   1.829   3.432   6.298  0.3482 -1.5890  1.1301
  100SAPS  H11B10019   1.759   3.349   6.163  0.3717  1.6091 -0.3713
  100SAPS     P10020   1.811   3.168   6.384  0.0957  0.3099 -0.0427
  100SAPS   O1310021   1.763   3.045   6.324 -0.2155  0.2766 -0.1299
  100SAPS   O1410022   1.941   3.216   6.340  0.2562 -0.6676  0.3508
  100SAPS   O1210023   1.705   3.285   6.361  0.0852  0.4882 -0.3830
  100SAPS   O1110024   1.811   3.150   6.544  0.0764 -0.2401 -0.2513
  100SAPS    C110025   1.795   3.269   6.626 -0.1607  0.5725 -1.1736
  100SAPS    HA10026   1.737   3.351   6.578 -1.3415 -0.0103 -0.7600
  100SAPS    HB10027   1.734   3.243   6.715  0.7085  0.5057 -0.5935
  100SAPS    C210028   1.933   3.318   6.683 -0.3078  0.4305 -0.4560
  100SAPS    HS10029   1.989   3.349   6.593 -0.3116 -2.4779 -1.5186
  100SAPS   O2110030   1.999   3.213   6.760  0.4330 -0.0670 -0.0712
  100SAPS   C2110031   2.126   3.229   6.787 -0.5484 -0.0370  0.4888
  100SAPS   O2210032   2.196   3.322   6.752 -0.6446 -0.2803 -0.0110
  100SAPS   C2210033   2.165   3.118   6.890 -0.0976  0.2798  0.0368
  100SAPS   H2R10034   2.078   3.053   6.916 -0.7093  1.7447  1.7918
  100SAPS   H2S10035   2.246   3.051   6.855 -0.0480  0.2292  0.2478
  100SAPS    C310036   1.917   3.452   6.771  0.5477  0.6898  0.8944
  100SAPS    HX10037   1.876   3.531   6.705  0.5798  0.8314  1.0439
  100SAPS    HY10038   2.018   3.481   6.807  0.4614  1.8190  0.2420
  100SAPS   O3110039   1.823   3.421   6.879  0.0682 -0.4060  0.1650
  100SAPS   C3110040   1.791   3.533   6.947  1.0239  0.1043  0.2434
  100SAPS   O3210041   1.854   3.634   6.948 -0.1935  0.1327  0.5070
  100SAPS   C3210042   1.674   3.497   7.037  0.3355  0.1690  0.1179
  100SAPS   H2X10043   1.610   3.423   6.984 -0.8140  1.1801  0.0562
  100SAPS   H2Y10044   1.618   3.591   7.058  3.8435  2.4108 -0.1724
  100SAPS   C2310045   2.212   3.179   7.024  0.3448 -0.1136 -0.5846
  100SAPS   H3R10046   2.289   3.255   6.999  0.7085  1.0715  3.8447
  100SAPS   H3S10047   2.249   3.094   7.086 -1.1804  0.6272  1.4015
  100SAPS   C2410048   2.102   3.251   7.105 -0.2274 -0.4255  0.5356
  100SAPS   H4R10049   2.032   3.319   7.052 -0.2653 -1.9983 -1.5224
  100SAPS   H4S10050   2.153   3.322   7.173  0.5157  0.2731 -0.7439
  100SAPS   C2510051   2.016   3.157   7.187 -0.3332 -0.0873  0.3335
  100SAPS   H5R10052   1.923   3.131   7.134  0.7414 -0.5000 -1.4069
  100SAPS   C2610053   2.054   3.106   7.308  0.6345  0.5490  0.5618
  100SAPS   H6R10054   1.996   3.025   7.355 -0.8119  0.3741 -1.4359
  100SAPS   C2710055   2.179   3.148   7.382 -0.3324 -0.1575 -0.2376
  100SAPS   H7R10056   2.206   3.250   7.346 -1.8726  0.3191 -0.0777
  100SAPS   H7S10057   2.257   3.071   7.365 -0.7720 -0.8445  0.8673
  100SAPS   C2810058   2.165   3.150   7.537 -0.2017 -0.6020  0.1717
  100SAPS   H8R10059   2.106   3.070   7.583  1.6767 -0.6368  2.5789
  100SAPS   C2910060   2.212   3.246   7.618 -0.1303 -0.1295  0.9473
  100SAPS   H9R10061   2.185   3.238   7.725 -1.1121  2.3268  0.8935
  100SAPS  C21010062   2.288   3.367   7.579  0.1611 -0.5609 -0.0379
  100SAPS  H10R10063   2.315   3.374   7.471  0.5139  2.8104  0.2018
  100SAPS  H10S10064   2.385   3.348   7.630  0.6717 -1.1635 -1.2129
  100SAPS  C21110065   2.207   3.483   7.630  0.2892  0.0609 -0.1727
  100SAPS  H11R10066   2.115   3.495   7.571 -0.0247 -0.2316  0.2585
  100SAPS  C21210067   2.226   3.562   7.733  0.1262  0.5326 -0.0712
  100SAPS  H12R10068   2.152   3.642   7.745 -0.0037  0.2066  1.5552
  100SAPS  C21310069   2.340   3.557   7.831  0.1489  0.4009  0.0485
  100SAPS  H13R10070   2.406   3.471   7.806 -2.0030 -0.8152 -1.5939
  100SAPS  H13S10071   2.288   3.540   7.927 -2.5604 -0.4516 -1.5032
  100SAPS  C21410072   2.415   3.686   7.855 -0.5131  0.1232 -0.2093
  100SAPS  H14R10073   2.372   3.777   7.810 -1.0331  1.7750  3.4368
  100SAPS  C21510074   2.531   3.699   7.917  0.3731 -0.7509 -0.3652
  100SAPS  H15R10075   2.562   3.804   7.931 -2.0333 -0.4466  3.6141
  100SAPS  C21610076   2.599   3.588   7.991 -0.9296 -0.6881  0.8106
  100SAPS  H16R10077   2.670   3.535   7.923 -0.5932 -1.5603  1.8349
  100SAPS  H16S10078   2.523   3.519   8.034 -1.8214 -0.0677  0.2518
  100SAPS  C21710079   2.672   3.639   8.116 -0.0770  0.0199 -0.1281
  100SAPS  H17R10080   2.684   3.549   8.180  0.1997 -1.2453 -1.9408
  100SAPS  H17S10081   2.611   3.711   8.175  2.2453 -0.3952  2.9192
  100SAPS  C21810082   2.811   3.699   8.087 -0.4944  0.4479  0.1767
  100SAPS  H18R10083   2.804   3.801   8.044  0.6812  0.1802 -0.6945
  100SAPS  H18S10084   2.867   3.631   8.018 -0.1864  0.8715  0.0077
  100SAPS  C21910085   2.892   3.716   8.216  0.2779  0.1057  0.6758
  100SAPS  H19R10086   2.873   3.627   8.279  1.2207  1.6674  3.2529
  100SAPS  H19S10087   2.862   3.807   8.272  1.3876  0.9990 -0.1510
  100SAPS  C22010088   3.040   3.711   8.177  0.0562  0.2944  0.2696
  100SAPS  H20R10089   3.067   3.804   8.123  2.1460  0.2033  1.1217
  100SAPS  H20S10090   3.060   3.626   8.109  1.9694  0.7992  0.1735
  100SAPS  H20T10091   3.098   3.694   8.271 -0.9716  0.7178  0.9996
  100SAPS   C3310092   1.721   3.437   7.166 -0.5376 -0.5781 -0.3013
  100SAPS   H3X10093   1.805   3.365   7.155  3.1185  3.2054  1.3733
  100SAPS   H3Y10094   1.645   3.380   7.224  0.6428 -1.3222  0.5344
  100SAPS   C3410095   1.750   3.542   7.277  0.1965  0.0415 -0.5562
  100SAPS   H4X10096   1.664   3.613   7.284 -1.1954 -1.7737  1.5763
  100SAPS   H4Y10097   1.836   3.599   7.236  0.5161 -1.3126 -1.7713
  100SAPS   C3510098   1.787   3.477   7.411 -1.0423 -0.4066 -0.0833
  100SAPS   H5X10099   1.884   3.422   7.407 -1.0601 -0.5600  1.3290
  100SAPS   H5Y10100   1.693   3.427   7.442 -0.8574 -0.1551  0.9144
  100SAPS   C3610101   1.805   3.586   7.516  0.3326 -0.4802  0.9829
  100SAPS   H6X10102   1.721   3.657   7.506  2.3041  1.8183  0.3683
  100SAPS   H6Y10103   1.895   3.650   7.506  0.2228  0.0602  3.2713
  100SAPS   C3710104   1.797   3.541   7.665  0.3898 -0.8415 -0.0107
  100SAPS   H7X10105   1.857   3.449   7.684 -1.2466 -1.8636  0.3175
  100SAPS   H7Y10106   1.698   3.507   7.702  0.7451 -1.5957  0.2763
  100SAPS   C3810107   1.859   3.639   7.761 -0.0595 -0.1375  0.5884
  100SAPS   H8X10108   1.785   3.716   7.792  1.3229  1.6245 -0.4005
  100SAPS   H8Y10109   1.945   3.680   7.705 -1.1731 -1.1042 -1.9175
  100SAPS   C3910110   1.906   3.577   7.897 -0.0879  0.0875 -0.1054
  100SAPS   H9X10111   1.975   3.493   7.876  1.4001  0.4214  3.1142
  100SAPS   H9Y10112   1.810   3.550   7.945 -0.2938  0.6954 -0.1585
  100SAPS  C31010113   1.980   3.674   7.988  0.4918 -0.6151  1.0147
  100SAPS  H10X10114   1.913   3.763   7.991  0.8844 -0.3322  1.4039
  100SAPS  H10Y10115   2.079   3.691   7.940 -0.4145  2.6405  0.1991
  100SAPS  C31110116   1.995   3.628   8.130  0.0772  0.3984  0.1043
  100SAPS  H11X10117   2.047   3.531   8.145  0.4704  0.9740  2.6825
  100SAPS  H11Y10118   1.894   3.627   8.177  0.2583  0.3867  0.4943
  100SAPS  C31210119   2.076   3.730   8.212 -0.0927 -0.4495  0.5165
  100SAPS  H12X10120   2.160   3.775   8.155 -0.8266 -0.2323 -0.3992
  100SAPS  H12Y10121   2.124   3.684   8.301 -0.3353 -1.0648  0.3289
  100SAPS  C31310122   1.989   3.846   8.274  0.0303  0.0961 -0.1178
  100SAPS  H13X10123   1.926   3.805   8.356 -0.8880 -0.7755 -1.2456
  100SAPS  H13Y10124   1.913   3.883   8.202 -1.4112  1.2250  1.8970
  100SAPS  C31410125   2.072   3.960   8.344  0.2836  0.4465  0.0169
  100SAPS  H14X10126   2.164   3.997   8.293  0.6033  0.7246  0.7895
  100SAPS  H14Y10127   2.114   3.925   8.440 -0.7030  1.9196  1.0107
  100SAPS  C31510128   1.972   4.073   8.393  0.0471 -0.0710  0.4503
  100SAPS  H15X10129   1.886   4.023   8.443 -1.3160  1.7149 -0.0424
  100SAPS  H15Y10130   1.932   4.120   8.301 -0.8764  0.2044  0.9822
  100SAPS  C31610131   2.032   4.171   8.496 -0.3550 -0.5115  0.0313
  100SAPS  H16X10132   2.062   4.123   8.591 -0.0061  1.1903  0.8032
  100SAPS  H16Y10133   1.953   4.245   8.521  0.0800 -0.0367  0.0095
  100SAPS  C31710134   2.157   4.242   8.459  0.8523  0.5158 -0.3614
  100SAPS  H17X10135   2.231   4.170   8.419  1.0511  0.2058  0.5710
  100SAPS  H17Y10136   2.195   4.287   8.553 -0.3399  0.9281 -0.0681
  100SAPS  C31810137   2.135   4.360   8.356  0.1087  0.6510 -0.3691
  100SAPS  H18X10138   2.082   4.445   8.404 -2.6376 -2.2493  2.0099
  100SAPS  H18Y10139   2.084   4.324   8.264 -0.7933  0.1571  0.3076
  100SAPS  H18Z10140   2.236   4.381   8.316  0.3707 -0.5111 -0.3609
  101OSM      N10141   0.047   3.863  11.004 -0.0184  0.0356 -0.4450
  101OSM    C1510142  -0.076   3.799  10.941 -0.8559 -0.7151  0.3066
  101OSM   H15A10143  -0.097   3.855  10.851  1.8564  4.0675  2.4683
  101OSM   H15B10144  -0.168   3.801  10.998 -0.8374 -2.8646  0.4759
  101OSM   H15C10145  -0.056   3.693  10.929 -0.1672 -0.5443 -0.0121
  101OSM    C1410146   0.016   3.990  11.076 -0.2020 -0.1380 -0.3442
  101OSM   H14A10147  -0.015   4.064  11.003  0.3727  0.1245 -0.3181
  101OSM   H14B10148   0.110   4.018  11.120 -0.1426  1.4460 -1.4176
  101OSM   H14C10149  -0.054   3.984  11.158  0.1948  0.7567  0.0582
  101OSM    C1310150   0.112   3.763  11.101 -0.5878 -0.0578 -0.5087
  101OSM   H13A10151   0.130   3.671  11.047 -0.5081 -1.3168  1.6222
  101OSM   H13B10152   0.052   3.738  11.187  0.7909  1.7642  1.0572
  101OSM   H13C10153   0.195   3.809  11.153 -1.1542  0.1004  0.2683
  101OSM    C1210154   0.154   3.899  10.907  0.0116  0.7301 -0.4623
  101OSM   H12A10155   0.241   3.942  10.956 -0.7548 -0.0231  1.6230
  101OSM   H12B10156   0.125   3.979  10.840 -0.2171  0.4207 -0.7282
  101OSM    C1110157   0.195   3.780  10.816 -0.9390  0.2019 -0.2244
  101OSM   H11A10158   0.107   3.748  10.758  0.1537  1.4721 -2.6625
  101OSM   H11B10159   0.233   3.696  10.878 -1.7379  1.0684  1.4631
  101OSM      P10160   0.435   3.840  10.738  0.1949 -0.0643  0.3200
  101OSM    O1310161   0.488   3.982  10.732  0.1285 -0.3004 -0.4181
  101OSM    O1410162   0.475   3.765  10.859 -0.6201  0.1215 -0.1265
  101OSM    O1110163   0.491   3.781  10.607  0.2190 -0.2575 -0.3226
  101OSM    O1210164   0.281   3.831  10.716  0.4006 -0.0626  0.3343
  101OSM    C1S10165   0.440   3.799  10.475  0.0096 -0.2046 -0.2771
  101OSM    H1S10166   0.405   3.901  10.449 -1.6826 -0.4700  0.8718
  101OSM    H1T10167   0.344   3.744  10.475 -1.3330  1.9256  3.6316
  101OSM     NF10168   0.452   3.731  10.239  0.2750  0.2297  0.6496
  101OSM    HNF10169   0.389   3.656  10.218 -0.1770  0.5851  0.7134
  101OSM    C2S10170   0.525   3.726  10.360  0.4644 -0.0271  0.5239
  101OSM    H2S10171   0.605   3.801  10.343 -1.7836  2.0460 -1.1931
  101OSM    C3S10172   0.574   3.579  10.398 -0.1033  0.1986  0.0502
  101OSM    H3S10173   0.484   3.514  10.400  0.6386 -0.7935  1.3455
  101OSM     O310174   0.644   3.572  10.520 -1.0771 -0.4603 -0.1984
  101OSM    HO310175   0.628   3.662  10.548  2.0215  0.3945 -1.0061
  101OSM    C4S10176   0.671   3.528  10.294 -0.3170  0.1790 -0.0629
  101OSM    H4S10177   0.773   3.567  10.300 -0.4633  0.3793  1.1415
  101OSM    C5S10178   0.637   3.464  10.178 -0.1237  0.4735 -0.4183
  101OSM    H5S10179   0.529   3.449  10.162  0.0742  0.6160 -1.9839
  101OSM    C6S10180   0.740   3.411  10.075  0.0389 -0.0694  0.3643
  101OSM    H6S10181   0.749   3.301  10.085 -1.3806 -0.3878 -1.7087
  101OSM    H6T10182   0.840   3.451  10.102  0.5604 -0.6778 -0.6523
  101OSM    C7S10183   0.696   3.455   9.935 -0.3409 -0.5744  0.2464
  101OSM    H7S10184   0.721   3.563   9.925  2.8100 -1.4669 -2.1451
  101OSM    H7T10185   0.585   3.446   9.926 -0.8413  0.3360  4.2752
  101OSM    C8S10186   0.769   3.378   9.821  0.6096  0.3711  0.0275
  101OSM    H8S10187   0.736   3.272   9.825  3.3734 -0.4614  2.1539
  101OSM    H8T10188   0.878   3.375   9.842  0.1778  0.8991  2.5319
  101OSM    C9S10189   0.738   3.434   9.681 -0.0898 -0.4864 -0.6565
  101OSM    H9S10190   0.765   3.542   9.678 -0.3485 -0.4228 -0.6601
  101OSM    H9T10191   0.629   3.422   9.669 -0.1025 -0.0772 -0.9642
  101OSM   C10S10192   0.805   3.348   9.568 -0.2082 -0.6010  0.0709
  101OSM   H10S10193   0.766   3.244   9.568  1.0881 -1.1095  2.0179
  101OSM   H10T10194   0.915   3.339   9.583  0.3417  1.7460 -2.0174
  101OSM   C11S10195   0.779   3.401   9.425  0.0046  0.2020  0.0619
  101OSM   H11S10196   0.823   3.501   9.409  0.3410  0.1409  0.6230
  101OSM   H11T10197   0.669   3.421   9.424 -0.3474 -1.5079  1.1333
  101OSM   C12S10198   0.820   3.302   9.318 -0.4745 -0.7439 -0.1095
  101OSM   H12S10199   0.766   3.205   9.327 -2.2451  0.1988 -0.1737
  101OSM   H12T10200   0.927   3.279   9.331 -0.5526 -0.4946  1.0520
  101OSM   C13S10201   0.801   3.367   9.175  0.5349  0.8426  0.1349
  101OSM   H13S10202   0.876   3.448   9.161  1.4290  0.3416  1.8941
  101OSM   H13T10203   0.697   3.400   9.155 -0.0195 -1.3201 -0.6322
  101OSM   C14S10204   0.853   3.272   9.068  0.3815 -0.4594  0.2841
  101OSM   H14S10205   0.811   3.170   9.079  1.1363 -1.4109 -4.3305
  101OSM   H14T10206   0.964   3.266   9.074  0.4373 -0.3591 -0.5296
  101OSM   C15S10207   0.815   3.294   8.918  0.0762 -0.2511  0.5377
  101OSM   H15S10208   0.865   3.221   8.851  0.1234  0.3528 -0.0853
  101OSM   H15T10209   0.853   3.391   8.880  2.1637 -0.8145  1.0833
  101OSM   C16S10210   0.662   3.288   8.893 -0.0763  0.4574  0.4151
  101OSM   H16S10211   0.616   3.359   8.965 -2.2643  1.7377 -2.1589
  101OSM   H16T10212   0.630   3.186   8.924 -0.8997  0.1547 -1.3500
  101OSM   C17S10213   0.626   3.327   8.746 -0.3004  0.4213 -0.1212
  101OSM   H17S10214   0.663   3.429   8.724  0.5772  0.5036  1.6704
  101OSM   H17T10215   0.515   3.328   8.738 -0.4199 -0.3803  1.2390
  101OSM   C18S10216   0.679   3.225   8.658  0.3913  0.7876 -0.5335
  101OSM   H18S10217   0.643   3.125   8.690 -0.7823  1.4583  0.2628
  101OSM   H18T10218   0.790   3.223   8.662  0.4206 -0.4519 -1.6205
  101OSM   H18U10219   0.644   3.240   8.554 -0.0118  1.5559 -0.2925
  101OSM    C1F10220   0.419   3.841  10.175 -0.4791 -0.0324 -0.1640
  101OSM     OF10221   0.464   3.954  10.207 -0.7629  0.4686 -0.0943
  101OSM    C2F10222   0.314   3.832  10.060  0.0419 -0.6569  0.6385
  101OSM    H2F10223   0.248   3.922  10.063  2.0478  0.8702 -0.2914
  101OSM    H2G10224   0.260   3.736  10.076 -0.3036 -0.0923  3.1733
  101OSM    C3F10225   0.383   3.826   9.925  0.0948 -0.4330  0.7065
  101OSM    H3F10226   0.483   3.776   9.931  0.9492  1.1846  0.2019
  101OSM    H3G10227   0.400   3.931   9.893  3.0261 -1.3927 -1.1177
  101OSM    C4F10228   0.308   3.737   9.821  0.0323 -0.3972 -0.0703
  101OSM    H4F10229   0.266   3.649   9.875  0.9371  0.1110  1.5138
  101OSM    H4G10230   0.377   3.705   9.741 -0.0708  0.8339 -0.6639
  101OSM    C5F10231   0.180   3.794   9.752 -0.1985  0.6686  1.0587
  101OSM    H5F10232   0.187   3.893   9.702  0.1738  0.5263  0.8320
  101OSM    H5G10233   0.126   3.827   9.844 -1.0159 -0.2229  0.9009
  101OSM    C6F10234   0.102   3.688   9.683 -0.0032  0.0195 -0.2035
  101OSM    H6F10235  -0.002   3.725   9.673 -0.0355 -0.1032 -0.3234
  101OSM    H6G10236   0.100   3.600   9.751  2.6639  0.1301  0.0708
  101OSM    C7F10237   0.151   3.641   9.549  0.2743  0.3589  0.7151
  101OSM    H7F10238   0.243   3.581   9.562  0.3715 -0.1502 -2.0741
  101OSM    H7G10239   0.160   3.724   9.476 -0.2384 -0.8674 -0.7516
  101OSM    C8F10240   0.066   3.532   9.479  0.0373  0.0877 -0.3340
  101OSM    H8F10241   0.055   3.440   9.541  0.8898 -1.5197 -2.5119
  101OSM    H8G10242   0.122   3.497   9.390  0.4943  1.2972 -0.5290
  101OSM    C9F10243  -0.056   3.581   9.407  0.2425  0.6299  0.5036
  101OSM    H9F10244  -0.040   3.656   9.328  2.0566 -1.5450 -1.2613
  101OSM   C10F10245  -0.180   3.543   9.427 -0.8129 -0.9527  0.0081
  101OSM   H10F10246  -0.257   3.598   9.370 -0.3309 -1.2124 -0.8957
  101OSM   C11F10247  -0.224   3.442   9.526 -0.3017 -0.0576 -0.2214
  101OSM   H11F10248  -0.226   3.484   9.629  0.1130  0.9755 -0.6273
  101OSM   H11G10249  -0.137   3.373   9.533 -0.9806 -0.9215 -0.2144
  101OSM   C12F10250  -0.358   3.371   9.493  0.1598  0.4433 -0.3255
  101OSM   H12F10251  -0.432   3.454   9.495 -0.2064  0.0861  2.0026
  101OSM   H12G10252  -0.368   3.302   9.579  1.7241 -0.0824 -0.5417
  101OSM   C13F10253  -0.351   3.284   9.367  0.0063  0.0109  0.7322
  101OSM   H13F10254  -0.255   3.229   9.362 -1.2554 -2.1097 -0.7293
  101OSM   H13G10255  -0.363   3.342   9.273 -1.9899 -0.8747  0.4180
  101OSM   C14F10256  -0.459   3.174   9.378  0.3353  0.9470 -0.0271
  101OSM   H14F10257  -0.565   3.207   9.382  0.2258  0.2927  3.9918
  101OSM   H14G10258  -0.447   3.106   9.465  3.3641  2.5944  0.9348
  101OSM   C15F10259  -0.457   3.066   9.261  0.0187  0.1687 -0.1934
  101OSM   H15F10260  -0.441   2.964   9.301 -0.1052  0.4876  0.6763
  101OSM   H15G10261  -0.375   3.076   9.187  1.0346 -2.0798  0.6079
  101OSM   C16F10262  -0.586   3.077   9.172  0.2764  0.1943 -0.0311
  101OSM   H16F10263  -0.597   3.182   9.137 -2.4006 -0.3416 -0.9037
  101OSM   H16G10264  -0.681   3.056   9.224  0.1406  0.1545 -0.2943
  101OSM   C17F10265  -0.580   2.989   9.049  0.3750  0.5542  0.5247
  101OSM   H17F10266  -0.679   2.992   9.000  0.9883 -0.3208 -0.8188
  101OSM   H17G10267  -0.564   2.884   9.082 -0.5122  0.5219  0.8537
  101OSM   C18F10268  -0.482   3.006   8.931 -0.2498 -0.5180 -0.0859
  101OSM   H18F10269  -0.382   2.977   8.968 -0.2841 -2.3854 -1.3624
  101OSM   H18G10270  -0.486   3.109   8.888  0.4794  0.1992  1.5417
  101OSM   H18H10271  -0.501   2.940   8.843 -2.2730 -2.1693  1.5249
  102OSM      N10272   1.201   2.591  10.660 -0.3557  0.1637  0.4959
  102OSM    C1510273   1.141   2.696  10.743  0.2548 -0.2395  0.1540
  102OSM   H15A10274   1.122   2.652  10.840 -1.4758 -1.0320 -0.5232
  102OSM   H15B10275   1.046   2.721  10.699 -0.2350 -0.9962  0.7727
  102OSM   H15C10276   1.203   2.784  10.751 -1.7842  1.1081  1.8815
  102OSM    C1410277   1.256   2.655  10.532  0.0106  0.1160  0.1248
  102OSM   H14A10278   1.177   2.709  10.482 -1.9291 -1.1882  1.6901
  102OSM   H14B10279   1.311   2.589  10.466  1.2158  0.0867  1.1428
  102OSM   H14C10280   1.328   2.731  10.558 -1.0942  1.3384 -0.2884
  102OSM    C1310281   1.312   2.527  10.731 -0.4324 -0.0624  0.1432
  102OSM   H13A10282   1.371   2.464  10.666 -0.2480  0.8307 -0.5600
  102OSM   H13B10283   1.263   2.462  10.802 -1.6847  0.9508  0.2096
  102OSM   H13C10284   1.387   2.583  10.783 -0.5195 -0.6042  0.8579
  102OSM    C1210285   1.106   2.487  10.611  0.2277  0.1983 -0.6020
  102OSM   H12A10286   1.080   2.422  10.693  0.3590  0.6942 -0.1651
  102OSM   H12B10287   1.167   2.418  10.556 -0.8879 -1.3801  0.1124
  102OSM    C1110288   0.978   2.521  10.531 -0.4885  0.1711  0.2559
  102OSM   H11A10289   0.919   2.428  10.514  0.4340 -0.0138 -2.1301
  102OSM   H11B10290   1.012   2.555  10.431  1.9357 -1.1009  0.6133
  102OSM      P10291   0.784   2.611  10.683  0.2294  0.0532  0.4892
  102OSM    O1310292   0.815   2.505  10.776  0.1052  0.2686  0.1641
  102OSM    O1410293   0.746   2.740  10.746 -0.2167  0.3886 -0.4059
  102OSM    O1110294   0.668   2.581  10.578  0.4218  0.1979  0.2719
  102OSM    O1210295   0.907   2.638  10.590 -0.2245  0.3754  0.5529
  102OSM    C1S10296   0.625   2.670  10.473 -0.6668 -0.0755  0.3437
  102OSM    H1S10297   0.678   2.767  10.480 -1.2236  0.1379  1.6001
  102OSM    H1T10298   0.518   2.697  10.482 -0.1171  2.0632  0.6413
  102OSM     NF10299   0.593   2.698  10.232  0.1837  0.3061  0.9036
  102OSM    HNF10300   0.515   2.664  10.180  1.4109 -2.3247  0.6972
  102OSM    C2S10301   0.655   2.613  10.332  0.2314  0.1228 -0.0985
  102OSM    H2S10302   0.765   2.613  10.314  0.4264 -1.1090  0.9520
  102OSM    C3S10303   0.611   2.459  10.305 -0.3690 -0.5314  0.4549
  102OSM    H3S10304   0.500   2.457  10.305 -0.4315  1.9231  0.2737
  102OSM     O310305   0.655   2.368  10.406 -0.1365 -0.0158  0.1433
  102OSM    HO310306   0.692   2.423  10.476  1.7024 -1.0348  0.0063
  102OSM    C4S10307   0.662   2.414  10.175 -0.6311 -0.1387 -0.4434
  102OSM    H4S10308   0.770   2.394  10.174 -0.8457 -1.3314 -3.0786
  102OSM    C5S10309   0.579   2.385  10.071  0.3122 -0.4476  0.1784
  102OSM    H5S10310   0.474   2.415  10.084  0.2209 -0.7333  0.1062
  102OSM    C6S10311   0.609   2.328   9.934  0.0902 -0.8790  0.1819
  102OSM    H6S10312   0.539   2.245   9.910 -1.1254  0.7247 -1.9653
  102OSM    H6T10313   0.712   2.287   9.932  0.0562 -0.9052 -1.1665
  102OSM    C7S10314   0.590   2.436   9.820  1.1567 -0.5731 -0.0062
  102OSM    H7S10315   0.675   2.506   9.834 -0.7529  1.3008  2.7621
  102OSM    H7T10316   0.494   2.484   9.850  3.1793  0.5412  5.0917
  102OSM    C8S10317   0.611   2.385   9.674 -0.7610 -0.3857  0.4429
  102OSM    H8S10318   0.711   2.338   9.678 -0.8034 -0.3951  1.8424
  102OSM    H8T10319   0.595   2.469   9.602 -1.3495 -1.9603 -1.3030
  102OSM    C9S10320   0.501   2.280   9.633 -0.4980  0.6180 -1.1099
  102OSM    H9S10321   0.405   2.337   9.632 -0.2043  1.2210  1.1835
  102OSM    H9T10322   0.497   2.200   9.710 -0.4206 -0.4599 -2.2107
  102OSM   C10S10323   0.510   2.214   9.500  0.3910  0.0416 -0.2160
  102OSM   H10S10324   0.508   2.295   9.424  0.5863  0.5093  0.2683
  102OSM   H10T10325   0.425   2.143   9.486 -0.7467  1.9176 -3.3869
  102OSM   C11S10326   0.643   2.139   9.477  0.8238  0.0045  0.2354
  102OSM   H11S10327   0.649   2.060   9.555  0.4074  0.9079  1.1946
  102OSM   H11T10328   0.725   2.212   9.493  1.2028 -0.3769  0.0354
  102OSM   C12S10329   0.664   2.093   9.331  0.2295  0.7926 -0.6849
  102OSM   H12S10330   0.769   2.073   9.303  0.0893  0.7737 -1.2194
  102OSM   H12T10331   0.624   2.176   9.269 -2.9833 -0.2126 -0.0646
  102OSM   C13S10332   0.582   1.959   9.316  0.5165 -0.4363  1.1925
  102OSM   H13S10333   0.585   1.955   9.205 -2.5266 -0.9792  1.0921
  102OSM   H13T10334   0.476   1.977   9.343  0.5461  1.3750  0.1814
  102OSM   C14S10335   0.635   1.829   9.386  1.0098  0.2423 -0.0748
  102OSM   H14S10336   0.635   1.840   9.496 -2.4201  0.6943 -0.0447
  102OSM   H14T10337   0.738   1.815   9.346  1.5343  1.7147  0.7279
  102OSM   C15S10338   0.551   1.703   9.351 -0.0408  0.1226 -0.6725
  102OSM   H15S10339   0.562   1.701   9.241  0.7820  1.2726 -0.6137
  102OSM   H15T10340   0.445   1.716   9.382 -0.9280 -1.6899 -2.8442
  102OSM   C16S10341   0.597   1.571   9.419 -0.6239  0.5876  0.3781
  102OSM   H16S10342   0.624   1.580   9.526 -1.3784  0.5336  0.5731
  102OSM   H16T10343   0.681   1.536   9.355 -1.0840 -2.9367  1.5958
  102OSM   C17S10344   0.482   1.467   9.397 -0.1381  0.1188  0.2974
  102OSM   H17S10345   0.464   1.461   9.288  1.5414  0.7426 -0.0329
  102OSM   H17T10346   0.391   1.503   9.450 -1.3653  0.7606 -2.1954
  102OSM   C18S10347   0.520   1.327   9.445  0.3757 -0.1025 -0.3563
  102OSM   H18S10348   0.442   1.253   9.417 -0.3125  1.0669 -1.5784
  102OSM   H18T10349   0.533   1.326   9.556 -1.0675  0.5183 -0.1741
  102OSM   H18U10350   0.620   1.292   9.410  0.3001  0.7836 -1.4520
  102OSM    C1F10351   0.628   2.828  10.219  1.1328  0.6284  0.2913
  102OSM     OF10352   0.729   2.872  10.274 -0.4389  0.1350 -0.3318
  102OSM    C2F10353   0.540   2.917  10.136  0.1771 -0.2408  0.1439
  102OSM    H2F10354   0.436   2.877  10.142 -1.4777  3.8756  0.2075
  102OSM    H2G10355   0.573   2.895  10.033  0.5763 -1.4498  0.5193
  102OSM    C3F10356   0.525   3.073  10.169  0.3398 -0.0712  0.0013
  102OSM    H3F10357   0.622   3.120  10.141 -1.0438  3.0917  0.4121
  102OSM    H3G10358   0.500   3.081  10.277  0.6012 -1.1619  0.1542
  102OSM    C4F10359   0.418   3.135  10.081  0.2813  0.8293 -0.7889
  102OSM    H4F10360   0.402   3.241  10.111 -1.5333  0.3236  0.1355
  102OSM    H4G10361   0.321   3.083  10.100  1.4047 -0.6317  1.1576
  102OSM    C5F10362   0.456   3.125   9.930  0.3381 -0.0507  0.4320
  102OSM    H5F10363   0.458   3.020   9.894 -1.1269 -0.0389  0.2776
  102OSM    H5G10364   0.559   3.165   9.915 -0.4789  1.7776 -0.5033
  102OSM    C6F10365   0.365   3.193   9.828  0.7465  0.4780  0.1257
  102OSM    H6F10366   0.369   3.301   9.852 -3.7773  1.5428 -3.3915
  102OSM    H6G10367   0.261   3.156   9.817  0.0086  1.9890  1.7275
  102OSM    C7F10368   0.431   3.183   9.687 -0.2416  0.4293  0.5294
  102OSM    H7F10369   0.537   3.216   9.694  0.4782 -2.1911  2.6253
  102OSM    H7G10370   0.372   3.252   9.623 -1.5538  0.0758  1.3498
  102OSM    C8F10371   0.411   3.044   9.624  0.2860 -0.6393  0.2264
  102OSM    H8F10372   0.303   3.022   9.612  0.0764 -0.3559  1.5354
  102OSM    H8G10373   0.427   2.966   9.701 -1.1602  0.6068  1.8444
  102OSM    C9F10374   0.489   3.022   9.503 -0.6338  0.3026  0.4346
  102OSM    H9F10375   0.559   2.937   9.511  0.4385  0.9075 -2.0308
  102OSM   C10F10376   0.482   3.082   9.378  0.5861 -0.2314  0.0733
  102OSM   H10F10377   0.559   3.065   9.301  1.3277  1.0584  0.5211
  102OSM   C11F10378   0.392   3.183   9.339 -0.1143 -0.4056 -0.5216
  102OSM   H11F10379   0.438   3.278   9.304 -0.8431 -0.1207 -0.7239
  102OSM   H11G10380   0.317   3.207   9.417 -1.4344 -1.4145 -1.4568
  102OSM   C12F10381   0.303   3.118   9.225 -0.2720 -0.9098 -0.0920
  102OSM   H12F10382   0.254   3.028   9.267 -0.3713  0.5735  3.1333
  102OSM   H12G10383   0.372   3.094   9.142  1.0920  2.0731  0.1071
  102OSM   C13F10384   0.196   3.214   9.163  0.5017 -0.5737  0.7610
  102OSM   H13F10385   0.108   3.219   9.230  0.6607 -1.3014  1.0296
  102OSM   H13G10386   0.157   3.152   9.079 -0.1229  0.1518  0.5085
  102OSM   C14F10387   0.234   3.362   9.131  0.6819 -0.0224  0.1363
  102OSM   H14F10388   0.320   3.365   9.060  0.4461  1.9389 -0.0775
  102OSM   H14G10389   0.263   3.421   9.220  1.1398 -1.9868  1.3158
  102OSM   C15F10390   0.120   3.427   9.051 -0.9530 -0.6829  0.3056
  102OSM   H15F10391   0.030   3.419   9.116  1.7396 -0.1231  4.2719
  102OSM   H15G10392   0.096   3.375   8.956 -0.0103  4.0365 -2.6876
  102OSM   C16F10393   0.150   3.576   9.021 -0.2169 -0.0369 -0.4690
  102OSM   H16F10394   0.245   3.569   8.964  0.8617  2.8549  0.8948
  102OSM   H16G10395   0.180   3.638   9.108  0.6708  1.1377 -1.5966
  102OSM   C17F10396   0.037   3.648   8.953  0.7107 -0.4158  0.2792
  102OSM   H17F10397   0.028   3.617   8.846  0.6700 -1.6737  0.6407
  102OSM   H17G10398   0.072   3.753   8.945 -1.5080  0.2436 -1.0906
  102OSM   C18F10399  -0.095   3.639   9.024 -0.7930  0.1224 -0.3883
  102OSM   H18F10400  -0.118   3.531   9.040  1.0961 -0.2290  0.1202
  102OSM   H18G10401  -0.179   3.692   8.976  0.0698  0.5198 -1.4917
  102OSM   H18H10402  -0.083   3.683   9.125 -0.3501 -1.7552  0.4143
  103OSM      N10403   1.653   5.901  11.373 -0.7481 -0.1044  0.1782
  103OSM    C1510404   1.704   6.039  11.334  0.0492 -0.0597 -0.1164
  103OSM   H15A10405   1.812   6.038  11.335  0.0402 -0.1756  2.3616
  103OSM   H15B10406   1.662   6.101  11.411 -0.1259  0.3397 -0.5375
  103OSM   H15C10407   1.668   6.070  11.237 -0.0942 -0.5732 -0.2289
  103OSM    C1410408   1.719   5.844  11.492 -0.2105  0.0232  0.2163
  103OSM   H14A10409   1.678   5.747  11.515  1.3636 -0.3426  1.5817
  103OSM   H14B10410   1.703   5.910  11.576 -1.0396 -1.3347  1.1621
  103OSM   H14C10411   1.824   5.833  11.469 -0.3801  1.3486 -1.2524
  103OSM    C1310412   1.505   5.923  11.386  0.8640  0.0146 -0.2870
  103OSM   H13A10413   1.461   5.976  11.304 -0.6371  0.8154  1.0048
  103OSM   H13B10414   1.471   5.973  11.476  0.0668 -0.3073 -0.4129
  103OSM   H13C10415   1.448   5.832  11.385 -1.7257  1.5902  0.3320
  103OSM    C1210416   1.664   5.805  11.256 -0.1766 -0.4945 -0.5176
  103OSM   H12A10417   1.601   5.719  11.275  0.6293 -1.6364 -2.9034
  103OSM   H12B10418   1.763   5.765  11.245 -0.5937 -1.0532 -2.3815
  103OSM    C1110419   1.630   5.850  11.108 -0.2242  0.5511  0.2710
  103OSM   H11A10420   1.526   5.881  11.085 -0.3354 -0.8244 -1.1522
  103OSM   H11B10421   1.658   5.759  11.050 -1.4292 -0.6531  1.5692
  103OSM      P10422   1.870   5.930  11.024  0.1961 -0.0483  0.2174
  103OSM    O1310423   1.939   6.059  11.004 -0.0778  0.1391  0.2905
  103OSM    O1410424   1.944   5.837  11.117  0.1506 -0.6007 -0.2514
  103OSM    O1110425   1.853   5.859  10.892 -0.2586 -0.1735  0.0563
  103OSM    O1210426   1.718   5.956  11.063  0.6298 -0.2511 -0.2102
  103OSM    C1S10427   1.734   5.864  10.802 -0.3845  0.4002  0.6585
  103OSM    H1S10428   1.702   5.971  10.799  0.3063  0.5725 -1.0758
  103OSM    H1T10429   1.654   5.795  10.836  0.3705  0.0636  1.7914
  103OSM     NF10430   1.667   5.861  10.565  0.5814 -0.1940 -0.5993
  103OSM    HNF10431   1.618   5.786  10.523 -0.7378  0.0443  0.4996
  103OSM    C2S10432   1.773   5.817  10.663  0.1734  0.3793  0.0193
  103OSM    H2S10433   1.865   5.869  10.628  0.0356  0.2483 -0.5278
  103OSM    C3S10434   1.805   5.667  10.672 -0.0704 -0.3243  0.4691
  103OSM    H3S10435   1.715   5.603  10.683 -1.1671  1.2638  1.0579
  103OSM     O310436   1.897   5.629  10.772 -0.7121  0.2123 -0.0415
  103OSM    HO310437   1.896   5.709  10.825  0.7168  0.7453 -0.8141
  103OSM    C4S10438   1.870   5.618  10.540 -0.1572  0.2520  0.4744
  103OSM    H4S10439   1.970   5.661  10.519 -0.0001  0.2406  1.1977
  103OSM    C5S10440   1.815   5.533  10.456 -0.2662  0.1309  0.0635
  103OSM    H5S10441   1.725   5.481  10.492  0.2534 -0.9002 -0.0861
  103OSM    C6S10442   1.902   5.487  10.341  0.0564 -0.0298  0.0137
  103OSM    H6S10443   1.895   5.377  10.349  1.7596  0.0126  2.9067
  103OSM    H6T10444   2.009   5.516  10.345  0.1283 -0.3603  0.4658
  103OSM    C7S10445   1.837   5.520  10.210  0.3700  0.1565  0.7327
  103OSM    H7S10446   1.797   5.624  10.200  1.9041  0.8272  1.4453
  103OSM    H7T10447   1.761   5.441  10.192  2.7464 -2.4472  1.7709
  103OSM    C8S10448   1.942   5.492  10.100  0.4533 -0.9968  0.4990
  103OSM    H8S10449   1.967   5.384  10.107  1.7076 -0.6907  0.8799
  103OSM    H8T10450   2.035   5.542  10.134 -0.7426  1.8376 -0.2905
  103OSM    C9S10451   1.896   5.517   9.956 -0.0249 -0.3423 -0.4792
  103OSM    H9S10452   1.881   5.624   9.929  2.5666  0.9933  2.8915
  103OSM    H9T10453   1.801   5.464   9.938  1.2395 -2.8817  0.1618
  103OSM   C10S10454   2.005   5.459   9.854 -0.1534 -1.2320 -0.3014
  103OSM   H10S10455   1.995   5.351   9.880 -1.6513 -1.2250 -0.7891
  103OSM   H10T10456   2.102   5.493   9.895 -1.1433  1.6239 -0.1983
  103OSM   C11S10457   1.993   5.493   9.709 -0.3952 -0.6771  1.3696
  103OSM   H11S10458   2.008   5.602   9.697 -1.2220 -0.6499  0.4620
  103OSM   H11T10459   1.898   5.454   9.666  0.1437  0.5153 -0.9439
  103OSM   C12S10460   2.109   5.432   9.624  0.1840 -0.0886  0.3692
  103OSM   H12S10461   2.106   5.321   9.626  0.3793 -0.1012  0.0980
  103OSM   H12T10462   2.201   5.473   9.670  0.3557  0.1841 -0.2172
  103OSM   C13S10463   2.105   5.468   9.471 -0.3360  0.0858  0.0082
  103OSM   H13S10464   2.120   5.571   9.434 -0.9611 -1.0319 -3.5807
  103OSM   H13T10465   2.004   5.434   9.439  0.5224 -0.9067 -1.7581
  103OSM   C14S10466   2.218   5.398   9.385  0.1474 -0.5401  0.0645
  103OSM   H14S10467   2.210   5.288   9.401  0.9244 -0.6819 -0.4533
  103OSM   H14T10468   2.317   5.434   9.422  0.5110 -1.8306  0.3664
  103OSM   C15S10469   2.199   5.429   9.234 -0.0833 -0.1113 -0.5351
  103OSM   H15S10470   2.278   5.375   9.178 -0.3812  0.5529 -1.6126
  103OSM   H15T10471   2.203   5.538   9.216  2.1261 -0.1743 -0.5220
  103OSM   C16S10472   2.069   5.377   9.165 -0.9461  0.4978  0.1662
  103OSM   H16S10473   1.973   5.392   9.219 -1.0183  0.0200  0.1709
  103OSM   H16T10474   2.088   5.267   9.160 -1.5537  0.4219 -0.6699
  103OSM   C17S10475   2.039   5.418   9.016 -0.0181  0.2779  0.2542
  103OSM   H17S10476   2.012   5.524   8.997 -1.0767 -0.1069 -0.4483
  103OSM   H17T10477   1.955   5.357   8.978 -0.1247  1.6972 -1.8728
  103OSM   C18S10478   2.149   5.387   8.914  0.3762 -0.2554 -0.0362
  103OSM   H18S10479   2.218   5.474   8.918 -0.6834  0.6032 -0.1495
  103OSM   H18T10480   2.108   5.376   8.811  0.6262 -0.8882 -0.0665
  103OSM   H18U10481   2.209   5.297   8.938  3.0971  0.6417 -3.0143
  103OSM    C1F10482   1.656   5.985  10.532  0.3326  0.0614 -0.1008
  103OSM     OF10483   1.740   6.065  10.576  0.0760 -0.0824  0.1187
  103OSM    C2F10484   1.544   6.023  10.435 -0.1693  0.4034  0.5578
  103OSM    H2F10485   1.537   6.132  10.454  0.2205  0.5201  0.0320
  103OSM    H2G10486   1.446   5.988  10.475  0.2232  0.6093  1.6981
  103OSM    C3F10487   1.573   6.002  10.280  0.1348  0.4675  0.3969
  103OSM    H3F10488   1.669   6.055  10.261  0.6662 -0.9392 -0.9325
  103OSM    H3G10489   1.499   6.062  10.222 -0.7437 -2.5403 -1.7390
  103OSM    C4F10490   1.571   5.858  10.237  0.8613  0.0909 -0.3409
  103OSM    H4F10491   1.474   5.809  10.258 -0.3619  2.2499 -0.7347
  103OSM    H4G10492   1.647   5.799  10.292 -0.8501 -1.2183  0.6611
  103OSM    C5F10493   1.608   5.826  10.088  0.4570  0.0921  0.2048
  103OSM    H5F10494   1.588   5.718  10.077 -0.2533  0.0276  1.9298
  103OSM    H5G10495   1.718   5.842  10.086  0.4385  0.1312 -0.5943
  103OSM    C6F10496   1.541   5.913   9.981 -0.1037 -0.2130 -0.1963
  103OSM    H6F10497   1.577   6.018   9.991 -2.5722  0.8501 -1.9038
  103OSM    H6G10498   1.434   5.909  10.010  0.1351 -1.5893  0.5518
  103OSM    C7F10499   1.559   5.870   9.831  0.2849  0.1924  0.0710
  103OSM    H7F10500   1.527   5.764   9.827  0.6165  0.0822  0.2591
  103OSM    H7G10501   1.668   5.876   9.808  0.6684  1.8710  2.2352
  103OSM    C8F10502   1.486   5.963   9.731  0.4894 -0.3049  0.0433
  103OSM    H8F10503   1.420   6.042   9.775 -0.2260 -1.9527  2.0278
  103OSM    H8G10504   1.410   5.896   9.686 -1.5200  1.2358  1.0446
  103OSM    C9F10505   1.572   6.031   9.624  0.3263 -0.8062 -0.2865
  103OSM    H9F10506   1.551   6.000   9.520 -0.0069  0.3989 -0.5921
  103OSM   C10F10507   1.652   6.137   9.632 -0.0187  0.3479  0.4507
  103OSM   H10F10508   1.715   6.170   9.549 -1.5541  1.4401 -0.3056
  103OSM   C11F10509   1.677   6.229   9.755  0.3050  0.2398 -0.1522
  103OSM   H11F10510   1.785   6.218   9.773  0.3629 -2.2521 -1.7316
  103OSM   H11G10511   1.628   6.200   9.850  1.7250  0.2989  0.5945
  103OSM   C12F10512   1.653   6.382   9.734 -0.0548 -0.2129 -0.5108
  103OSM   H12F10513   1.554   6.405   9.689  0.4314  0.0189 -1.4821
  103OSM   H12G10514   1.720   6.430   9.660  0.6593  1.6822  1.3221
  103OSM   C13F10515   1.665   6.459   9.867  0.4431 -0.2296 -0.1285
  103OSM   H13F10516   1.579   6.460   9.936  2.3635 -0.3902  2.3257
  103OSM   H13G10517   1.754   6.426   9.925 -0.1556 -0.5053  0.6415
  103OSM   C14F10518   1.689   6.611   9.844  0.7749  0.2955  0.1601
  103OSM   H14F10519   1.609   6.650   9.778  0.3796 -1.9530 -0.7486
  103OSM   H14G10520   1.781   6.618   9.783  0.0150 -0.6777 -1.1262
  103OSM   C15F10521   1.686   6.705   9.972 -0.4062 -0.1273  0.3352
  103OSM   H15F10522   1.755   6.669  10.052  2.2344  0.6368 -1.5309
  103OSM   H15G10523   1.579   6.691   9.997 -0.0637 -0.1459  1.9010
  103OSM   C16F10524   1.720   6.853   9.953 -0.7695  0.3182  0.2200
  103OSM   H16F10525   1.675   6.887   9.857 -1.7151 -0.2601  0.4483
  103OSM   H16G10526   1.830   6.863   9.943 -0.8160 -0.3712 -1.2477
  103OSM   C17F10527   1.667   6.952  10.057 -0.4160 -0.8987 -0.7747
  103OSM   H17F10528   1.556   6.957  10.050 -0.6177 -2.5246  0.8811
  103OSM   H17G10529   1.720   7.045  10.030 -0.0551  0.4727  4.0933
  103OSM   C18F10530   1.704   6.913  10.196 -0.0560  0.2471  0.3308
  103OSM   H18F10531   1.629   6.853  10.253  0.2965 -2.9436 -2.3887
  103OSM   H18G10532   1.730   7.000  10.259  0.7611  0.4962 -0.3378
  103OSM   H18H10533   1.780   6.832  10.204 -0.6455 -0.4041 -0.4917
  104OSM      N10534   6.097   5.541  10.754 -0.3963  0.1888  0.6221
  104OSM    C1510535   5.999   5.627  10.836 -0.2920 -0.3759 -0.1818
  104OSM   H15A10536   5.963   5.716  10.787 -1.6749 -0.4490  0.6719
  104OSM   H15B10537   6.056   5.650  10.925  1.6449 -0.4685 -1.3705
  104OSM   H15C10538   5.912   5.573  10.872 -1.8041  1.6549 -0.7268
  104OSM    C1410539   6.038   5.511  10.620  0.6184  0.0320  0.7989
  104OSM   H14A10540   5.961   5.436  10.631  0.2073  0.7042  2.9149
  104OSM   H14B10541   6.116   5.466  10.560 -0.7035  1.3373 -2.0062
  104OSM   H14C10542   6.005   5.605  10.576  0.0465  0.2585  1.6867
  104OSM    C1310543   6.220   5.624  10.734  0.3662  0.0498 -0.0499
  104OSM   H13A10544   6.289   5.569  10.672  1.2466 -0.7339  1.5818
  104OSM   H13B10545   6.266   5.648  10.829 -1.6646  0.4699  0.8499
  104OSM   H13C10546   6.204   5.719  10.685  0.4635  1.0295  1.7743
  104OSM    C1210547   6.127   5.416  10.837  0.2343 -0.0354 -0.5748
  104OSM   H12A10548   6.168   5.444  10.933  0.4518 -0.4155 -0.5565
  104OSM   H12B10549   6.200   5.351  10.790 -1.4818 -1.3870 -1.4122
  104OSM    C1110550   6.010   5.307  10.850  0.3866 -0.4586 -0.0042
  104OSM   H11A10551   5.907   5.346  10.868  0.5033 -0.4939  0.7579
  104OSM   H11B10552   6.032   5.246  10.941  1.2109  1.4764  1.1293
  104OSM      P10553   6.079   5.091  10.719 -0.0605 -0.1180 -0.3140
  104OSM    O1310554   6.221   5.115  10.752  0.7639 -0.5663 -0.2503
  104OSM    O1410555   6.017   4.985  10.800  0.2724  0.6041  0.1690
  104OSM    O1110556   6.071   5.065  10.559 -0.0379 -0.4251 -0.4928
  104OSM    O1210557   6.004   5.227  10.734 -0.7802 -0.6404  0.0677
  104OSM    C1S10558   5.952   5.106  10.497 -0.2288 -0.8062  0.5392
  104OSM    H1S10559   5.929   5.213  10.513  1.4844 -0.2485 -0.6306
  104OSM    H1T10560   5.863   5.047  10.529  1.4086 -3.6051  0.1035
  104OSM     NF10561   5.893   5.213  10.283  0.4178  0.2410  1.1715
  104OSM    HNF10562   5.795   5.194  10.275  1.0635 -2.8040 -0.1679
  104OSM    C2S10563   5.965   5.096  10.343 -0.3790  1.3397 -0.0749
  104OSM    H2S10564   6.072   5.107  10.316 -0.0872 -0.0841  0.4740
  104OSM    C3S10565   5.909   4.964  10.295 -0.5560  0.7353  0.4051
  104OSM    H3S10566   5.811   4.948  10.344 -0.7802  1.3691  0.1690
  104OSM     O310567   5.989   4.862  10.351 -0.0220 -0.1322  0.4575
  104OSM    HO310568   6.053   4.908  10.406 -0.8703  2.3761 -0.6021
  104OSM    C4S10569   5.887   4.960  10.141 -0.5631  0.0205  0.2457
  104OSM    H4S10570   5.796   5.010  10.105 -0.4031 -1.0228 -1.6974
  104OSM    C5S10571   5.968   4.901  10.053 -0.5377  0.2219 -0.2343
  104OSM    H5S10572   6.064   4.857  10.086 -0.8426  0.2478  0.7177
  104OSM    C6S10573   5.959   4.899   9.901 -0.6582 -0.7069 -0.0888
  104OSM    H6S10574   5.927   4.794   9.880  1.0667 -1.2249 -0.2267
  104OSM    H6T10575   6.061   4.909   9.857 -0.3700  0.1549  0.7645
  104OSM    C7S10576   5.877   5.007   9.825  0.2627 -0.3111  0.5276
  104OSM    H7S10577   5.926   5.106   9.833  0.5874  0.0664 -4.5594
  104OSM    H7T10578   5.780   5.017   9.880  0.7921  0.3446  1.3506
  104OSM    C8S10579   5.857   4.994   9.673  0.1052  0.1604 -0.4707
  104OSM    H8S10580   5.764   4.938   9.652  0.1819 -0.1704  0.0512
  104OSM    H8T10581   5.938   4.937   9.621 -0.9860  0.9030 -3.0471
  104OSM    C9S10582   5.843   5.129   9.601 -0.5452 -0.0378 -0.6571
  104OSM    H9S10583   5.942   5.170   9.570 -0.7966  1.6862  0.7289
  104OSM    H9T10584   5.781   5.199   9.662 -1.6008  0.8554 -2.7031
  104OSM   C10S10585   5.784   5.127   9.456 -0.2425 -0.7604 -0.0838
  104OSM   H10S10586   5.678   5.096   9.459 -0.6739  0.4158 -1.9689
  104OSM   H10T10587   5.842   5.067   9.383  2.2688  2.8350 -1.1885
  104OSM   C11S10588   5.783   5.273   9.396 -0.2849  0.3413 -0.1227
  104OSM   H11S10589   5.885   5.294   9.357 -0.5075 -1.1590 -1.5526
  104OSM   H11T10590   5.759   5.350   9.473  0.8061  1.0784 -0.5147
  104OSM   C12S10591   5.698   5.294   9.268  0.3013  0.5647 -0.3384
  104OSM   H12S10592   5.593   5.306   9.301  0.4109  1.5053 -0.3332
  104OSM   H12T10593   5.708   5.205   9.201  0.3981  0.8955 -0.7630
  104OSM   C13S10594   5.739   5.417   9.193  0.7863  0.5283  0.0404
  104OSM   H13S10595   5.841   5.412   9.150  0.2697 -2.3669 -0.9994
  104OSM   H13T10596   5.734   5.506   9.259 -2.8106  0.8979 -0.6212
  104OSM   C14S10597   5.638   5.444   9.076 -0.1240  0.0602 -0.5663
  104OSM   H14S10598   5.546   5.492   9.117 -0.8298 -0.3637 -1.6388
  104OSM   H14T10599   5.617   5.347   9.026  1.5797 -1.6018  1.8328
  104OSM   C15S10600   5.689   5.549   8.977 -0.1728 -0.6686 -0.2210
  104OSM   H15S10601   5.779   5.499   8.936 -0.2332 -0.8118 -0.1797
  104OSM   H15T10602   5.723   5.645   9.020  0.7603 -1.0901 -0.0177
  104OSM   C16S10603   5.597   5.582   8.861 -1.0165 -0.9078  0.7177
  104OSM   H16S10604   5.520   5.659   8.882  1.2729  1.4418  0.8046
  104OSM   H16T10605   5.555   5.485   8.826  0.9058 -1.0271 -1.4060
  104OSM   C17S10606   5.690   5.623   8.750 -0.5844  0.0004 -0.5238
  104OSM   H17S10607   5.773   5.550   8.749 -0.4510  0.0483  2.4737
  104OSM   H17T10608   5.731   5.723   8.775 -0.6407 -0.0174 -0.3545
  104OSM   C18S10609   5.623   5.637   8.613  0.5377  0.2381 -0.0951
  104OSM   H18S10610   5.697   5.671   8.538 -0.7181  2.5607 -0.3427
  104OSM   H18T10611   5.540   5.711   8.616 -0.2536 -0.5502 -1.7712
  104OSM   H18U10612   5.596   5.533   8.585  0.7451  0.1377  0.0786
  104OSM    C1F10613   5.948   5.331  10.279 -0.1169  0.0353 -0.0055
  104OSM     OF10614   6.069   5.344  10.308  0.5063  0.4797  0.4535
  104OSM    C2F10615   5.863   5.448  10.262 -0.0440  0.4757  0.3403
  104OSM    H2F10616   5.864   5.498  10.361 -0.5521  2.3524 -0.5921
  104OSM    H2G10617   5.758   5.415  10.249  0.3749 -0.1480 -1.5864
  104OSM    C3F10618   5.913   5.540  10.149  0.5345  0.0814 -0.4156
  104OSM    H3F10619   6.016   5.577  10.173  0.9751 -2.2460  1.4133
  104OSM    H3G10620   5.849   5.631  10.150 -0.8714 -0.8933 -0.7239
  104OSM    C4F10621   5.907   5.475  10.010  0.0885  1.0400  0.4302
  104OSM    H4F10622   5.807   5.431   9.988  0.7226 -0.2669  0.1210
  104OSM    H4G10623   5.980   5.391  10.009  0.5402  1.4354 -0.5972
  104OSM    C5F10624   5.947   5.568   9.897 -0.0031  0.3036 -0.6672
  104OSM    H5F10625   6.043   5.620   9.917 -0.1825 -0.5695  2.9606
  104OSM    H5G10626   5.863   5.641   9.897 -1.6227 -1.4891  1.0571
  104OSM    C6F10627   5.948   5.488   9.770  0.2029  0.3294 -0.2836
  104OSM    H6F10628   5.872   5.407   9.761  1.6774 -1.3452  1.7520
  104OSM    H6G10629   6.044   5.432   9.767 -1.2157 -2.3080  1.0678
  104OSM    C7F10630   5.955   5.582   9.647  0.2340 -0.7742 -0.7471
  104OSM    H7F10631   6.016   5.672   9.670 -0.7453 -0.6456  1.4766
  104OSM    H7G10632   5.851   5.618   9.637  0.9093  1.2281 -0.6832
  104OSM    C8F10633   6.007   5.518   9.517 -0.3772  0.2515 -0.4298
  104OSM    H8F10634   5.974   5.412   9.506 -0.3058  0.3099 -1.2039
  104OSM    H8G10635   6.115   5.502   9.538 -0.5480 -1.1724 -0.5959
  104OSM    C9F10636   5.988   5.608   9.401  0.5309  0.2087 -0.1740
  104OSM    H9F10637   5.906   5.680   9.414  0.1407 -0.7355  3.1016
  104OSM   C10F10638   6.058   5.610   9.288  0.2928 -1.4610  0.2726
  104OSM   H10F10639   6.036   5.685   9.211 -0.2079 -1.0412  0.8204
  104OSM   C11F10640   6.177   5.534   9.262  0.0337  0.6539  0.2198
  104OSM   H11F10641   6.151   5.468   9.177 -2.6063  3.6529 -1.4298
  104OSM   H11G10642   6.203   5.465   9.345  0.6017 -2.4466 -2.4324
  104OSM   C12F10643   6.308   5.603   9.233 -0.3731 -0.2116 -0.8268
  104OSM   H12F10644   6.389   5.530   9.212 -1.1853 -1.9722  1.8542
  104OSM   H12G10645   6.338   5.654   9.327 -0.5807  0.0057 -0.8798
  104OSM   C13F10646   6.305   5.713   9.123  0.0917 -0.2102  0.2105
  104OSM   H13F10647   6.408   5.754   9.130 -0.4168  0.9856  0.8287
  104OSM   H13G10648   6.239   5.800   9.144 -1.3936 -0.9148 -1.4664
  104OSM   C14F10649   6.293   5.652   8.982  0.1105 -0.2834 -0.4970
  104OSM   H14F10650   6.184   5.637   8.966 -0.4436  0.0991  2.6383
  104OSM   H14G10651   6.351   5.558   8.993  0.9020  0.0974 -1.3220
  104OSM   C15F10652   6.352   5.745   8.870 -0.1834 -0.2946 -0.7977
  104OSM   H15F10653   6.453   5.772   8.907 -1.2871  1.9217  0.7379
  104OSM   H15G10654   6.301   5.843   8.861  0.6633  0.2519  0.1553
  104OSM   C16F10655   6.364   5.675   8.727  0.1824 -0.2974 -0.2023
  104OSM   H16F10656   6.258   5.660   8.696 -0.3444 -0.1697  1.4901
  104OSM   H16G10657   6.423   5.582   8.723  0.3571 -0.3165  2.0507
  104OSM   C17F10658   6.433   5.773   8.637  0.0256  0.0319 -0.3895
  104OSM   H17F10659   6.425   5.726   8.536 -0.6828  1.8994 -1.2171
  104OSM   H17G10660   6.541   5.774   8.659  0.3361  1.8205 -1.9221
  104OSM   C18F10661   6.383   5.919   8.627 -0.0116 -0.6422 -0.2988
  104OSM   H18F10662   6.274   5.925   8.604  0.1524  1.9954 -0.5252
  104OSM   H18G10663   6.439   5.977   8.551 -0.5547  0.1113 -0.1216
  104OSM   H18H10664   6.411   5.956   8.728  0.1196 -1.7671  0.0874
  105OSM      N10665   5.344   4.820  10.736 -0.4203  0.0049 -0.1982
  105OSM    C1510666   5.378   4.782  10.594 -0.3501 -0.0420 -0.0407
  105OSM   H15A10667   5.287   4.756  10.542 -0.4326  1.0308 -0.4417
  105OSM   H15B10668   5.453   4.706  10.576  0.6980  0.4578  2.0706
  105OSM   H15C10669   5.421   4.868  10.544  2.1612 -1.2942 -0.1152
  105OSM    C1410670   5.454   4.899  10.793 -0.1397 -0.3953 -0.0031
  105OSM   H14A10671   5.476   5.000  10.759 -1.4837  0.1393  0.7020
  105OSM   H14B10672   5.551   4.852  10.784  0.3021  0.5750 -0.4902
  105OSM   H14C10673   5.432   4.915  10.897 -0.4719 -0.7325 -0.0244
  105OSM    C1310674   5.220   4.909  10.720  0.5228 -0.2208 -0.2741
  105OSM   H13A10675   5.183   4.939  10.817 -0.1600 -0.3276 -0.5073
  105OSM   H13B10676   5.137   4.869  10.666 -0.1817  0.8947 -0.0359
  105OSM   H13C10677   5.258   4.989  10.658  0.3243 -0.2103 -0.3818
  105OSM    C1210678   5.314   4.693  10.820  1.0826  0.0011  0.8567
  105OSM   H12A10679   5.259   4.624  10.758  1.3171 -0.9754  1.7142
  105OSM   H12B10680   5.262   4.732  10.906  0.8054  0.9228  0.2788
  105OSM    C1110681   5.428   4.595  10.860 -0.1748  0.2447  0.3708
  105OSM   H11A10682   5.389   4.515  10.928 -1.5791  0.0545 -0.6246
  105OSM   H11B10683   5.493   4.652  10.929  0.7369  2.0558 -1.9395
  105OSM      P10684   5.656   4.568  10.730 -0.1173  0.0970 -0.2543
  105OSM    O1310685   5.693   4.709  10.751 -0.2114 -0.1832 -0.1830
  105OSM    O1410686   5.721   4.464  10.815 -0.3115  0.3114  0.1336
  105OSM    O1110687   5.690   4.526  10.582  0.4888 -0.2680 -0.3408
  105OSM    O1210688   5.503   4.541  10.750  0.3522  0.0817 -0.0727
  105OSM    C1S10689   5.808   4.572  10.513 -0.5104 -0.4593  0.4278
  105OSM    H1S10690   5.895   4.511  10.547 -0.7820 -0.4427  1.1751
  105OSM    H1T10691   5.850   4.670  10.546 -1.2510  0.4303 -1.2133
  105OSM     NF10692   5.927   4.569  10.296  0.0963  0.9354 -0.0899
  105OSM    HNF10693   5.946   4.660  10.261  0.9247  1.4069  1.5212
  105OSM    C2S10694   5.803   4.546  10.360 -0.0294  0.3648  0.0205
  105OSM    H2S10695   5.775   4.439  10.355 -2.9226  1.0841  0.0580
  105OSM    C3S10696   5.678   4.615  10.299 -0.6607  0.5974 -0.0950
  105OSM    H3S10697   5.688   4.726  10.303  1.4519  0.4096  0.0631
  105OSM     O310698   5.562   4.564  10.360 -0.1896  0.4821 -0.2479
  105OSM    HO310699   5.592   4.556  10.451  0.7388 -2.7324 -0.7631
  105OSM    C4S10700   5.671   4.589  10.150  0.4702 -0.8891  1.0105
  105OSM    H4S10701   5.694   4.680  10.091 -1.9177 -0.8130  0.1560
  105OSM    C5S10702   5.621   4.478  10.092  0.2358  0.4628  0.2964
  105OSM    H5S10703   5.613   4.383  10.148  2.4970  1.5503  2.5625
  105OSM    C6S10704   5.618   4.452   9.942  0.4348 -0.5306  0.6319
  105OSM    H6S10705   5.516   4.452   9.899  0.2599  1.7772  0.9936
  105OSM    H6T10706   5.660   4.350   9.928  2.2835  0.0598  1.7071
  105OSM    C7S10707   5.703   4.543   9.859  0.0995 -0.1108 -0.3614
  105OSM    H7S10708   5.808   4.543   9.895  0.0564  0.6978 -0.2062
  105OSM    H7T10709   5.658   4.642   9.883 -4.2456 -1.6765 -1.5499
  105OSM    C8S10710   5.692   4.521   9.703  0.4159  1.1683  0.1396
  105OSM    H8S10711   5.583   4.505   9.685  0.2461 -0.1898  2.1996
  105OSM    H8T10712   5.747   4.430   9.670  1.0218  1.5779  0.0111
  105OSM    C9S10713   5.733   4.649   9.635 -0.0599 -0.3188 -0.2329
  105OSM    H9S10714   5.844   4.655   9.633 -0.0584 -0.6082 -1.3202
  105OSM    H9T10715   5.696   4.734   9.696  0.4829  0.2723 -0.7148
  105OSM   C10S10716   5.697   4.643   9.485  0.1597  0.5989 -0.3972
  105OSM   H10S10717   5.589   4.620   9.479  0.2617  0.1336 -0.4533
  105OSM   H10T10718   5.749   4.560   9.432 -0.6840 -0.7540  0.8740
  105OSM   C11S10719   5.733   4.774   9.407  0.2820  0.7186  0.2719
  105OSM   H11S10720   5.840   4.802   9.404  0.5700 -0.3936 -0.1622
  105OSM   H11T10721   5.682   4.853   9.467 -0.2590 -1.3759  2.6307
  105OSM   C12S10722   5.681   4.770   9.261  0.9564  0.0855  0.2496
  105OSM   H12S10723   5.588   4.709   9.258  1.5737 -0.7983 -1.2657
  105OSM   H12T10724   5.754   4.709   9.204  0.2510 -0.6689  0.1430
  105OSM   C13S10725   5.666   4.905   9.189  0.5042 -1.1584 -0.4572
  105OSM   H13S10726   5.743   4.976   9.225  1.4804 -1.9200 -1.0243
  105OSM   H13T10727   5.566   4.947   9.213  1.4435  0.5852  0.4970
  105OSM   C14S10728   5.668   4.884   9.039  0.3066 -0.0043  0.1805
  105OSM   H14S10729   5.587   4.810   9.022 -0.7336  0.3354  3.2606
  105OSM   H14T10730   5.767   4.846   9.008  0.2107  1.1729 -1.6402
  105OSM   C15S10731   5.643   5.012   8.955  0.1173  0.1765 -0.6000
  105OSM   H15S10732   5.725   5.019   8.880  0.8504 -0.6545  0.1012
  105OSM   H15T10733   5.649   5.097   9.025 -1.0436  0.8329 -1.2926
  105OSM   C16S10734   5.510   5.020   8.878 -0.2303 -0.0390  0.1378
  105OSM   H16S10735   5.420   5.007   8.942 -0.2130  1.6505  0.5364
  105OSM   H16T10736   5.517   4.933   8.810  0.9915 -1.3065  1.8369
  105OSM   C17S10737   5.488   5.153   8.798  0.2193 -0.0965 -0.0410
  105OSM   H17S10738   5.454   5.237   8.863 -1.6343 -1.3862  0.6819
  105OSM   H17T10739   5.400   5.120   8.739 -0.6950 -3.2540  2.9200
  105OSM   C18S10740   5.608   5.200   8.712  0.0499 -0.0668  1.2044
  105OSM   H18S10741   5.698   5.202   8.776  1.3871  1.6640 -0.6737
  105OSM   H18T10742   5.590   5.304   8.676  2.0025  0.6093  2.1222
  105OSM   H18U10743   5.634   5.127   8.633 -1.2120  1.7994 -0.9844
  105OSM    C1F10744   6.034   4.496  10.300  0.3477  0.5984 -0.4426
  105OSM     OF10745   6.036   4.394  10.371 -0.2986 -0.3832 -0.4549
  105OSM    C2F10746   6.158   4.533  10.223 -0.0083 -0.4553  0.8185
  105OSM    H2F10747   6.244   4.484  10.273  0.0681 -3.3758 -2.0248
  105OSM    H2G10748   6.165   4.644  10.215  0.9878 -0.5211  0.7593
  105OSM    C3F10749   6.165   4.453  10.088  0.1521  0.4429 -0.2739
  105OSM    H3F10750   6.075   4.470  10.025  0.7164 -1.4198 -1.6426
  105OSM    H3G10751   6.168   4.347  10.123 -0.7845  1.3296  2.6717
  105OSM    C4F10752   6.291   4.480  10.004  0.4951 -0.5223 -0.1099
  105OSM    H4F10753   6.302   4.403   9.924 -3.4588  0.3141 -1.5721
  105OSM    H4G10754   6.385   4.478  10.063  2.2174  2.0430 -2.6556
  105OSM    C5F10755   6.273   4.607   9.914 -0.4586  0.2563  0.5439
  105OSM    H5F10756   6.309   4.697   9.969  0.7950  0.2443 -0.2248
  105OSM    H5G10757   6.164   4.620   9.898 -0.2283 -0.7420 -2.1640
  105OSM    C6F10758   6.344   4.601   9.783  0.2502  0.8587  0.1856
  105OSM    H6F10759   6.290   4.521   9.727 -0.4729  0.9089  0.8030
  105OSM    H6G10760   6.448   4.568   9.805 -0.3455  0.4979  2.6414
  105OSM    C7F10761   6.354   4.742   9.711  0.0123 -0.2290 -0.3887
  105OSM    H7F10762   6.444   4.750   9.646 -0.5009  1.0279 -0.9558
  105OSM    H7G10763   6.369   4.823   9.785 -0.8097  0.4394 -0.9354
  105OSM    C8F10764   6.234   4.763   9.621 -0.3841  0.0723 -0.2117
  105OSM    H8F10765   6.136   4.744   9.670 -0.0044 -0.1643  0.4685
  105OSM    H8G10766   6.246   4.695   9.534 -1.5488  1.2892 -1.3450
  105OSM    C9F10767   6.230   4.902   9.562  0.0240 -0.2399  0.1530
  105OSM    H9F10768   6.261   4.981   9.632 -0.0168  0.1508 -0.2679
  105OSM   C10F10769   6.207   4.943   9.432  0.2485  0.0721 -0.2340
  105OSM   H10F10770   6.216   5.052   9.416 -1.8849  0.3089  0.1242
  105OSM   C11F10771   6.173   4.855   9.315 -0.1041 -0.1897  0.1187
  105OSM   H11F10772   6.135   4.761   9.359 -0.6904 -0.3279 -0.6654
  105OSM   H11G10773   6.264   4.849   9.252 -0.5273  1.4109 -0.6670
  105OSM   C12F10774   6.063   4.913   9.226 -0.3095  0.1266  0.7316
  105OSM   H12F10775   5.971   4.939   9.284 -0.4435  0.1995  0.4884
  105OSM   H12G10776   6.031   4.828   9.162 -0.2100 -0.0965  0.9755
  105OSM   C13F10777   6.108   5.030   9.138 -0.0368  1.0144 -0.2483
  105OSM   H13F10778   6.206   4.997   9.097 -0.7789 -1.6535  0.0894
  105OSM   H13G10779   6.136   5.123   9.192 -0.6286 -0.4716  2.6727
  105OSM   C14F10780   6.010   5.062   9.033  0.1520 -0.3741  0.3949
  105OSM   H14F10781   5.910   5.092   9.072 -0.3197  0.5001 -1.4597
  105OSM   H14G10782   5.989   4.974   8.969  2.2859 -1.4607  1.1457
  105OSM   C15F10783   6.054   5.182   8.941  0.3327  1.2799 -0.0264
  105OSM   H15F10784   6.147   5.142   8.897  0.6035 -0.1882  1.8121
  105OSM   H15G10785   6.081   5.275   8.996  2.0280  2.0856 -2.1466
  105OSM   C16F10786   5.965   5.211   8.815 -0.0663 -0.5219 -0.0022
  105OSM   H16F10787   5.879   5.272   8.850  0.2157 -0.5659  0.7804
  105OSM   H16G10788   5.951   5.106   8.781  2.1736 -1.3923  1.6584
  105OSM   C17F10789   6.048   5.294   8.708 -0.4049  0.2867  0.3053
  105OSM   H17F10790   5.983   5.280   8.619 -0.1983  1.4716 -0.0474
  105OSM   H17G10791   6.149   5.255   8.684 -1.2794 -1.5616 -0.4827
  105OSM   C18F10792   6.075   5.443   8.726  0.1704  0.2817  0.3702
  105OSM   H18F10793   6.137   5.470   8.814  0.2928 -1.1022  0.7103
  105OSM   H18G10794   5.980   5.501   8.720  0.3470  0.5242 -0.1222
  105OSM   H18H10795   6.136   5.475   8.639  0.1732 -1.4209 -0.2713
  106OSM      N10796   0.449   2.276  10.712  0.1777  0.6233  0.2247
  106OSM    C1510797   0.409   2.315  10.580 -0.0841 -0.4519  0.6353
  106OSM   H15A10798   0.457   2.257  10.502 -0.4368  1.2502 -0.8978
  106OSM   H15B10799   0.446   2.414  10.557  0.7732 -0.8559  0.2495
  106OSM   H15C10800   0.302   2.322  10.563 -0.4335  0.2101  3.0276
  106OSM    C1410801   0.399   2.130  10.730  1.4299 -0.5049  0.0442
  106OSM   H14A10802   0.401   2.082  10.633  3.2676  0.0297 -0.2088
  106OSM   H14B10803   0.298   2.136  10.767  1.7444  0.1888  0.8190
  106OSM   H14C10804   0.463   2.070  10.794 -0.4384 -1.6181  0.8991
  106OSM    C1310805   0.599   2.279  10.735  0.0151  0.1306  0.5882
  106OSM   H13A10806   0.625   2.380  10.705  0.4155 -0.4614 -1.1190
  106OSM   H13B10807   0.645   2.205  10.671 -0.1851  0.6201 -0.1348
  106OSM   H13C10808   0.621   2.256  10.838 -1.0769 -0.7432  0.6277
  106OSM    C1210809   0.387   2.372  10.817  0.4817  0.8049  0.0319
  106OSM   H12A10810   0.431   2.336  10.909  0.5815 -0.2823 -0.4295
  106OSM   H12B10811   0.281   2.361  10.834  0.7633 -0.5189  0.9732
  106OSM    C1110812   0.418   2.529  10.796 -0.1689  1.0367 -0.3100
  106OSM   H11A10813   0.526   2.551  10.810 -0.0143 -0.4171  0.8736
  106OSM   H11B10814   0.374   2.577  10.886  1.6293 -2.4436  2.5021
  106OSM      P10815   0.217   2.627  10.638  0.5812 -0.1743 -0.0326
  106OSM    O1310816   0.113   2.580  10.736 -0.4453 -0.2094 -0.8725
  106OSM    O1410817   0.226   2.773  10.604  0.1589  0.1421 -0.1197
  106OSM    O1110818   0.203   2.544  10.500 -0.0431  0.2935 -0.6578
  106OSM    O1210819   0.363   2.572  10.673 -0.1292 -0.4031 -0.1943
  106OSM    C1S10820   0.196   2.597  10.373  0.0411 -0.3669  0.0004
  106OSM    H1S10821   0.281   2.660  10.341  0.8789 -1.6350 -0.3021
  106OSM    H1T10822   0.104   2.657  10.357  0.1379 -0.2524 -0.1242
  106OSM     NF10823   0.177   2.554  10.128 -0.0186  0.2323 -0.1758
  106OSM    HNF10824   0.086   2.552  10.087  0.6635  0.2716 -1.7379
  106OSM    C2S10825   0.201   2.488  10.261 -0.3023 -0.0884  0.6402
  106OSM    H2S10826   0.307   2.455  10.254 -0.1244  0.5724  0.2302
  106OSM    C3S10827   0.117   2.368  10.290  0.3067  0.2722  0.2242
  106OSM    H3S10828   0.011   2.398  10.284 -0.1688 -1.4907 -0.4502
  106OSM     O310829   0.109   2.324  10.423 -0.0613 -0.6023 -0.4621
  106OSM    HO310830   0.148   2.396  10.472  1.2158 -1.0379 -0.8353
  106OSM    C4S10831   0.139   2.254  10.180  0.4501  0.4152  0.3114
  106OSM    H4S10832   0.056   2.248  10.109  1.7449  0.0600 -1.1885
  106OSM    C5S10833   0.247   2.176  10.166 -0.0708  0.1709  0.4441
  106OSM    H5S10834   0.333   2.174  10.234 -0.6261 -0.9810  1.1289
  106OSM    C6S10835   0.260   2.070  10.052 -0.1613  0.0214  0.3488
  106OSM    H6S10836   0.272   1.965  10.087 -0.7192 -0.7334 -1.6736
  106OSM    H6T10837   0.359   2.093  10.006  1.1485 -2.2465  1.9539
  106OSM    C7S10838   0.154   2.056   9.935  0.3427  0.4626 -0.3123
  106OSM    H7S10839   0.048   2.037   9.962  0.4348  0.8104  0.3141
  106OSM    H7T10840   0.181   1.964   9.880  0.2752  0.2389  0.0290
  106OSM    C8S10841   0.152   2.177   9.840  0.3840 -0.0101 -0.0951
  106OSM    H8S10842   0.242   2.173   9.774  1.1976  1.0130  0.9434
  106OSM    H8T10843   0.167   2.274   9.892 -1.5183 -0.7722  1.9460
  106OSM    C9S10844   0.024   2.190   9.756  0.5647 -0.2496 -0.2049
  106OSM    H9S10845  -0.066   2.204   9.820 -0.1925  1.0414 -1.5049
  106OSM    H9T10846   0.013   2.095   9.699  1.2018 -1.4390  1.6147
  106OSM   C10S10847   0.033   2.312   9.657 -0.0338 -0.1725 -0.5342
  106OSM   H10S10848   0.129   2.315   9.602  0.2060 -0.4560 -0.1359
  106OSM   H10T10849   0.039   2.408   9.713  1.8793 -0.2169 -0.6377
  106OSM   C11S10850  -0.082   2.315   9.550  0.1728 -0.2418 -0.6994
  106OSM   H11S10851  -0.183   2.301   9.595  1.0085  0.0110  1.3374
  106OSM   H11T10852  -0.062   2.237   9.473  1.1195 -1.6511  0.9429
  106OSM   C12S10853  -0.081   2.439   9.477  0.0940 -0.8543 -0.3353
  106OSM   H12S10854   0.014   2.458   9.422 -1.6249  0.8066 -2.8242
  106OSM   H12T10855  -0.085   2.522   9.550 -0.1107 -0.6239 -0.6084
  106OSM   C13S10856  -0.195   2.436   9.376  0.1758  0.0198 -0.8631
  106OSM   H13S10857  -0.287   2.402   9.428 -0.6649 -0.2257 -2.4481
  106OSM   H13T10858  -0.166   2.364   9.296  0.2442 -1.4312  0.4322
  106OSM   C14S10859  -0.213   2.578   9.329 -0.0281 -0.1050 -0.0887
  106OSM   H14S10860  -0.121   2.620   9.282  0.8708 -0.7521  1.0649
  106OSM   H14T10861  -0.237   2.636   9.421 -1.9057 -2.2290  0.8177
  106OSM   C15S10862  -0.334   2.580   9.240 -0.3874 -0.4405 -0.6912
  106OSM   H15S10863  -0.355   2.688   9.229 -1.8911 -0.4494  1.5654
  106OSM   H15T10864  -0.426   2.528   9.276  0.4614 -2.1439 -0.9480
  106OSM   C16S10865  -0.313   2.515   9.098  0.1445 -0.3729 -0.2503
  106OSM   H16S10866  -0.351   2.411   9.104  0.8537 -0.7048 -1.2643
  106OSM   H16T10867  -0.205   2.504   9.072 -0.0729  0.4020 -1.5531
  106OSM   C17S10868  -0.391   2.585   8.988  0.4872  0.2954  0.7212
  106OSM   H17S10869  -0.357   2.690   8.988  1.0304  0.2483 -4.5572
  106OSM   H17T10870  -0.495   2.564   9.023  0.1712  2.0710  0.8885
  106OSM   C18S10871  -0.376   2.531   8.842 -0.3756  0.2971 -0.0457
  106OSM   H18S10872  -0.271   2.510   8.815 -0.8391 -1.9768 -0.1702
  106OSM   H18T10873  -0.427   2.590   8.763  3.1335  0.5338 -2.2345
  106OSM   H18U10874  -0.436   2.438   8.846  1.7766 -1.0768  1.2960
  106OSM    C1F10875   0.264   2.639  10.073 -0.1840  0.2918  0.2689
  106OSM     OF10876   0.383   2.626  10.097 -0.1493 -0.0485 -0.1954
  106OSM    C2F10877   0.219   2.752   9.992  0.4769  0.3920 -0.0643
  106OSM    H2F10878   0.255   2.845  10.042  2.3933 -0.0524 -0.5718
  106OSM    H2G10879   0.109   2.752   9.976  0.5536  0.4825 -0.6166
  106OSM    C3F10880   0.299   2.755   9.857  0.0819  0.4462  0.2064
  106OSM    H3F10881   0.405   2.744   9.889  0.1604  1.1217  0.1769
  106OSM    H3G10882   0.276   2.857   9.820 -0.1590  0.5020  0.5052
  106OSM    C4F10883   0.246   2.649   9.762  0.6912 -0.0255  0.0596
  106OSM    H4F10884   0.139   2.665   9.741  0.3374  0.3393  2.0027
  106OSM    H4G10885   0.256   2.552   9.816 -0.9437 -0.1110  0.2075
  106OSM    C5F10886   0.326   2.672   9.635  0.5730 -0.2017  0.4153
  106OSM    H5F10887   0.436   2.661   9.643  0.4707 -1.2584  0.3652
  106OSM    H5G10888   0.301   2.780   9.623 -1.4043 -0.3203  2.9102
  106OSM    C6F10889   0.264   2.586   9.525 -0.6936  0.8688 -0.1841
  106OSM    H6F10890   0.154   2.602   9.516 -0.9081 -0.9420 -0.9316
  106OSM    H6G10891   0.268   2.479   9.556  3.3072  0.8707 -0.4428
  106OSM    C7F10892   0.328   2.610   9.388  0.9488  0.1096 -0.1712
  106OSM    H7F10893   0.435   2.580   9.392  0.7021 -0.6645  0.8668
  106OSM    H7G10894   0.331   2.717   9.359 -0.5272  0.6383  1.5602
  106OSM    C8F10895   0.240   2.552   9.286 -0.4746  0.6149  0.3436
  106OSM    H8F10896   0.145   2.610   9.285 -0.6641  0.4171  2.6951
  106OSM    H8G10897   0.213   2.448   9.316  1.5247  0.1242  0.5048
  106OSM    C9F10898   0.298   2.561   9.145 -0.4680 -0.1577 -0.2566
  106OSM    H9F10899   0.359   2.651   9.139 -0.4475 -0.1625 -0.1166
  106OSM   C10F10900   0.284   2.484   9.042 -0.5723 -1.0766  0.7515
  106OSM   H10F10901   0.357   2.489   8.960 -1.4730  0.1910 -0.0034
  106OSM   C11F10902   0.203   2.357   9.039  0.3567 -0.6419  0.6423
  106OSM   H11F10903   0.174   2.344   8.932 -1.9392  0.6837  1.0625
  106OSM   H11G10904   0.113   2.369   9.104 -1.4997 -0.2206 -1.9279
  106OSM   C12F10905   0.277   2.230   9.100 -0.2099 -0.5932  0.0944
  106OSM   H12F10906   0.190   2.161   9.108 -1.6628  1.0849 -0.7319
  106OSM   H12G10907   0.309   2.249   9.204 -0.2802  2.1134 -0.3192
  106OSM   C13F10908   0.404   2.183   9.020 -0.3735  0.6020  0.3420
  106OSM   H13F10909   0.440   2.095   9.079 -0.5894 -0.7559 -1.5121
  106OSM   H13G10910   0.487   2.257   9.024 -0.3510  0.6189 -0.4071
  106OSM   C14F10911   0.392   2.150   8.870 -0.0918 -0.1839  0.1990
  106OSM   H14F10912   0.376   2.247   8.818  2.1207 -0.9333 -2.0116
  106OSM   H14G10913   0.295   2.096   8.869 -1.0397  1.4747 -2.0285
  106OSM   C15F10914   0.504   2.082   8.792  0.7214  0.4449 -0.0575
  106OSM   H15F10915   0.490   2.098   8.683  2.7961  1.5898 -0.1883
  106OSM   H15G10916   0.507   1.972   8.803 -0.6037 -0.0424 -3.8260
  106OSM   C16F10917   0.635   2.153   8.833 -0.5136  0.4717  0.1789
  106OSM   H16F10918   0.666   2.106   8.929  0.3399  0.5311 -0.0642
  106OSM   H16G10919   0.626   2.261   8.859 -1.4306  0.6112 -0.6845
  106OSM   C17F10920   0.758   2.136   8.742 -0.2425 -0.1360 -0.5023
  106OSM   H17F10921   0.849   2.185   8.785  0.8382 -1.6610 -1.0293
  106OSM   H17G10922   0.735   2.192   8.649  1.8536  1.0579 -0.3473
  106OSM   C18F10923   0.810   2.003   8.712  0.1659 -0.1549  0.4643
  106OSM   H18F10924   0.839   1.946   8.803  0.2879 -0.2088  0.3921
  106OSM   H18G10925   0.898   2.002   8.645 -1.1138  0.4476 -1.2568
  106OSM   H18H10926   0.733   1.944   8.659 -0.8117 -1.2400  3.0164
  107OSM      N10927   1.129   6.681  11.319  0.4217  0.7359 -0.0744
  107OSM    C1510928   1.228   6.574  11.363  0.4457  0.1901 -0.2481
  107OSM   H15A10929   1.191   6.534  11.456 -2.7640  3.0079 -0.2059
  107OSM   H15B10930   1.328   6.605  11.391  0.9315 -3.3100  2.2342
  107OSM   H15C10931   1.223   6.489  11.296  0.7925 -0.6145  0.7421
  107OSM    C1410932   0.986   6.619  11.331 -0.2772 -0.6942  0.3486
  107OSM   H14A10933   0.960   6.604  11.435  0.9289 -1.7614  0.5072
  107OSM   H14B10934   0.964   6.519  11.296 -2.1005 -0.2013  0.0230
  107OSM   H14C10935   0.914   6.686  11.287 -0.0149  0.5578  1.7941
  107OSM    C1310936   1.138   6.800  11.410 -0.2507 -0.5295 -0.1561
  107OSM   H13A10937   1.046   6.856  11.411 -0.1880 -0.4263  0.4608
  107OSM   H13B10938   1.224   6.865  11.393 -1.3090  1.0547  0.4151
  107OSM   H13C10939   1.148   6.770  11.514  0.9065 -1.2277 -0.4592
  107OSM    C1210940   1.150   6.728  11.175  0.0155 -0.4049  0.1664
  107OSM   H12A10941   1.137   6.638  11.118  2.7440 -1.0423  0.4853
  107OSM   H12B10942   1.250   6.768  11.164 -0.3913  0.1610 -1.6818
  107OSM    C1110943   1.049   6.834  11.111 -0.8635 -0.3288  1.2827
  107OSM   H11A10944   1.096   6.860  11.014 -0.6162 -0.6095  1.3297
  107OSM   H11B10945   1.054   6.920  11.180  2.1525  0.9834 -0.4698
  107OSM      P10946   0.873   6.683  10.989  0.0866  0.3031 -0.1413
  107OSM    O1310947   0.957   6.558  10.988 -1.2508  0.2229  0.2897
  107OSM    O1410948   0.725   6.668  10.980 -0.0925  0.2242 -0.3940
  107OSM    O1110949   0.908   6.770  10.861  0.1581  0.5040  0.2052
  107OSM    O1210950   0.919   6.777  11.108 -0.2981 -0.3708  0.2420
  107OSM    C1S10951   0.879   6.731  10.720 -0.2265 -0.2817 -0.1368
  107OSM    H1S10952   0.769   6.732  10.708 -0.2560  4.0907 -0.0893
  107OSM    H1T10953   0.896   6.622  10.706  0.6313 -0.3724  1.4244
  107OSM     NF10954   0.915   6.768  10.472  0.4831 -0.4427  0.3438
  107OSM    HNF10955   0.970   6.703  10.420  0.4319  0.4461 -0.8476
  107OSM    C2S10956   0.947   6.813  10.608 -0.6647 -0.2382 -0.1112
  107OSM    H2S10957   0.906   6.917  10.609 -1.9454 -0.7428  1.0493
  107OSM    C3S10958   1.100   6.825  10.630  0.4894  0.9219 -1.0786
  107OSM    H3S10959   1.148   6.726  10.614  0.6108  0.9860 -1.1010
  107OSM     O310960   1.146   6.847  10.761  0.1553 -0.2526  0.4207
  107OSM    HO310961   1.073   6.848  10.824  1.6908  0.0940  2.2308
  107OSM    C4S10962   1.158   6.920  10.520 -0.3580  0.1253 -0.2097
  107OSM    H4S10963   1.126   7.024  10.538 -1.1951  0.2947 -2.5520
  107OSM    C5S10964   1.237   6.886  10.417 -0.8396 -0.7778 -0.1486
  107OSM    H5S10965   1.272   6.783  10.404 -2.2359 -1.5531  2.0096
  107OSM    C6S10966   1.285   6.988  10.310  0.1309 -0.8351 -0.2094
  107OSM    H6S10967   1.389   7.017  10.335 -0.7240 -1.0284  3.9309
  107OSM    H6T10968   1.219   7.078  10.314 -0.6895 -1.5094  2.4390
  107OSM    C7S10969   1.296   6.956  10.160  1.2172  0.2913  0.1647
  107OSM    H7S10970   1.357   6.864  10.142 -0.6676 -1.1246  0.8844
  107OSM    H7T10971   1.352   7.034  10.105  0.7204 -2.5609 -4.6474
  107OSM    C8S10972   1.159   6.938  10.087  0.1841 -0.6489  0.0683
  107OSM    H8S10973   1.111   7.038  10.085 -0.4843 -0.9502  0.6331
  107OSM    H8T10974   1.091   6.864  10.135 -2.1487  0.5867 -1.2530
  107OSM    C9S10975   1.187   6.899   9.938 -0.1171  0.3169 -0.5209
  107OSM    H9S10976   1.255   6.978   9.899  0.1678  1.2807  1.8368
  107OSM    H9T10977   1.089   6.915   9.890 -1.2783 -0.5134  1.4964
  107OSM   C10S10978   1.222   6.760   9.893  0.1755  0.1257  0.4374
  107OSM   H10S10979   1.140   6.690   9.918  0.1506 -0.2884 -0.7537
  107OSM   H10T10980   1.314   6.729   9.947  0.9111  1.9202  0.2388
  107OSM   C11S10981   1.246   6.763   9.740  0.2479 -0.1984 -0.3452
  107OSM   H11S10982   1.166   6.830   9.702  1.0823  2.8758  2.9766
  107OSM   H11T10983   1.229   6.661   9.700  1.1684 -0.4180 -0.1797
  107OSM   C12S10984   1.380   6.825   9.701  0.1879  0.5148 -0.6810
  107OSM   H12S10985   1.449   6.800   9.784 -1.2254 -1.3559 -0.0479
  107OSM   H12T10986   1.382   6.936   9.700  0.4743  0.5497 -4.2912
  107OSM   C13S10987   1.453   6.769   9.577 -0.2075 -0.5186 -0.6308
  107OSM   H13S10988   1.379   6.784   9.496  0.4929 -1.6723 -1.4919
  107OSM   H13T10989   1.480   6.661   9.582 -0.8296 -0.6162  0.8379
  107OSM   C14S10990   1.567   6.856   9.545 -0.3872  0.3547  0.2226
  107OSM   H14S10991   1.633   6.852   9.634 -1.3715  0.1772  0.9479
  107OSM   H14T10992   1.542   6.963   9.530 -0.1352  0.4432  0.4177
  107OSM   C15S10993   1.650   6.805   9.427 -0.3534  0.0683 -0.2190
  107OSM   H15S10994   1.682   6.706   9.465 -0.0326  0.1643 -0.2405
  107OSM   H15T10995   1.726   6.884   9.410 -0.2684  0.2700  1.0432
  107OSM   C16S10996   1.569   6.773   9.299  0.8503 -0.7344 -0.6819
  107OSM   H16S10997   1.495   6.854   9.282 -0.5066 -1.5047  1.4366
  107OSM   H16T10998   1.503   6.684   9.311  0.0339 -0.1836 -1.0270
  107OSM   C17S10999   1.652   6.748   9.180  0.7121  0.6034 -0.3838
  107OSM   H17S11000   1.712   6.656   9.198 -0.1370  0.2314  0.5773
  107OSM   H17T11001   1.730   6.827   9.182  0.5737  0.7238  0.5960
  107OSM   C18S11002   1.573   6.745   9.048  0.0258 -0.0708 -0.4114
  107OSM   H18S11003   1.500   6.828   9.054 -0.1365 -0.2758  0.3577
  107OSM   H18T11004   1.510   6.654   9.058 -1.3464  0.9690  0.4091
  107OSM   H18U11005   1.637   6.729   8.958  2.6078  1.3206  1.1122
  107OSM    C1F11006   0.787   6.762  10.420  0.2736  0.0530 -0.1653
  107OSM     OF11007   0.695   6.817  10.481 -0.1728 -0.1212 -0.4564
  107OSM    C2F11008   0.762   6.675  10.306 -0.3793  0.2305 -0.4116
  107OSM    H2F11009   0.664   6.634  10.339  0.9133 -0.1620  3.1194
  107OSM    H2G11010   0.836   6.593  10.318  1.0552  1.6163  0.3679
  107OSM    C3F11011   0.787   6.732  10.165  0.4204  0.2356 -0.3739
  107OSM    H3F11012   0.890   6.773  10.154 -0.5631  2.5125 -1.2399
  107OSM    H3G11013   0.731   6.825  10.144  1.0254  0.7052  0.0797
  107OSM    C4F11014   0.741   6.631  10.054  0.1182  0.4471 -1.1013
  107OSM    H4F11015   0.630   6.624  10.060  0.2044 -0.6204 -0.6661
  107OSM    H4G11016   0.791   6.536  10.084  2.3626  1.9913  0.2106
  107OSM    C5F11017   0.790   6.671   9.908 -0.5621  0.8236 -0.0175
  107OSM    H5F11018   0.780   6.579   9.846  2.1169  0.4629  0.0298
  107OSM    H5G11019   0.898   6.693   9.920 -1.1589  2.9367  1.6570
  107OSM    C6F11020   0.737   6.787   9.832 -0.3195 -0.2242  0.3507
  107OSM    H6F11021   0.743   6.882   9.889  0.7615  1.5129 -2.5326
  107OSM    H6G11022   0.629   6.763   9.819  0.2330 -1.9785 -1.0629
  107OSM    C7F11023   0.813   6.814   9.701  0.6109  0.1748  0.8056
  107OSM    H7F11024   0.921   6.825   9.722  0.5596  0.2835  1.0167
  107OSM    H7G11025   0.776   6.912   9.662  0.4436  0.4591  1.6664
  107OSM    C8F11026   0.770   6.705   9.589 -0.3558 -0.1563 -0.1157
  107OSM    H8F11027   0.728   6.616   9.642 -1.0697 -0.5520 -1.3176
  107OSM    H8G11028   0.865   6.679   9.537  0.5070 -0.5347  1.6193
  107OSM    C9F11029   0.666   6.758   9.492 -0.1598  0.0159 -0.5469
  107OSM    H9F11030   0.590   6.824   9.536  1.5829  2.5241 -1.1615
  107OSM   C10F11031   0.675   6.760   9.359  0.5472  0.0279 -0.5866
  107OSM   H10F11032   0.594   6.806   9.300  1.2361  0.5122 -1.1655
  107OSM   C11F11033   0.784   6.704   9.264 -0.2310  0.0905 -0.4350
  107OSM   H11F11034   0.816   6.603   9.297 -0.8545  0.1391  0.3394
  107OSM   H11G11035   0.875   6.763   9.285 -1.2231  2.0866 -1.6145
  107OSM   C12F11036   0.735   6.686   9.120 -0.1606  0.4602 -0.3570
  107OSM   H12F11037   0.819   6.655   9.054 -0.2812 -0.6347 -0.0060
  107OSM   H12G11038   0.685   6.777   9.079 -1.1808 -0.5943 -1.4925
  107OSM   C13F11039   0.644   6.560   9.110 -0.1862 -0.2482  0.9134
  107OSM   H13F11040   0.548   6.576   9.162 -0.8851 -0.0318 -0.4049
  107OSM   H13G11041   0.684   6.466   9.154 -0.5208 -2.2961 -2.9214
  107OSM   C14F11042   0.595   6.537   8.965 -0.9261 -0.2596  0.5644
  107OSM   H14F11043   0.575   6.638   8.923 -5.0871 -0.9127  0.7895
  107OSM   H14G11044   0.501   6.479   8.960  0.2414 -2.1114 -0.2942
  107OSM   C15F11045   0.696   6.458   8.883 -0.0524  0.2611 -0.8797
  107OSM   H15F11046   0.676   6.349   8.894 -0.4950  0.2627 -1.6676
  107OSM   H15G11047   0.799   6.473   8.922 -0.6818 -2.1380  1.8848
  107OSM   C16F11048   0.703   6.487   8.734 -0.0640  0.0824  0.1396
  107OSM   H16F11049   0.808   6.470   8.701 -0.9860 -2.7422 -1.5471
  107OSM   H16G11050   0.656   6.587   8.724 -0.3473  0.1085  1.7050
  107OSM   C17F11051   0.624   6.386   8.644  0.6109  0.3781  0.9880
  107OSM   H17F11052   0.646   6.281   8.671  1.8647  0.7116  1.2646
  107OSM   H17G11053   0.648   6.405   8.537 -2.0063  3.2750  0.8456
  107OSM   C18F11054   0.472   6.410   8.652 -0.2323  0.2829 -0.0886
  107OSM   H18F11055   0.430   6.389   8.752 -2.0477  1.6871 -0.5272
  107OSM   H18G11056   0.418   6.349   8.577 -2.3889  1.4281  0.5123
  107OSM   H18H11057   0.457   6.518   8.629  1.2460  0.7355  0.9836
  108OSM      N11058   4.637   4.466  11.205  0.4278 -0.3502 -0.6124
  108OSM    C1511059   4.642   4.610  11.190  0.0264 -0.9396  0.5606
  108OSM   H15A11060   4.741   4.646  11.213  1.5580 -2.6205 -3.1142
  108OSM   H15B11061   4.583   4.666  11.261 -1.8016 -0.9156 -0.9487
  108OSM   H15C11062   4.608   4.648  11.095  1.6164 -0.2302  0.2696
  108OSM    C1411063   4.669   4.432  11.346  0.2048 -0.1812  0.1036
  108OSM   H14A11064   4.666   4.326  11.363  0.3743 -0.0620  0.9089
  108OSM   H14B11065   4.611   4.487  11.419  1.8004 -0.4658  1.6148
  108OSM   H14C11066   4.775   4.450  11.360 -0.0578  0.5378  1.1895
  108OSM    C1311067   4.491   4.422  11.188  0.4107 -0.1969 -0.2540
  108OSM   H13A11068   4.482   4.314  11.178  2.0370 -0.2657 -1.0282
  108OSM   H13B11069   4.443   4.473  11.106  0.8192  0.5222 -0.0454
  108OSM   H13C11070   4.433   4.464  11.269  1.0507  0.1168  0.0416
  108OSM    C1211071   4.730   4.399  11.103 -0.1845  0.1847  0.4756
  108OSM   H12A11072   4.709   4.447  11.008 -0.5608  1.4834  1.2049
  108OSM   H12B11073   4.700   4.295  11.097  0.6330 -0.0383  0.1639
  108OSM    C1111074   4.882   4.397  11.141  0.2184 -0.6760 -0.1567
  108OSM   H11A11075   4.935   4.344  11.059  0.7689  0.0798 -0.2959
  108OSM   H11B11076   4.911   4.336  11.230  0.5438 -0.7685 -0.3237
  108OSM      P11077   5.007   4.611  11.045  0.3894  0.0353 -0.3051
  108OSM    O1311078   5.025   4.752  11.085 -0.2447 -0.1077 -0.1156
  108OSM    O1411079   5.128   4.531  11.013  0.0365  0.3214 -0.0786
  108OSM    O1111080   4.906   4.596  10.929  0.6988  0.4449  0.2785
  108OSM    O1211081   4.925   4.530  11.162  0.6889 -0.2563  0.0573
  108OSM    C1S11082   4.827   4.697  10.867 -0.3031  0.1537 -0.0448
  108OSM    H1S11083   4.881   4.793  10.876 -1.0162  0.6200 -0.6860
  108OSM    H1T11084   4.734   4.717  10.924 -1.1815  0.4243 -1.5534
  108OSM     NF11085   4.750   4.775  10.651 -0.0638 -0.1755  0.6480
  108OSM    HNF11086   4.652   4.768  10.631  0.2797  0.1396 -1.1705
  108OSM    C2S11087   4.805   4.664  10.722  0.1020 -0.3652 -0.0325
  108OSM    H2S11088   4.910   4.645  10.691  0.2750  0.4435  0.0369
  108OSM    C3S11089   4.724   4.531  10.704 -0.0695 -0.0988 -0.4741
  108OSM    H3S11090   4.622   4.574  10.718  0.5054  2.1773 -2.6883
  108OSM     O311091   4.756   4.433  10.800 -0.3355  0.2464  0.2895
  108OSM    HO311092   4.831   4.480  10.838  1.2293 -1.2555 -0.8685
  108OSM    C4S11093   4.746   4.493  10.558  0.4177  0.2914  0.4870
  108OSM    H4S11094   4.686   4.557  10.490 -0.0184  0.6461  1.1988
  108OSM    C5S11095   4.814   4.393  10.502 -0.8432 -0.2086  0.1591
  108OSM    H5S11096   4.879   4.325  10.559  1.1206  0.5263 -1.1533
  108OSM    C6S11097   4.820   4.383  10.353  0.0530 -0.0190 -0.0894
  108OSM    H6S11098   4.718   4.398  10.312  0.0184 -0.0562 -0.0178
  108OSM    H6T11099   4.861   4.284  10.324 -2.0638  0.0335 -3.6507
  108OSM    C7S11100   4.905   4.487  10.289  0.2559 -0.3343 -0.5185
  108OSM    H7S11101   5.011   4.473  10.319  0.1769  0.5283  0.2075
  108OSM    H7T11102   4.894   4.589  10.333 -0.9306 -0.9058  0.5379
  108OSM    C8S11103   4.908   4.499  10.138 -0.4195 -0.2925  0.1932
  108OSM    H8S11104   4.953   4.407  10.093 -0.1628  0.3869 -0.9566
  108OSM    H8T11105   4.979   4.579  10.110  1.2738 -1.3815  1.3042
  108OSM    C9S11106   4.768   4.518  10.081  0.8156 -0.1532 -0.0017
  108OSM    H9S11107   4.727   4.618  10.109  0.7660  0.3854 -1.9815
  108OSM    H9T11108   4.706   4.432  10.115 -0.2221  0.3349 -0.6668
  108OSM   C10S11109   4.763   4.517   9.927 -0.6662 -0.4814 -0.2387
  108OSM   H10S11110   4.806   4.610   9.884 -1.3048 -0.9407 -1.9314
  108OSM   H10T11111   4.655   4.513   9.899 -0.8084  1.7588 -0.0950
  108OSM   C11S11112   4.830   4.397   9.856 -0.0101  0.3784  0.1184
  108OSM   H11S11113   4.793   4.303   9.901  1.5066  0.6595  2.0143
  108OSM   H11T11114   4.940   4.412   9.860  0.2211 -0.8484 -1.2445
  108OSM   C12S11115   4.799   4.404   9.705  0.0657 -0.7859 -0.7567
  108OSM   H12S11116   4.847   4.491   9.655 -0.1793  0.1819  0.6722
  108OSM   H12T11117   4.689   4.419   9.707  0.2790  0.9231 -0.8248
  108OSM   C13S11118   4.832   4.274   9.645 -1.1578  0.3692  0.1803
  108OSM   H13S11119   4.777   4.192   9.697  0.0112 -0.3206  0.3478
  108OSM   H13T11120   4.941   4.254   9.651 -1.9396 -4.0808  1.2419
  108OSM   C14S11121   4.798   4.255   9.497 -0.3869  0.3729  0.4191
  108OSM   H14S11122   4.688   4.266   9.487 -0.5102 -0.5386  0.6632
  108OSM   H14T11123   4.821   4.148   9.479  0.1512  0.8711 -1.9767
  108OSM   C15S11124   4.876   4.346   9.410 -0.4601  0.0663  0.4651
  108OSM   H15S11125   4.983   4.332   9.436 -0.7285  0.4853  1.8411
  108OSM   H15T11126   4.845   4.447   9.445 -2.2568  0.0757 -1.0793
  108OSM   C16S11127   4.846   4.315   9.267  0.4213  0.4419  0.1321
  108OSM   H16S11128   4.739   4.329   9.239 -0.3105 -2.1566  1.4413
  108OSM   H16T11129   4.856   4.205   9.249 -1.3966  0.4398 -1.0108
  108OSM   C17S11130   4.947   4.379   9.173  0.0107  0.2309 -0.2189
  108OSM   H17S11131   5.043   4.384   9.228  0.5816 -0.5517 -1.1302
  108OSM   H17T11132   4.922   4.482   9.141 -0.6187  0.5794  1.3430
  108OSM   C18S11133   4.970   4.291   9.047 -0.4212 -0.3093 -0.2623
  108OSM   H18S11134   5.069   4.320   9.006  1.2109 -2.6705  1.8047
  108OSM   H18T11135   4.886   4.295   8.975 -1.6924  0.2510  1.2147
  108OSM   H18U11136   4.962   4.182   9.066  0.9280 -0.2344  0.8076
  108OSM    C1F11137   4.814   4.893  10.624  0.0323 -0.1197  0.0135
  108OSM     OF11138   4.937   4.902  10.632  0.4525 -0.3360  0.1853
  108OSM    C2F11139   4.726   5.006  10.583 -0.7206  0.0004 -0.0389
  108OSM    H2F11140   4.732   5.099  10.643  0.7633  0.2333 -0.5266
  108OSM    H2G11141   4.620   4.973  10.573 -0.6585 -0.7028  1.5196
  108OSM    C3F11142   4.778   5.054  10.438 -0.1367  0.1790 -0.0424
  108OSM    H3F11143   4.877   5.104  10.443  2.0637 -4.2689  3.2190
  108OSM    H3G11144   4.713   5.140  10.409 -1.7515 -1.2271 -0.6632
  108OSM    C4F11145   4.762   4.950  10.325 -1.0682  0.1414 -0.0950
  108OSM    H4F11146   4.669   4.895  10.352 -0.7209  1.1362  3.3920
  108OSM    H4G11147   4.840   4.872  10.335 -0.9194  0.0841 -1.5575
  108OSM    C5F11148   4.762   5.017  10.188  0.3689 -0.0608  0.0894
  108OSM    H5F11149   4.859   5.065  10.161 -0.4389  2.6072  1.7812
  108OSM    H5G11150   4.688   5.099  10.195 -0.2332 -0.6126  0.3132
  108OSM    C6F11151   4.733   4.902  10.088  0.0123 -0.0386 -0.1105
  108OSM    H6F11152   4.638   4.855  10.120 -0.2948  0.4130 -0.3695
  108OSM    H6G11153   4.818   4.830  10.094  0.5357  0.6408  0.7143
  108OSM    C7F11154   4.739   4.943   9.938  0.3101 -0.7591  0.5859
  108OSM    H7F11155   4.698   5.046   9.942  0.3067 -0.7858  1.2778
  108OSM    H7G11156   4.676   4.872   9.880  0.8415 -0.2010 -0.6946
  108OSM    C8F11157   4.880   4.939   9.875  0.0493 -0.0985  0.0746
  108OSM    H8F11158   4.898   4.833   9.850  0.6638  0.0512 -0.1382
  108OSM    H8G11159   4.957   4.975   9.947  0.3408  1.8943 -1.1828
  108OSM    C9F11160   4.893   5.013   9.747 -0.2028  0.7022  0.0793
  108OSM    H9F11161   4.922   5.118   9.758  0.8974  0.7086 -2.4629
  108OSM   C10F11162   4.877   4.977   9.621 -0.4299 -0.2953  0.2486
  108OSM   H10F11163   4.898   5.066   9.559  0.6776 -0.5351  0.2622
  108OSM   C11F11164   4.847   4.842   9.560  0.4499 -0.0088  0.3501
  108OSM   H11F11165   4.893   4.755   9.612  2.4603  0.7761 -0.0993
  108OSM   H11G11166   4.894   4.838   9.459 -1.6813 -2.6307 -0.6123
  108OSM   C12F11167   4.692   4.824   9.541 -0.1449 -0.1143 -0.5466
  108OSM   H12F11168   4.653   4.910   9.482  0.6937  0.2855 -0.5367
  108OSM   H12G11169   4.643   4.820   9.641  0.5277 -0.7366 -0.2430
  108OSM   C13F11170   4.642   4.694   9.474  0.2377  0.6887 -0.2847
  108OSM   H13F11171   4.532   4.686   9.482  0.3577  0.0339  0.8315
  108OSM   H13G11172   4.679   4.609   9.535  0.8689  1.2542  0.1277
  108OSM   C14F11173   4.692   4.670   9.329  0.2677  0.3011 -0.1123
  108OSM   H14F11174   4.665   4.565   9.304  0.4845  0.2081  0.0353
  108OSM   H14G11175   4.802   4.682   9.331  0.3831 -0.2837 -2.3674
  108OSM   C15F11176   4.634   4.767   9.232  0.5718  0.4444  0.6980
  108OSM   H15F11177   4.668   4.870   9.258  0.8481  0.5792 -0.1534
  108OSM   H15G11178   4.525   4.770   9.249  0.6181 -0.5362  1.1496
  108OSM   C16F11179   4.667   4.715   9.093 -0.1668  0.1576  0.1128
  108OSM   H16F11180   4.611   4.623   9.066 -2.2080  0.8346  1.8736
  108OSM   H16G11181   4.776   4.693   9.093  0.2743  2.0662 -2.6709
  108OSM   C17F11182   4.638   4.798   8.971  0.1547  0.2941 -0.4272
  108OSM   H17F11183   4.691   4.751   8.886 -0.4326 -2.2721  0.5688
  108OSM   H17G11184   4.683   4.898   8.990 -0.6830  0.3643  1.3279
  108OSM   C18F11185   4.493   4.827   8.946 -0.2479 -0.0556  0.7095
  108OSM   H18F11186   4.439   4.733   8.920  0.0329 -0.3078  1.0481
  108OSM   H18G11187   4.486   4.878   8.847  1.8494  1.5552  1.3655
  108OSM   H18H11188   4.449   4.882   9.032  0.0953 -0.2868  1.0340
  109OSM      N11189   5.369   5.896  10.919  0.2734  0.7058 -0.4351
  109OSM    C1511190   5.241   5.874  10.846  0.1988 -0.0776  0.4465
  109OSM   H15A11191   5.166   5.939  10.888 -3.3751 -4.1723  0.7034
  109OSM   H15B11192   5.212   5.770  10.843 -3.0119  0.7624  0.4354
  109OSM   H15C11193   5.252   5.898  10.741 -0.3143 -0.4474  0.3033
  109OSM    C1411194   5.403   6.040  10.896 -0.1327  0.0241  0.0046
  109OSM   H14A11195   5.399   6.078  10.795 -1.1077  0.5640  0.2381
  109OSM   H14B11196   5.502   6.054  10.935  0.5356 -2.8410 -0.5153
  109OSM   H14C11197   5.334   6.096  10.958 -0.4332 -1.8482  1.4006
  109OSM    C1311198   5.335   5.875  11.067 -0.3328 -0.5595  0.3992
  109OSM   H13A11199   5.285   5.964  11.103 -0.9447 -0.1014 -1.5079
  109OSM   H13B11200   5.426   5.874  11.124  1.4066 -1.4171 -2.3014
  109OSM   H13C11201   5.274   5.788  11.087 -0.7873 -0.8733 -2.1423
  109OSM    C1211202   5.478   5.808  10.870 -1.0906  0.3341  0.4285
  109OSM   H12A11203   5.439   5.710  10.893  1.3028  0.1135  3.9796
  109OSM   H12B11204   5.568   5.821  10.929 -1.0014  0.0263  0.3615
  109OSM    C1111205   5.520   5.805  10.723 -0.1030 -0.5517  0.1869
  109OSM   H11A11206   5.424   5.801  10.666  0.1925  0.9089 -0.4189
  109OSM   H11B11207   5.573   5.715  10.685 -1.1982 -1.7859  1.5502
  109OSM      P11208   5.747   5.943  10.717  0.2312  0.1839  0.6599
  109OSM    O1311209   5.768   5.955  10.859 -0.3455  0.8301 -0.4700
  109OSM    O1411210   5.833   5.848  10.641 -0.7056  0.2870 -0.1532
  109OSM    O1111211   5.774   6.082  10.647  1.1915  0.0793 -0.7037
  109OSM    O1211212   5.592   5.918  10.683 -0.2660 -0.1928  0.0936
  109OSM    C1S11213   5.780   6.108  10.510  1.0098  0.7406 -0.1419
  109OSM    H1S11214   5.865   6.051  10.469  0.1794 -0.5805 -0.0632
  109OSM    H1T11215   5.801   6.216  10.496 -1.7260  1.4203  0.5733
  109OSM     NF11216   5.701   6.094  10.283 -0.2033  0.1758  0.1188
  109OSM    HNF11217   5.686   6.187  10.251  0.5000 -0.4401 -2.1112
  109OSM    C2S11218   5.655   6.075  10.413  0.0470  0.0181  0.1188
  109OSM    H2S11219   5.618   5.971  10.424 -2.7001  1.0443  0.8265
  109OSM    C3S11220   5.535   6.163  10.458  0.9406 -0.3042  0.1672
  109OSM    H3S11221   5.568   6.268  10.472 -1.1258  0.2342  1.1224
  109OSM     O311222   5.474   6.145  10.592 -0.2582  0.1944 -0.6375
  109OSM    HO311223   5.530   6.071  10.617  0.7872  0.9367 -0.7849
  109OSM    C4S11224   5.426   6.169  10.357  0.0766  0.1676 -0.4375
  109OSM    H4S11225   5.444   6.250  10.284  1.0911  0.1699 -0.1924
  109OSM    C5S11226   5.316   6.086  10.335  0.2557 -0.6074 -1.2502
  109OSM    H5S11227   5.313   5.991  10.390 -0.5953 -0.5223 -1.1435
  109OSM    C6S11228   5.231   6.105  10.216 -0.0489 -0.2213 -0.4231
  109OSM    H6S11229   5.143   6.159  10.254  1.7164  1.0418  1.9959
  109OSM    H6T11230   5.198   6.004  10.182  1.5050 -0.6303 -0.7773
  109OSM    C7S11231   5.280   6.179  10.100 -0.4627 -0.9427  0.7673
  109OSM    H7S11232   5.375   6.141  10.055 -1.8794 -1.7403 -1.6236
  109OSM    H7T11233   5.300   6.286  10.117  2.3227 -0.8613 -2.4275
  109OSM    C8S11234   5.175   6.177   9.985 -0.8862  0.5523 -0.4697
  109OSM    H8S11235   5.072   6.210  10.010 -0.5665  1.3386 -0.1734
  109OSM    H8T11236   5.167   6.074   9.945 -0.4029 -0.2520  1.4503
  109OSM    C9S11237   5.218   6.263   9.856 -0.8151 -0.0961 -0.1445
  109OSM    H9S11238   5.324   6.236   9.836 -1.0393 -1.8013  0.8827
  109OSM    H9T11239   5.215   6.373   9.875 -2.4016 -0.3818  1.3823
  109OSM   C10S11240   5.130   6.230   9.737  0.4292  0.6716  0.0288
  109OSM   H10S11241   5.023   6.235   9.765  0.9533  1.0412  2.0556
  109OSM   H10T11242   5.156   6.125   9.715  0.9453  0.7545  0.2169
  109OSM   C11S11243   5.156   6.301   9.608 -0.0117  0.1377  0.2060
  109OSM   H11S11244   5.262   6.279   9.583 -0.3084 -1.5437  0.3867
  109OSM   H11T11245   5.165   6.410   9.626  0.6971 -0.3374  2.9793
  109OSM   C12S11246   5.061   6.279   9.483  0.1039 -0.4128 -0.1904
  109OSM   H12S11247   4.961   6.323   9.507  1.0664  1.7956 -0.0702
  109OSM   H12T11248   5.041   6.170   9.473 -1.1061 -0.3331  1.0854
  109OSM   C13S11249   5.126   6.348   9.361 -0.3797  0.0413 -0.2024
  109OSM   H13S11250   5.231   6.315   9.373 -0.1644  0.8079  0.0575
  109OSM   H13T11251   5.131   6.457   9.385 -0.5692 -0.5372  2.6225
  109OSM   C14S11252   5.052   6.316   9.237  0.5217 -0.0292  0.3796
  109OSM   H14S11253   4.950   6.361   9.237  0.7707  0.5718 -1.4198
  109OSM   H14T11254   5.038   6.206   9.238 -1.6140  0.2305  1.0939
  109OSM   C15S11255   5.115   6.363   9.112  0.1147  0.5204  0.0052
  109OSM   H15S11256   5.219   6.325   9.108 -0.5651 -1.2064 -3.0006
  109OSM   H15T11257   5.111   6.474   9.101  2.0953  0.6574  0.4233
  109OSM   C16S11258   5.039   6.316   8.981  0.1011 -0.3148 -0.0654
  109OSM   H16S11259   5.093   6.362   8.895  0.4363  4.0230  2.2835
  109OSM   H16T11260   4.933   6.351   8.983  0.0839 -0.4166  4.0181
  109OSM   C17S11261   5.046   6.164   8.954 -0.0167 -0.8227 -0.3299
  109OSM   H17S11262   5.001   6.115   9.043  1.5874  0.9043  1.5010
  109OSM   H17T11263   5.151   6.127   8.952 -0.4294 -1.8984 -3.3633
  109OSM   C18S11264   4.980   6.138   8.820  0.3457  0.8375  0.4067
  109OSM   H18S11265   5.032   6.190   8.737  0.0094 -0.3505 -0.5615
  109OSM   H18T11266   4.879   6.183   8.834 -0.0301 -0.2057  1.0728
  109OSM   H18U11267   4.962   6.029   8.807  0.0949  1.1188 -1.7542
  109OSM    C1F11268   5.774   6.007  10.224 -1.0732 -0.1231  0.2135
  109OSM     OF11269   5.808   5.901  10.283  0.1197  0.4495 -0.2844
  109OSM    C2F11270   5.832   6.036  10.084  0.1140  0.3589  0.3952
  109OSM    H2F11271   5.919   6.103  10.103 -1.3881  1.7026  2.7171
  109OSM    H2G11272   5.755   6.087  10.022  0.6913  1.1763  0.3420
  109OSM    C3F11273   5.901   5.918  10.025  0.1458 -0.5993 -0.6038
  109OSM    H3F11274   5.837   5.829  10.007 -2.8020  1.1816  0.7559
  109OSM    H3G11275   5.979   5.894  10.100  0.5256  0.6461 -0.5868
  109OSM    C4F11276   5.969   5.954   9.887 -0.3134  0.4765  0.5323
  109OSM    H4F11277   6.028   5.861   9.869 -2.6286 -1.0224  0.4825
  109OSM    H4G11278   6.053   6.028   9.887 -0.3429  0.5851 -2.2990
  109OSM    C5F11279   5.872   5.985   9.771  0.2551 -0.1066 -0.4869
  109OSM    H5F11280   5.819   6.082   9.782 -0.2255 -0.3879 -0.2795
  109OSM    H5G11281   5.793   5.907   9.777 -0.7007  0.9020  0.3398
  109OSM    C6F11282   5.941   5.988   9.631 -0.4664  0.6419 -0.4170
  109OSM    H6F11283   5.854   5.978   9.563  0.2528 -2.3324 -0.9688
  109OSM    H6G11284   6.006   5.898   9.617 -0.1973  0.7125  0.3488
  109OSM    C7F11285   6.005   6.123   9.583 -0.2281  0.1673  0.0363
  109OSM    H7F11286   6.098   6.136   9.644 -0.8322  1.9455  0.5964
  109OSM    H7G11287   5.942   6.210   9.609  0.5968  0.6496  0.4439
  109OSM    C8F11288   6.053   6.127   9.436 -0.7407 -0.0026  0.7611
  109OSM    H8F11289   6.103   6.032   9.406  2.1354  1.0679  1.9618
  109OSM    H8G11290   6.125   6.211   9.430  2.1974 -2.3697  1.6015
  109OSM    C9F11291   5.932   6.170   9.353 -0.3395  0.4359 -0.0041
  109OSM    H9F11292   5.902   6.273   9.376 -2.5143  0.3647 -2.2010
  109OSM   C10F11293   5.868   6.095   9.262  0.6182  0.3419  0.1044
  109OSM   H10F11294   5.782   6.140   9.211 -0.3901 -0.3358  1.2025
  109OSM   C11F11295   5.898   5.952   9.223  0.1662  0.0770  0.0388
  109OSM   H11F11296   5.851   5.879   9.292  2.7312 -1.4240  0.2749
  109OSM   H11G11297   6.005   5.925   9.229  0.6847  2.0592  0.0335
  109OSM   C12F11298   5.858   5.920   9.075  0.6642  0.2987  0.2473
  109OSM   H12F11299   5.752   5.944   9.057  0.9314  1.1674 -0.2085
  109OSM   H12G11300   5.870   5.812   9.051  3.4817  0.5985  0.1409
  109OSM   C13F11301   5.941   5.990   8.971  0.2430 -0.2110 -0.2798
  109OSM   H13F11302   6.045   5.962   8.995  0.4708 -0.1109 -1.1333
  109OSM   H13G11303   5.937   6.100   8.980  0.8168 -0.3623  2.2674
  109OSM   C14F11304   5.903   5.952   8.830 -0.2976 -0.0643  0.2603
  109OSM   H14F11305   5.813   6.013   8.807  0.9707  1.7720  0.1408
  109OSM   H14G11306   5.902   5.843   8.808  3.3014 -0.2792  0.9078
  109OSM   C15F11307   6.007   5.991   8.726  0.6967 -0.3177 -0.4111
  109OSM   H15F11308   6.106   5.947   8.752  0.5552 -0.2011  0.3496
  109OSM   H15G11309   6.025   6.100   8.731  0.6014 -0.2892 -0.6869
  109OSM   C16F11310   5.978   5.941   8.578  0.4201  0.1817 -0.1544
  109OSM   H16F11311   5.992   5.832   8.565 -0.3116  0.0078  0.4979
  109OSM   H16G11312   6.060   5.983   8.515 -0.6987  1.3195 -0.8774
  109OSM   C17F11313   5.846   5.994   8.521  0.2643 -0.0374  0.1540
  109OSM   H17F11314   5.844   6.103   8.544  1.1911 -0.2783  1.4420
  109OSM   H17G11315   5.768   5.951   8.588  1.1084  0.0498  1.2018
  109OSM   C18F11316   5.804   5.956   8.379 -0.2499 -0.3453 -0.3343
  109OSM   H18F11317   5.893   5.976   8.315 -0.1184 -1.7269 -0.6045
  109OSM   H18G11318   5.714   6.013   8.350  0.5797 -0.0746 -2.4802
  109OSM   H18H11319   5.770   5.850   8.373 -2.1033  0.2002  0.3026
  110OSM      N11320   6.778   4.879  11.099 -0.2214 -0.4638 -0.0896
  110OSM    C1511321   6.647   4.846  11.169  0.7315  0.2642  0.4319
  110OSM   H15A11322   6.619   4.741  11.165  1.2773  0.1442 -0.3072
  110OSM   H15B11323   6.567   4.894  11.115  0.9891 -0.2593 -0.4148
  110OSM   H15C11324   6.633   4.883  11.270  3.9616  1.2003  0.5866
  110OSM    C1411325   6.768   5.016  11.040 -0.0432 -0.2510 -0.2884
  110OSM   H14A11326   6.739   5.089  11.114 -1.0064 -1.6339  0.7205
  110OSM   H14B11327   6.700   5.020  10.956  1.0929  1.6842 -1.1507
  110OSM   H14C11328   6.859   5.055  10.997  0.4747 -2.1111 -0.9354
  110OSM    C1311329   6.885   4.874  11.200  0.1678 -0.1200  0.0067
  110OSM   H13A11330   6.980   4.900  11.156  0.0179  0.1967 -0.1271
  110OSM   H13B11331   6.889   4.778  11.250 -0.5817  0.2253  0.7361
  110OSM   H13C11332   6.884   4.953  11.273  2.7041 -0.7186  0.7571
  110OSM    C1211333   6.806   4.768  10.994  0.2754 -0.9888  0.1625
  110OSM   H12A11334   6.718   4.764  10.932  1.2389 -0.6759 -1.2423
  110OSM   H12B11335   6.815   4.672  11.042  1.4213  0.2459  2.4745
  110OSM    C1111336   6.927   4.793  10.906  0.0854  0.0979 -0.5582
  110OSM   H11A11337   7.017   4.803  10.970 -0.2377 -0.1167 -0.0625
  110OSM   H11B11338   6.917   4.888  10.850  2.8829  0.3532 -0.7075
  110OSM      P11339   6.978   4.540  10.855  0.1928 -0.2058  0.4250
  110OSM    O1311340   7.122   4.536  10.879  0.3453 -0.5233 -0.1790
  110OSM    O1411341   6.904   4.495  10.972 -0.1049 -0.0461  0.1688
  110OSM    O1111342   6.948   4.453  10.728 -0.8055  0.3352  0.2439
  110OSM    O1211343   6.940   4.688  10.812  0.2726  0.4342  0.1847
  110OSM    C1S11344   6.814   4.454  10.673 -0.2538  0.4257  0.4061
  110OSM    H1S11345   6.752   4.545  10.690 -0.2439  0.4030  0.5667
  110OSM    H1T11346   6.750   4.372  10.711  0.1236 -1.2700 -2.5380
  110OSM     NF11347   6.695   4.448  10.448 -0.1250 -0.1383  0.0537
  110OSM    HNF11348   6.649   4.363  10.421  0.6349 -1.3618  2.4977
  110OSM    C2S11349   6.831   4.427  10.516  0.1869 -0.1593 -0.3137
  110OSM    H2S11350   6.899   4.510  10.490  0.2384  0.1878  0.8958
  110OSM    C3S11351   6.895   4.291  10.478 -0.4898  0.4182 -0.0803
  110OSM    H3S11352   6.808   4.224  10.492  0.4935 -1.1356 -1.1986
  110OSM     O311353   7.007   4.239  10.558  0.4139  0.3620  0.5327
  110OSM    HO311354   7.008   4.300  10.633 -1.6307 -1.0805  1.7595
  110OSM    C4S11355   6.917   4.276  10.328 -0.2171 -0.5307  0.5380
  110OSM    H4S11356   6.827   4.245  10.273 -0.6874  1.7194 -0.0203
  110OSM    C5S11357   7.026   4.322  10.259 -0.0342 -0.7210 -0.1375
  110OSM    H5S11358   7.115   4.346  10.320 -0.2618 -1.3352  0.4451
  110OSM    C6S11359   7.051   4.324  10.107 -0.3256  0.3283 -0.2401
  110OSM    H6S11360   7.143   4.267  10.081 -0.0478  0.0719  1.2306
  110OSM    H6T11361   7.076   4.426  10.070 -0.3019  2.1070  4.2538
  110OSM    C7S11362   6.939   4.265  10.013  0.4557 -0.4162  0.4995
  110OSM    H7S11363   6.848   4.329  10.005  2.1462  1.9845 -0.0215
  110OSM    H7T11364   6.915   4.164  10.053  0.5571 -0.5277  0.2815
  110OSM    C8S11365   6.992   4.249   9.867  0.1585  0.3423  0.1990
  110OSM    H8S11366   7.075   4.177   9.884 -1.0353 -0.5487  2.4201
  110OSM    H8T11367   7.035   4.343   9.826 -0.4409 -0.8169 -3.2081
  110OSM    C9S11368   6.888   4.180   9.776  0.0064  0.2832 -0.3276
  110OSM    H9S11369   6.795   4.240   9.789 -0.8419 -0.2944 -3.3065
  110OSM    H9T11370   6.873   4.081   9.824 -0.3494  0.7085  0.4398
  110OSM   C10S11371   6.920   4.164   9.627  0.6791  0.7426  0.4917
  110OSM   H10S11372   7.009   4.100   9.612  0.5107  0.2720  1.4454
  110OSM   H10T11373   6.944   4.265   9.586  1.4260  0.9089  1.3040
  110OSM   C11S11374   6.803   4.118   9.538 -0.5241 -0.3286  0.6943
  110OSM   H11S11375   6.722   4.194   9.527 -2.0433 -1.7297  1.9206
  110OSM   H11T11376   6.768   4.025   9.587 -0.3981 -0.4513  0.5465
  110OSM   C12S11377   6.829   4.074   9.393 -0.3993 -0.6252 -0.6730
  110OSM   H12S11378   6.891   3.981   9.399  4.0839  2.1993 -0.6969
  110OSM   H12T11379   6.886   4.154   9.341  0.5229 -1.1607 -0.5100
  110OSM   C13S11380   6.700   4.048   9.314  0.0834  0.1776 -0.0922
  110OSM   H13S11381   6.645   4.144   9.303  0.8109  0.8064  1.4768
  110OSM   H13T11382   6.650   3.976   9.383  2.0059  0.7105  1.9499
  110OSM   C14S11383   6.724   3.970   9.189 -0.1757 -0.1616  1.0693
  110OSM   H14S11384   6.636   3.904   9.175  1.5682 -2.0464 -1.5378
  110OSM   H14T11385   6.812   3.903   9.201 -0.2617 -0.4678  0.0268
  110OSM   C15S11386   6.737   4.062   9.067  0.0478 -0.5074  1.3145
  110OSM   H15S11387   6.785   4.014   8.979 -1.6405 -0.6608  0.4554
  110OSM   H15T11388   6.795   4.153   9.093 -0.5117 -0.0696  1.0441
  110OSM   C16S11389   6.611   4.120   9.001 -0.0542 -0.1320  0.1275
  110OSM   H16S11390   6.553   4.163   9.085 -1.9320 -0.2254 -1.0951
  110OSM   H16T11391   6.551   4.031   8.973  1.7832 -1.9869  1.8523
  110OSM   C17S11392   6.629   4.211   8.877  0.7243 -0.1182  0.3467
  110OSM   H17S11393   6.530   4.253   8.849  0.7869 -1.5635 -2.2667
  110OSM   H17T11394   6.651   4.136   8.798 -0.1678 -1.3647  1.2662
  110OSM   C18S11395   6.731   4.330   8.876 -0.0092 -0.5496 -0.1984
  110OSM   H18S11396   6.714   4.385   8.781  0.9404 -0.3317 -0.2449
  110OSM   H18T11397   6.836   4.297   8.886 -0.5010 -1.9405  0.5997
  110OSM   H18U11398   6.716   4.405   8.956 -2.2393 -0.7616 -0.3813
  110OSM    C1F11399   6.630   4.569  10.447 -0.0424  0.2779  0.9365
  110OSM     OF11400   6.666   4.664  10.518  0.1467  0.7052  0.5503
  110OSM    C2F11401   6.507   4.571  10.367  0.5984  0.0004  0.0854
  110OSM    H2F11402   6.418   4.531  10.420 -0.1718  1.8878  0.2814
  110OSM    H2G11403   6.523   4.505  10.280  1.4980  0.6463 -0.2410
  110OSM    C3F11404   6.486   4.712  10.303 -0.1692 -0.0975 -0.2792
  110OSM    H3F11405   6.428   4.702  10.209 -2.1225 -0.0599  0.9039
  110OSM    H3G11406   6.585   4.753  10.272 -0.4954  0.6254 -0.3709
  110OSM    C4F11407   6.404   4.807  10.396 -0.3810  0.2555 -0.0812
  110OSM    H4F11408   6.460   4.833  10.488 -1.6315  1.0160  0.4815
  110OSM    H4G11409   6.312   4.754  10.429 -1.1259  0.8193 -1.2445
  110OSM    C5F11410   6.349   4.920  10.318 -0.4973 -0.3008 -0.6343
  110OSM    H5F11411   6.280   4.983  10.378  1.0699  1.6207 -0.7793
  110OSM    H5G11412   6.279   4.885  10.240 -1.6907  1.8204 -0.5429
  110OSM    C6F11413   6.449   5.010  10.244 -0.3365 -0.0763 -0.1484
  110OSM    H6F11414   6.511   4.953  10.172 -0.2861 -0.3282  0.0966
  110OSM    H6G11415   6.518   5.058  10.316  0.9966 -1.3088 -0.5826
  110OSM    C7F11416   6.365   5.114  10.159 -0.9501 -0.3767 -0.0472
  110OSM    H7F11417   6.427   5.207  10.154 -1.7952  0.1875 -0.1971
  110OSM    H7G11418   6.276   5.153  10.212  0.0374  0.3762  1.0942
  110OSM    C8F11419   6.333   5.062  10.018 -0.1522 -0.1770  0.5931
  110OSM    H8F11420   6.278   4.966  10.034  0.9526 -1.2554 -1.8418
  110OSM    H8G11421   6.423   5.024   9.965  0.7134  2.6952 -0.0646
  110OSM    C9F11422   6.252   5.160   9.941  0.9118 -0.1369 -0.1247
  110OSM    H9F11423   6.158   5.192   9.990 -0.8721 -1.8848 -2.2536
  110OSM   C10F11424   6.280   5.218   9.829  0.0830  0.1558 -0.2720
  110OSM   H10F11425   6.205   5.288   9.791  1.5647  0.9488 -1.8243
  110OSM   C11F11426   6.403   5.203   9.744  0.6454  0.3797 -0.3586
  110OSM   H11F11427   6.408   5.099   9.704 -0.1615 -0.6454  2.0823
  110OSM   H11G11428   6.501   5.216   9.795 -0.7458 -0.3297  2.6079
  110OSM   C12F11429   6.409   5.301   9.614 -0.3376  0.0601 -0.6956
  110OSM   H12F11430   6.466   5.394   9.634 -1.0792 -0.0029  1.8765
  110OSM   H12G11431   6.307   5.339   9.592  0.9255  3.7100 -0.6371
  110OSM   C13F11432   6.470   5.221   9.499  0.7036  0.0879  0.3374
  110OSM   H13F11433   6.419   5.122   9.500  0.3952  0.2454  1.4284
  110OSM   H13G11434   6.575   5.202   9.527  1.6564  0.6311 -2.7587
  110OSM   C14F11435   6.468   5.297   9.362 -0.8162  0.7835  0.5556
  110OSM   H14F11436   6.499   5.403   9.377  1.6785  0.0506  0.7127
  110OSM   H14G11437   6.366   5.297   9.316 -1.7990 -2.8459  2.6102
  110OSM   C15F11438   6.558   5.232   9.259 -0.0906  0.5206  0.0698
  110OSM   H15F11439   6.533   5.125   9.238 -0.8701  0.1899  2.5845
  110OSM   H15G11440   6.661   5.228   9.300  0.5048 -0.0528 -1.4322
  110OSM   C16F11441   6.557   5.323   9.137  0.4520 -0.2113  0.7902
  110OSM   H16F11442   6.571   5.426   9.176  0.4325  0.2569 -0.3898
  110OSM   H16G11443   6.453   5.327   9.096  0.3988  1.6816  1.0605
  110OSM   C17F11444   6.638   5.271   9.012  0.3374  0.2244  0.4163
  110OSM   H17F11445   6.621   5.331   8.920  0.2365  0.8740  0.8576
  110OSM   H17G11446   6.597   5.169   8.995  1.3911 -0.1975  0.3788
  110OSM   C18F11447   6.786   5.245   9.039 -0.4176 -0.8007 -0.0315
  110OSM   H18F11448   6.838   5.219   8.944 -0.4722 -1.9857  0.2503
  110OSM   H18G11449   6.798   5.153   9.100  2.0263 -0.7586 -0.3781
  110OSM   H18H11450   6.841   5.332   9.079 -1.4437 -0.0599 -0.2152
  111OSM      N11451   1.081   1.211  11.148 -0.1509 -0.0687 -0.4634
  111OSM    C1511452   1.143   1.082  11.174  0.6709 -0.2029  0.0113
  111OSM   H15A11453   1.087   1.034  11.253  1.7742 -0.8234  0.4281
  111OSM   H15B11454   1.244   1.090  11.211  0.5517 -0.4204  0.3882
  111OSM   H15C11455   1.143   1.015  11.089  0.6776 -1.2336  0.8075
  111OSM    C1411456   0.948   1.181  11.078 -0.5671 -0.5122  0.2501
  111OSM   H14A11457   0.885   1.122  11.143  0.6503 -1.5923  0.4784
  111OSM   H14B11458   0.974   1.124  10.990 -2.6334 -0.0312 -0.7020
  111OSM   H14C11459   0.905   1.276  11.052  1.9036  0.2908 -1.0124
  111OSM    C1311460   1.042   1.284  11.280  0.8430  0.2571 -0.2383
  111OSM   H13A11461   0.999   1.383  11.276  2.9106  1.4577  4.0400
  111OSM   H13B11462   1.130   1.292  11.342  0.5653  0.4155  0.1416
  111OSM   H13C11463   0.978   1.221  11.340 -1.0988  1.9681 -0.4430
  111OSM    C1211464   1.165   1.292  11.053 -0.2691 -0.1262 -0.2051
  111OSM   H12A11465   1.252   1.320  11.110 -1.4329 -0.0821  1.5742
  111OSM   H12B11466   1.110   1.382  11.029  1.4913  0.9735 -0.2413
  111OSM    C1111467   1.194   1.226  10.917  0.0710 -0.2515  0.2337
  111OSM   H11A11468   1.233   1.123  10.911  0.2399 -0.3320  2.3290
  111OSM   H11B11469   1.268   1.294  10.869  0.3878 -1.1511 -0.5535
  111OSM      P11470   1.048   1.382  10.766 -0.2276 -0.3025 -0.1023
  111OSM    O1311471   0.911   1.380  10.706  0.5174 -0.1204  0.1222
  111OSM    O1411472   1.078   1.485  10.862 -0.0424 -0.4968  0.0316
  111OSM    O1111473   1.156   1.396  10.652 -0.5893  0.2371  1.0564
  111OSM    O1211474   1.083   1.246  10.828 -0.3986 -0.5835  0.1506
  111OSM    C1S11475   1.184   1.286  10.562 -0.1941 -0.5729  0.1764
  111OSM    H1S11476   1.179   1.187  10.613 -0.7990  0.8401  2.9523
  111OSM    H1T11477   1.283   1.286  10.512  0.2028  1.2483  0.9408
  111OSM     NF11478   1.104   1.166  10.363 -0.6052  0.1943  0.3245
  111OSM    HNF11479   1.168   1.191  10.291  0.5355 -1.8922  0.5667
  111OSM    C2S11480   1.084   1.286  10.439 -0.0032  0.3017 -0.1158
  111OSM    H2S11481   0.982   1.281  10.482 -0.9468 -0.0085 -2.3307
  111OSM    C3S11482   1.095   1.415  10.346  0.5071 -0.0429 -0.2354
  111OSM    H3S11483   1.199   1.419  10.309  0.3764  1.1451 -0.4726
  111OSM     O311484   1.072   1.536  10.408  0.2035  0.5805 -0.4377
  111OSM    HO311485   1.063   1.511  10.500 -0.2557  0.4075 -0.5329
  111OSM    C4S11486   0.997   1.398  10.231 -0.5094  0.7258  0.5694
  111OSM    H4S11487   0.892   1.379  10.258 -0.4756  0.9720  0.8804
  111OSM    C5S11488   1.030   1.415  10.097 -0.2794  0.9825 -0.6368
  111OSM    H5S11489   1.124   1.460  10.061  2.3618 -2.4959  1.5485
  111OSM    C6S11490   0.935   1.404   9.980 -0.0533  0.7916 -0.1168
  111OSM    H6S11491   0.975   1.312   9.933  3.1191  1.5623  0.9228
  111OSM    H6T11492   0.943   1.483   9.903  1.5071  0.5373 -0.2265
  111OSM    C7S11493   0.783   1.399  10.019 -0.2650  0.7409  0.3996
  111OSM    H7S11494   0.745   1.485  10.078 -0.7753  1.2486 -0.6654
  111OSM    H7T11495   0.753   1.311  10.080 -1.0918 -0.0381 -1.1055
  111OSM    C8S11496   0.702   1.398   9.893  0.8774 -0.2894 -0.1925
  111OSM    H8S11497   0.745   1.315   9.833 -0.7986 -1.2356 -0.1052
  111OSM    H8T11498   0.723   1.496   9.845  2.5641 -0.6879 -0.3110
  111OSM    C9S11499   0.548   1.369   9.908 -0.1266  0.3605  0.2707
  111OSM    H9S11500   0.539   1.269   9.957 -1.9482  0.7821  0.8389
  111OSM    H9T11501   0.504   1.370   9.806 -0.4678  0.3698  0.4174
  111OSM   C10S11502   0.477   1.479   9.995 -0.1177  0.1306  0.0750
  111OSM   H10S11503   0.540   1.498  10.085 -0.4919 -0.4058  0.4506
  111OSM   H10T11504   0.377   1.445  10.028 -1.0179  1.1718 -1.4741
  111OSM   C11S11505   0.468   1.617   9.917 -0.3052  0.3417  0.4194
  111OSM   H11S11506   0.570   1.658   9.903 -0.7338  1.4942  0.6607
  111OSM   H11T11507   0.422   1.689   9.988 -1.0725 -0.4239  0.7053
  111OSM   C12S11508   0.381   1.616   9.793  0.2674  0.8290  0.6163
  111OSM   H12S11509   0.280   1.613   9.838 -0.5896  2.6867 -1.1162
  111OSM   H12T11510   0.383   1.525   9.730  1.4694  0.8843  0.5592
  111OSM   C13S11511   0.372   1.745   9.712 -0.0377 -0.1831 -0.5105
  111OSM   H13S11512   0.460   1.754   9.645  1.4842 -1.4745  1.2606
  111OSM   H13T11513   0.370   1.832   9.782 -0.4114  0.4360 -1.2890
  111OSM   C14S11514   0.234   1.756   9.633  0.2593  0.2237  0.7098
  111OSM   H14S11515   0.153   1.748   9.708 -0.7733 -2.1242 -0.6069
  111OSM   H14T11516   0.232   1.662   9.574  1.4920 -1.0387  2.6172
  111OSM   C15S11517   0.220   1.879   9.541 -0.2472 -0.4925 -0.3522
  111OSM   H15S11518   0.298   1.874   9.461  1.1369 -1.3154  1.0236
  111OSM   H15T11519   0.239   1.971   9.599  0.8265 -0.9578  0.0564
  111OSM   C16S11520   0.088   1.888   9.471 -0.3071 -0.3324 -0.0458
  111OSM   H16S11521   0.069   1.988   9.426 -1.5627 -1.2806 -1.6750
  111OSM   H16T11522   0.012   1.865   9.549 -0.1484  0.0465  0.2173
  111OSM   C17S11523   0.070   1.780   9.358 -0.0295 -0.3759 -0.3680
  111OSM   H17S11524   0.058   1.679   9.404 -0.6178 -0.3120 -0.3697
  111OSM   H17T11525   0.157   1.776   9.290  0.5345  0.0344  0.3294
  111OSM   C18S11526  -0.054   1.816   9.273 -0.4921  0.2943 -0.2745
  111OSM   H18S11527  -0.071   1.925   9.284  0.2046  0.3388  0.3973
  111OSM   H18T11528  -0.143   1.755   9.299  0.5163 -1.5839 -1.1122
  111OSM   H18U11529  -0.039   1.799   9.164 -0.9607  0.1241 -0.3134
  111OSM    C1F11530   1.062   1.048  10.404  0.3530 -0.4026  0.5000
  111OSM     OF11531   0.994   1.035  10.510 -0.3767  0.2091 -0.3338
  111OSM    C2F11532   1.096   0.924  10.326  0.4077  0.1468 -0.0374
  111OSM    H2F11533   1.040   0.835  10.361 -1.0017  0.4471 -1.4617
  111OSM    H2G11534   1.198   0.891  10.354  0.9192 -0.5799 -2.5635
  111OSM    C3F11535   1.075   0.935  10.170  0.0603 -0.7453 -0.4324
  111OSM    H3F11536   1.150   0.870  10.121  0.5604  1.2298 -2.3433
  111OSM    H3G11537   1.105   1.035  10.132  1.3298 -0.9838 -0.0804
  111OSM    C4F11538   0.934   0.904  10.122  0.1524 -0.1173  0.0661
  111OSM    H4F11539   0.874   0.993  10.149  0.6348 -0.2630  1.6817
  111OSM    H4G11540   0.899   0.817  10.182  3.1970 -2.7533 -1.8071
  111OSM    C5F11541   0.917   0.885   9.975  0.1819  0.9345  0.6420
  111OSM    H5F11542   0.817   0.838   9.965  0.1230  1.1408  0.2503
  111OSM    H5G11543   0.984   0.806   9.936 -1.2189 -0.1225  0.3498
  111OSM    C6F11544   0.940   1.003   9.883 -0.2091  0.3470 -0.4928
  111OSM    H6F11545   1.046   1.033   9.886 -0.1197 -0.0703  0.8160
  111OSM    H6G11546   0.894   1.092   9.930 -2.8173 -1.7386  1.1123
  111OSM    C7F11547   0.892   0.981   9.735  0.0603  0.1337 -0.5893
  111OSM    H7F11548   0.786   0.951   9.742 -0.6622  2.2980 -1.8156
  111OSM    H7G11549   0.939   0.889   9.695  0.9291 -0.0578  0.8110
  111OSM    C8F11550   0.914   1.103   9.646  0.0028 -0.2092  0.4894
  111OSM    H8F11551   0.876   1.193   9.698  1.3984  2.2077 -2.5107
  111OSM    H8G11552   0.860   1.090   9.549 -0.3233 -0.2541  0.6768
  111OSM    C9F11553   1.060   1.113   9.628 -0.1535 -0.1088  1.1062
  111OSM    H9F11554   1.126   1.082   9.711 -1.3208  1.2359  2.5910
  111OSM   C10F11555   1.110   1.156   9.511 -0.3505 -0.3473 -0.2251
  111OSM   H10F11556   1.219   1.167   9.503 -0.2469 -1.2607 -0.1092
  111OSM   C11F11557   1.042   1.200   9.389  0.3590 -0.0904 -1.0875
  111OSM   H11F11558   1.093   1.288   9.344  1.2569  0.0863  0.2383
  111OSM   H11G11559   0.936   1.226   9.411  0.1304 -1.5045 -0.4366
  111OSM   C12F11560   1.035   1.082   9.283 -0.5071 -0.0258 -0.1402
  111OSM   H12F11561   1.137   1.054   9.249  0.4470 -0.8529  3.1648
  111OSM   H12G11562   0.981   1.123   9.195 -0.6161 -1.6555 -0.8589
  111OSM   C13F11563   0.960   0.956   9.320  0.3704  0.2072 -0.2058
  111OSM   H13F11564   0.859   0.992   9.350 -0.7994 -1.3751 -2.1478
  111OSM   H13G11565   1.010   0.897   9.400 -2.0433 -0.2006  1.0440
  111OSM   C14F11566   0.944   0.846   9.215 -0.4733 -0.4493  0.3313
  111OSM   H14F11567   0.886   0.757   9.247 -0.7201 -0.2231  0.5242
  111OSM   H14G11568   1.043   0.813   9.177  0.5459  1.7979  0.8854
  111OSM   C15F11569   0.869   0.887   9.091  0.3266  0.0994 -0.2531
  111OSM   H15F11570   0.927   0.966   9.039  1.5311  0.3089  1.3735
  111OSM   H15G11571   0.774   0.934   9.124 -0.5083 -2.9239  1.8723
  111OSM   C16F11572   0.842   0.777   8.992  0.0274  0.4285 -0.5932
  111OSM   H16F11573   0.791   0.691   9.042  0.1042 -0.3410 -1.8122
  111OSM   H16G11574   0.929   0.718   8.958 -0.1055 -0.2403  0.2112
  111OSM   C17F11575   0.760   0.827   8.866 -0.1575 -0.3126 -0.5787
  111OSM   H17F11576   0.829   0.889   8.804  2.2441 -0.4636  1.8739
  111OSM   H17G11577   0.670   0.886   8.896  1.4457  1.8875  0.0171
  111OSM   C18F11578   0.722   0.706   8.770  0.4398  0.0136  0.5068
  111OSM   H18F11579   0.652   0.646   8.831  1.5735 -1.5397  0.3162
  111OSM   H18G11580   0.811   0.642   8.750 -1.0449 -1.6385 -0.9174
  111OSM   H18H11581   0.664   0.738   8.681 -2.3974 -1.1590  1.8694
  112OSM      N11582   1.582   6.285  10.885 -0.3938  0.2713  0.3105
  112OSM    C1511583   1.704   6.336  10.957  0.9368  0.6918 -0.9711
  112OSM   H15A11584   1.745   6.423  10.908  3.0438 -0.4046 -1.2486
  112OSM   H15B11585   1.778   6.257  10.969 -1.4971 -1.1178  2.9724
  112OSM   H15C11586   1.670   6.363  11.055  3.7859  0.7692  0.0574
  112OSM    C1411587   1.470   6.378  10.919 -0.5496  0.4227  0.4368
  112OSM   H14A11588   1.495   6.470  10.868 -0.4333  0.6183  0.8415
  112OSM   H14B11589   1.464   6.391  11.026 -0.1680 -4.1873  1.1228
  112OSM   H14C11590   1.374   6.340  10.888 -0.3898 -0.3855  0.9078
  112OSM    C1311591   1.609   6.289  10.743 -0.2470 -0.1374 -0.4266
  112OSM   H13A11592   1.690   6.226  10.707 -0.7318 -0.2381 -1.3468
  112OSM   H13B11593   1.625   6.385  10.696  1.3398  1.6522  3.5937
  112OSM   H13C11594   1.527   6.241  10.692  0.8388 -3.4167  0.7488
  112OSM    C1211595   1.550   6.143  10.935 -0.1032 -0.2998  1.1534
  112OSM   H12A11596   1.511   6.148  11.035 -1.6849 -0.8865  0.5978
  112OSM   H12B11597   1.636   6.078  10.944  0.0917 -0.1339  0.5301
  112OSM    C1111598   1.449   6.057  10.851  0.1898 -0.6035 -0.1379
  112OSM   H11A11599   1.459   5.951  10.882 -0.5445 -0.2768  1.2588
  112OSM   H11B11600   1.493   6.063  10.749 -2.3883 -2.1051 -1.4010
  112OSM      P11601   1.218   6.061  10.967  0.0462 -0.1172  0.2307
  112OSM    O1311602   1.283   6.055  11.095  0.6082 -0.4603 -0.0759
  112OSM    O1411603   1.096   6.143  10.954  0.0760 -0.0933 -0.4604
  112OSM    O1111604   1.178   5.920  10.922  0.5445  0.0119 -0.3410
  112OSM    O1211605   1.315   6.108  10.848 -0.0129 -0.5252  0.0749
  112OSM    C1S11606   1.140   5.890  10.783 -0.0351 -0.2031 -0.5071
  112OSM    H1S11607   1.223   5.923  10.716  0.1245 -1.2288 -0.8276
  112OSM    H1T11608   1.057   5.957  10.751 -0.5929 -0.9626 -0.6823
  112OSM     NF11609   1.072   5.724  10.609  0.7910 -1.0526  0.7548
  112OSM    HNF11610   0.976   5.714  10.584  1.1562  0.0278 -1.1847
  112OSM    C2S11611   1.099   5.745  10.752 -0.0013  0.4698 -0.4525
  112OSM    H2S11612   1.183   5.677  10.776 -1.5248 -1.4837 -0.4939
  112OSM    C3S11613   0.981   5.699  10.843 -0.2601  0.1024 -0.0078
  112OSM    H3S11614   0.882   5.729  10.801 -0.9986 -1.1165  0.8331
  112OSM     O311615   0.991   5.736  10.980  0.4906 -0.4653 -0.1538
  112OSM    HO311616   1.068   5.793  10.984  2.1977 -2.7381  0.7902
  112OSM    C4S11617   0.967   5.556  10.833  0.4162  0.3199  0.1363
  112OSM    H4S11618   0.869   5.519  10.799 -0.2285  1.1537  1.0780
  112OSM    C5S11619   1.056   5.463  10.885 -0.3232  0.0310 -0.1345
  112OSM    H5S11620   1.158   5.497  10.911  0.8035 -2.7692 -0.5955
  112OSM    C6S11621   1.042   5.312  10.862  0.2729  0.9141  0.6460
  112OSM    H6S11622   0.994   5.272  10.954 -0.5911  0.3725 -0.0284
  112OSM    H6T11623   1.145   5.273  10.847  0.0135 -0.5283  2.3897
  112OSM    C7S11624   0.953   5.263  10.746 -0.3298 -0.1578  0.5408
  112OSM    H7S11625   0.847   5.286  10.769  0.1811  2.3826  0.4526
  112OSM    H7T11626   0.965   5.153  10.736  2.2493  0.2920 -1.9498
  112OSM    C8S11627   0.968   5.331  10.606  0.9324  0.2714 -0.0055
  112OSM    H8S11628   0.938   5.438  10.607 -3.1244 -0.7247 -1.8140
  112OSM    H8T11629   0.913   5.271  10.530  2.1893 -0.5459 -0.2766
  112OSM    C9S11630   1.113   5.323  10.557 -0.3505 -0.1489 -0.4424
  112OSM    H9S11631   1.154   5.225  10.587 -1.1242 -1.0780 -2.3734
  112OSM    H9T11632   1.181   5.400  10.599 -0.5095 -0.2665  0.0409
  112OSM   C10S11633   1.113   5.338  10.403 -0.1239 -0.2439 -0.3998
  112OSM   H10S11634   1.056   5.430  10.380 -1.9174 -0.1706  3.8520
  112OSM   H10T11635   1.058   5.261  10.344  2.3006 -2.4510  0.1383
  112OSM   C11S11636   1.254   5.351  10.346  0.8480  0.0448  0.1508
  112OSM   H11S11637   1.322   5.277  10.394  0.7179  0.0388  0.3278
  112OSM   H11T11638   1.288   5.454  10.368 -2.8589  1.5860 -0.9667
  112OSM   C12S11639   1.248   5.340  10.190 -0.2152  0.4511  0.4349
  112OSM   H12S11640   1.152   5.387  10.158  0.0903  1.2094  0.6301
  112OSM   H12T11641   1.247   5.237  10.149  1.3730  1.2946 -1.8340
  112OSM   C13S11642   1.352   5.429  10.122 -0.5235  0.0278  0.1330
  112OSM   H13S11643   1.453   5.413  10.166  0.0754 -0.6242 -1.4349
  112OSM   H13T11644   1.322   5.533  10.147 -2.6515 -1.1540  2.9308
  112OSM   C14S11645   1.367   5.394   9.974  0.3362  0.0370  0.5596
  112OSM   H14S11646   1.274   5.407   9.914  0.9039 -2.0157 -0.7870
  112OSM   H14T11647   1.398   5.289   9.960  0.4553 -0.1056  1.8401
  112OSM   C15S11648   1.467   5.476   9.892 -0.5497 -0.0572  0.1574
  112OSM   H15S11649   1.552   5.476   9.964 -0.6223  0.4771  0.2448
  112OSM   H15T11650   1.428   5.579   9.878 -1.2081 -0.2400  0.6258
  112OSM   C16S11651   1.504   5.423   9.746 -0.2973 -0.1680 -0.2925
  112OSM   H16S11652   1.405   5.412   9.697 -0.4487  0.0158 -0.0253
  112OSM   H16T11653   1.565   5.330   9.752  0.2338  0.0000 -2.5468
  112OSM   C17S11654   1.590   5.522   9.656 -0.2701 -0.3477 -0.3789
  112OSM   H17S11655   1.687   5.545   9.705 -0.0419 -0.4163 -0.7995
  112OSM   H17T11656   1.536   5.618   9.644  1.5448  0.6360 -0.8689
  112OSM   C18S11657   1.628   5.469   9.516 -0.2280  0.2993  0.0537
  112OSM   H18S11658   1.709   5.530   9.471  0.1055  0.5078  0.9135
  112OSM   H18T11659   1.542   5.461   9.446 -2.2709 -0.0355  2.5165
  112OSM   H18U11660   1.676   5.370   9.524  1.5997  1.0270 -1.5778
  112OSM    C1F11661   1.157   5.736  10.509 -0.7001  0.4939  0.7721
  112OSM     OF11662   1.279   5.746  10.530 -0.1935  0.2865 -0.4240
  112OSM    C2F11663   1.103   5.728  10.364  0.2212  0.0164 -0.5819
  112OSM    H2F11664   0.993   5.723  10.378 -0.2257  0.8401 -3.5430
  112OSM    H2G11665   1.122   5.625  10.327 -2.8578 -0.4240 -1.0005
  112OSM    C3F11666   1.157   5.831  10.260  0.2257 -0.2567 -0.1890
  112OSM    H3F11667   1.261   5.795  10.246  0.5534 -0.2631  2.0438
  112OSM    H3G11668   1.156   5.930  10.311  0.4315  0.1637 -0.9817
  112OSM    C4F11669   1.076   5.840  10.132  0.1914 -0.3129  0.2285
  112OSM    H4F11670   1.093   5.939  10.086  0.4855 -0.6126 -0.3096
  112OSM    H4G11671   0.970   5.829  10.165  0.8716  0.7977  2.9104
  112OSM    C5F11672   1.115   5.733  10.032  0.4167  0.0936 -0.3420
  112OSM    H5F11673   1.091   5.630  10.067  0.3639  0.3002  0.2318
  112OSM    H5G11674   1.225   5.746  10.020  0.8737 -1.5818  1.7265
  112OSM    C6F11675   1.056   5.742   9.886 -0.2227 -0.9379 -0.1062
  112OSM    H6F11676   1.065   5.850   9.861 -0.3770 -0.3911  2.0395
  112OSM    H6G11677   0.948   5.718   9.894 -1.0170  1.9782 -1.3584
  112OSM    C7F11678   1.137   5.645   9.791 -0.6887  0.1895 -0.1247
  112OSM    H7F11679   1.121   5.545   9.836 -0.9567  0.7462  1.0554
  112OSM    H7G11680   1.247   5.665   9.791 -0.9212  1.6243 -2.2169
  112OSM    C8F11681   1.095   5.636   9.643  0.5726 -0.6136  0.3254
  112OSM    H8F11682   1.098   5.739   9.601 -1.8980 -0.7247 -0.2157
  112OSM    H8G11683   0.989   5.602   9.641  0.4681 -0.2628 -2.4433
  112OSM    C9F11684   1.193   5.552   9.574  0.3021 -1.1040  0.0366
  112OSM    H9F11685   1.208   5.457   9.628  1.7742 -1.1234 -0.3738
  112OSM   C10F11686   1.256   5.571   9.462  0.1672  0.0632 -0.3187
  112OSM   H10F11687   1.322   5.488   9.433  0.6395 -1.1851  3.9914
  112OSM   C11F11688   1.243   5.684   9.379 -0.0175 -0.3900  0.2844
  112OSM   H11F11689   1.338   5.703   9.323 -0.7765  0.6658 -0.6631
  112OSM   H11G11690   1.223   5.781   9.429 -1.9515  0.9088 -2.8369
  112OSM   C12F11691   1.128   5.672   9.270 -0.4156  0.1914  0.0784
  112OSM   H12F11692   1.126   5.767   9.213 -2.9745  0.4990  0.6088
  112OSM   H12G11693   1.032   5.657   9.324 -0.6090 -0.0704 -0.3354
  112OSM   C13F11694   1.143   5.552   9.169  0.2710 -0.1434 -0.0180
  112OSM   H13F11695   1.099   5.465   9.223 -3.1108  2.2296  1.1646
  112OSM   H13G11696   1.251   5.538   9.146  0.4091 -0.5442  0.8490
  112OSM   C14F11697   1.055   5.566   9.047  0.0255  0.6077 -0.0267
  112OSM   H14F11698   1.068   5.668   9.006  1.3114  0.4271 -0.0830
  112OSM   H14G11699   0.950   5.554   9.082 -0.4226 -0.8540 -1.7946
  112OSM   C15F11700   1.079   5.449   8.947 -0.5145 -0.0471 -0.0803
  112OSM   H15F11701   1.052   5.355   9.000 -2.0143 -0.0151 -0.7450
  112OSM   H15G11702   1.183   5.439   8.912 -0.6721  0.2101 -0.6283
  112OSM   C16F11703   0.984   5.468   8.831 -0.2154  0.1523  0.1012
  112OSM   H16F11704   0.879   5.490   8.861  0.0870 -0.0354  1.3027
  112OSM   H16G11705   0.975   5.375   8.771  0.5289  0.2126 -0.1082
  112OSM   C17F11706   1.047   5.565   8.738  0.0311 -1.0665 -1.3512
  112OSM   H17F11707   1.147   5.534   8.703  1.7059  0.7258  1.6342
  112OSM   H17G11708   1.057   5.672   8.768 -1.0131 -0.9060 -1.5249
  112OSM   C18F11709   0.971   5.562   8.604  0.2200  0.4521  0.2262
  112OSM   H18F11710   0.994   5.652   8.544  0.3384 -0.3185 -0.9094
  112OSM   H18G11711   0.863   5.569   8.629 -0.0597 -0.6352 -0.6289
  112OSM   H18H11712   0.974   5.474   8.536  1.8146  0.5610  0.1179
  113OSM      N11713   5.484   2.739  11.050  0.4973  0.3532  0.5235
  113OSM    C1511714   5.543   2.762  11.186  0.9107 -0.4339  1.0618
  113OSM   H15A11715   5.641   2.716  11.194  0.8348 -0.7430  0.2926
  113OSM   H15B11716   5.483   2.721  11.266 -0.7629 -0.2581 -0.0715
  113OSM   H15C11717   5.570   2.866  11.199  0.3656 -0.3012  1.1491
  113OSM    C1411718   5.558   2.806  10.942 -0.2026 -0.7587  0.3790
  113OSM   H14A11719   5.540   2.912  10.945  1.6193 -0.4364  0.5763
  113OSM   H14B11720   5.535   2.766  10.844  1.4267  0.0629 -0.3586
  113OSM   H14C11721   5.666   2.798  10.946 -0.1418 -0.0067  0.3575
  113OSM    C1311722   5.491   2.594  11.022  0.4142  0.1973  0.2420
  113OSM   H13A11723   5.591   2.562  10.996 -0.0159  0.4216 -1.7132
  113OSM   H13B11724   5.448   2.567  10.927  1.9375  0.0083 -0.4135
  113OSM   H13C11725   5.445   2.537  11.102 -3.3129 -0.5056 -2.2717
  113OSM    C1211726   5.340   2.798  11.048 -0.0093  0.2176 -0.0264
  113OSM   H12A11727   5.351   2.900  11.082 -0.0862 -0.0774  0.9084
  113OSM   H12B11728   5.285   2.741  11.122 -0.7810  1.7114  0.5727
  113OSM    C1111729   5.264   2.789  10.911 -0.0289 -0.0652  0.7999
  113OSM   H11A11730   5.320   2.834  10.826 -1.0251  2.7875  1.5932
  113OSM   H11B11731   5.170   2.848  10.915  0.1542  0.3100 -0.3963
  113OSM      P11732   5.109   2.571  10.899  0.5144  0.1205  0.0351
  113OSM    O1311733   5.125   2.432  10.845 -0.1676 -0.0143  0.1387
  113OSM    O1411734   5.073   2.582  11.038  0.0743  0.1699 -0.2486
  113OSM    O1111735   4.998   2.650  10.818 -0.2045 -0.0358 -0.3339
  113OSM    O1211736   5.236   2.654  10.878  0.2862 -0.7942  0.5852
  113OSM    C1S11737   5.025   2.709  10.689  0.2553  0.8323 -0.4915
  113OSM    H1S11738   5.026   2.629  10.612 -0.3456  1.0157 -0.6853
  113OSM    H1T11739   5.117   2.770  10.680  0.9635 -0.0736  0.4500
  113OSM     NF11740   4.932   2.855  10.521  0.0545 -0.4471 -0.5406
  113OSM    HNF11741   4.973   2.944  10.506 -2.3082  0.2542 -3.4068
  113OSM    C2S11742   4.905   2.812  10.657  0.0293  0.1972 -0.2591
  113OSM    H2S11743   4.807   2.760  10.664 -0.5218  0.8533 -2.6707
  113OSM    C3S11744   4.903   2.925  10.766 -0.6265  0.6568  0.1649
  113OSM    H3S11745   5.003   2.968  10.784 -1.3942  1.9811  1.4428
  113OSM     O311746   4.856   2.872  10.889  0.2634  0.2777 -0.1162
  113OSM    HO311747   4.851   2.777  10.875  1.2624  0.2764 -0.4907
  113OSM    C4S11748   4.813   3.036  10.719  0.4465  0.4594 -0.5405
  113OSM    H4S11749   4.708   3.003  10.715  1.1331 -2.0296  0.8850
  113OSM    C5S11750   4.844   3.166  10.692  0.1776  0.3298 -0.1629
  113OSM    H5S11751   4.947   3.205  10.700  0.3049 -0.1028  0.3134
  113OSM    C6S11752   4.743   3.266  10.643 -0.7658 -0.1074  0.3269
  113OSM    H6S11753   4.730   3.345  10.721  1.8980  1.8351 -1.1073
  113OSM    H6T11754   4.639   3.232  10.625 -0.2575 -0.0163 -3.0408
  113OSM    C7S11755   4.797   3.330  10.517  0.2046  0.5325 -0.2194
  113OSM    H7S11756   4.895   3.380  10.533 -0.3152  1.2549  0.7580
  113OSM    H7T11757   4.720   3.408  10.500 -0.2058  0.6509  2.0410
  113OSM    C8S11758   4.803   3.241  10.393 -0.2329  0.7547  0.0367
  113OSM    H8S11759   4.698   3.209  10.375 -0.3212  0.2546  1.4141
  113OSM    H8T11760   4.871   3.157  10.420  0.9231  0.2077 -4.2373
  113OSM    C9S11761   4.853   3.310  10.261 -0.4175  0.3573  0.0260
  113OSM    H9S11762   4.931   3.385  10.286 -0.5413  1.6804 -3.2898
  113OSM    H9T11763   4.767   3.363  10.215 -3.0103 -2.2140  1.7367
  113OSM   C10S11764   4.918   3.211  10.155 -0.2918  0.1841  0.6500
  113OSM   H10S11765   4.860   3.116  10.155  1.5687 -1.0059 -1.1660
  113OSM   H10T11766   5.016   3.181  10.197 -0.4570 -1.5218 -0.1356
  113OSM   C11S11767   4.939   3.267  10.012  0.1113  0.3740  0.2607
  113OSM   H11S11768   5.026   3.212   9.970  0.3166 -0.9849  2.3760
  113OSM   H11T11769   4.985   3.369  10.016 -0.9028  0.7815  1.9764
  113OSM   C12S11770   4.824   3.247   9.918  0.3743 -0.3665  0.7243
  113OSM   H12S11771   4.728   3.284   9.961  0.4290 -1.0535  1.4290
  113OSM   H12T11772   4.807   3.140   9.894 -0.5760 -0.1233  0.2919
  113OSM   C13S11773   4.844   3.321   9.785  0.3245  0.8095  0.5963
  113OSM   H13S11774   4.937   3.287   9.735 -0.2991  1.3495 -0.9863
  113OSM   H13T11775   4.856   3.426   9.820  2.8074  0.6004  0.4254
  113OSM   C14S11776   4.723   3.299   9.688  0.0806  0.0995  0.2199
  113OSM   H14S11777   4.635   3.343   9.739  1.4164  1.1369  1.6955
  113OSM   H14T11778   4.704   3.192   9.666 -0.8819  0.1566  0.7837
  113OSM   C15S11779   4.742   3.360   9.557 -0.2850  0.3610  0.8444
  113OSM   H15S11780   4.840   3.329   9.515 -0.3999  0.0996  0.7662
  113OSM   H15T11781   4.758   3.469   9.571  0.6418  0.1291  1.6776
  113OSM   C16S11782   4.639   3.328   9.451  0.2014  0.2141 -0.0207
  113OSM   H16S11783   4.538   3.338   9.497 -0.4370  0.5928 -1.4900
  113OSM   H16T11784   4.661   3.222   9.429  3.1666  1.0904 -1.4811
  113OSM   C17S11785   4.653   3.388   9.315 -0.0870 -0.1086  0.0414
  113OSM   H17S11786   4.568   3.352   9.253 -0.7475  1.0114  0.2762
  113OSM   H17T11787   4.745   3.344   9.269 -1.2792 -2.5592 -0.0498
  113OSM   C18S11788   4.655   3.536   9.306  0.1694 -0.0392  0.2742
  113OSM   H18S11789   4.579   3.581   9.374 -1.5958  1.0177 -2.2867
  113OSM   H18T11790   4.629   3.564   9.201 -0.0968 -0.1635  0.3066
  113OSM   H18U11791   4.755   3.581   9.321  0.7139 -0.5950 -1.5619
  113OSM    C1F11792   4.920   2.771  10.418  0.5485 -0.1041  0.0450
  113OSM     OF11793   4.864   2.660  10.441 -0.1479  0.6522  0.3463
  113OSM    C2F11794   4.984   2.824  10.288  0.7552  0.2484  0.4751
  113OSM    H2F11795   5.093   2.841  10.283  1.1158 -2.1735 -0.5821
  113OSM    H2G11796   4.918   2.912  10.270 -1.0828 -1.5098 -1.7500
  113OSM    C3F11797   4.962   2.721  10.169  0.2164 -0.0891 -0.2443
  113OSM    H3F11798   4.858   2.684  10.179 -0.0365  1.5771  4.5335
  113OSM    H3G11799   5.026   2.633  10.194 -1.0266 -0.2538  2.5650
  113OSM    C4F11800   5.010   2.785  10.034  0.9546  0.1163 -0.1694
  113OSM    H4F11801   5.115   2.819  10.045  0.9541  0.3121 -0.7747
  113OSM    H4G11802   4.952   2.878  10.020 -0.0364 -0.5140 -0.3407
  113OSM    C5F11803   4.987   2.711   9.901  0.2048 -0.0824 -0.0126
  113OSM    H5F11804   4.878   2.691   9.887  0.2478  0.1525 -0.7313
  113OSM    H5G11805   5.044   2.616   9.901 -2.6674 -1.8791  0.7034
  113OSM    C6F11806   5.037   2.796   9.778 -0.5552 -0.6578 -0.4561
  113OSM    H6F11807   5.146   2.803   9.802  0.1130  1.6907 -3.7756
  113OSM    H6G11808   4.989   2.895   9.792  0.7088  0.0912 -1.2562
  113OSM    C7F11809   4.998   2.733   9.650 -0.1992 -0.4356  0.4349
  113OSM    H7F11810   4.891   2.700   9.652 -0.5039  0.4618 -0.3134
  113OSM    H7G11811   5.047   2.636   9.630 -0.1142  0.4196 -4.1073
  113OSM    C8F11812   5.025   2.829   9.538 -0.8460  0.8396 -0.7143
  113OSM    H8F11813   5.127   2.871   9.551  1.0892 -4.4887  3.1707
  113OSM    H8G11814   4.967   2.924   9.536 -0.5775  1.0438  0.5596
  113OSM    C9F11815   5.031   2.762   9.397  0.5797  0.9972  0.5532
  113OSM    H9F11816   5.048   2.654   9.388 -1.5726  0.7857 -1.6919
  113OSM   C10F11817   5.022   2.820   9.276 -0.2046 -0.5702  0.1716
  113OSM   H10F11818   5.030   2.766   9.180 -0.6905  1.4694 -1.0521
  113OSM   C11F11819   4.993   2.966   9.257  0.0215  0.7382 -0.8434
  113OSM   H11F11820   5.068   3.024   9.316 -1.4361  1.5991  0.2173
  113OSM   H11G11821   4.890   2.997   9.288  0.0929  0.6077 -0.4691
  113OSM   C12F11822   5.005   3.013   9.108  0.7621  0.3455  0.0852
  113OSM   H12F11823   4.927   2.963   9.046  0.9507  1.0530 -0.7268
  113OSM   H12G11824   5.101   2.997   9.054 -0.1703  2.0204 -2.1540
  113OSM   C13F11825   4.986   3.163   9.101 -0.0233 -0.2922  0.3571
  113OSM   H13F11826   5.076   3.214   9.140  0.3974 -2.0008  1.7013
  113OSM   H13G11827   4.892   3.185   9.158  0.0955  0.4917  0.2548
  113OSM   C14F11828   4.968   3.205   8.954 -0.4056  0.4213  0.2233
  113OSM   H14F11829   4.864   3.177   8.928  0.7352 -0.8793 -3.2823
  113OSM   H14G11830   5.043   3.158   8.886 -0.0754 -0.8054  1.4000
  113OSM   C15F11831   4.967   3.357   8.937 -0.2388  0.4577 -0.4699
  113OSM   H15F11832   5.026   3.399   9.022 -0.8307 -1.0733  0.7333
  113OSM   H15G11833   4.863   3.394   8.949 -0.3648  0.4802 -1.5813
  113OSM   C16F11834   5.027   3.410   8.811 -0.5600  0.4340  0.4670
  113OSM   H16F11835   5.007   3.339   8.728 -1.4966  0.4981  0.6342
  113OSM   H16G11836   5.137   3.403   8.820 -0.6444 -1.1709  0.3424
  113OSM   C17F11837   4.983   3.560   8.764  0.4157 -0.7281  0.1355
  113OSM   H17F11838   5.011   3.552   8.657  0.8773  0.4774  0.1638
  113OSM   H17G11839   5.042   3.637   8.817  2.3184  0.5392 -3.6011
  113OSM   C18F11840   4.834   3.601   8.756  0.2218 -0.3896  0.1623
  113OSM   H18F11841   4.830   3.706   8.719  1.0061 -0.4387 -0.0883
  113OSM   H18G11842   4.795   3.588   8.859  1.5886  0.4758  0.8050
  113OSM   H18H11843   4.774   3.532   8.692  1.5594 -2.0079  0.6108
  114OSM      N11844   0.260   5.647  11.232  1.1694 -0.6029 -0.3716
  114OSM    C1511845   0.248   5.526  11.314 -0.1602 -0.0275  0.5667
  114OSM   H15A11846   0.205   5.445  11.258 -0.7143 -0.0862  1.0724
  114OSM   H15B11847   0.184   5.541  11.400 -1.0576 -1.8206  0.2205
  114OSM   H15C11848   0.343   5.493  11.355 -0.0639 -2.2082 -1.3245
  114OSM    C1411849   0.120   5.690  11.204 -0.7158  0.5529  0.2988
  114OSM   H14A11850   0.054   5.612  11.169 -1.8023  1.1823  0.9367
  114OSM   H14B11851   0.123   5.776  11.139  1.8937  2.0895  2.3237
  114OSM   H14C11852   0.087   5.718  11.303  0.8504  1.6558  0.5349
  114OSM    C1311853   0.334   5.752  11.303 -0.0521  0.0062  0.0474
  114OSM   H13A11854   0.282   5.792  11.389  2.2503 -0.0320  1.5261
  114OSM   H13B11855   0.352   5.827  11.227 -2.3591  0.7450  0.2112
  114OSM   H13C11856   0.433   5.724  11.336 -0.1949 -1.4899 -0.7992
  114OSM    C1211857   0.328   5.614  11.102  0.8674  0.0711 -0.6964
  114OSM   H12A11858   0.416   5.553  11.114  0.6181 -0.0894  0.4033
  114OSM   H12B11859   0.347   5.702  11.042 -3.7623  0.2248 -2.1367
  114OSM    C1111860   0.246   5.517  11.006 -0.6433 -0.0278 -0.2316
  114OSM   H11A11861   0.302   5.507  10.911 -0.0244 -0.0290  0.1297
  114OSM   H11B11862   0.153   5.564  10.967 -0.8397  0.8464  1.2448
  114OSM      P11863   0.296   5.259  11.062  0.4283  0.4923 -0.3002
  114OSM    O1311864   0.440   5.300  11.032  1.1512 -0.3984 -0.4991
  114OSM    O1411865   0.266   5.181  11.183 -0.4225 -0.0427 -0.7000
  114OSM    O1111866   0.242   5.178  10.942  0.3684  0.5500  0.2636
  114OSM    O1211867   0.202   5.387  11.058 -0.2143  0.6096  0.4397
  114OSM    C1S11868   0.215   5.219  10.809 -0.0993  0.0382 -0.4298
  114OSM    H1S11869   0.185   5.326  10.805  0.2010  0.1249 -0.3329
  114OSM    H1T11870   0.121   5.163  10.788 -0.6921  1.0222 -0.4483
  114OSM     NF11871   0.272   5.223  10.575 -0.3524  0.7534 -0.3786
  114OSM    HNF11872   0.242   5.150  10.515  1.7545  0.5898 -1.2491
  114OSM    C2S11873   0.322   5.183  10.708  0.3026 -0.1037  0.1176
  114OSM    H2S11874   0.416   5.240  10.725  0.4060 -0.0629 -0.5842
  114OSM    C3S11875   0.372   5.029  10.700 -0.0088  0.2066 -0.2898
  114OSM    H3S11876   0.286   4.977  10.653 -0.0628 -1.7986  1.9316
  114OSM     O311877   0.404   4.963  10.823 -0.1061  0.7381 -0.1828
  114OSM    HO311878   0.347   5.004  10.889 -1.0261 -0.2600 -0.3554
  114OSM    C4S11879   0.484   5.020  10.597 -0.6406 -0.5416 -0.8888
  114OSM    H4S11880   0.443   4.999  10.498 -0.0315 -1.0809 -1.0302
  114OSM    C5S11881   0.616   5.036  10.608 -0.0803  0.3245  0.0479
  114OSM    H5S11882   0.658   5.058  10.708 -0.5783 -0.3012  0.3997
  114OSM    C6S11883   0.718   5.017  10.493  0.1117 -0.1254  0.2908
  114OSM    H6S11884   0.757   4.913  10.499 -0.1399 -0.3096 -1.2701
  114OSM    H6T11885   0.796   5.096  10.503 -0.6420  0.7052 -0.3157
  114OSM    C7S11886   0.646   5.043  10.357  0.0337  0.1572 -0.4004
  114OSM    H7S11887   0.594   5.140  10.364 -4.0178 -2.0348  2.2301
  114OSM    H7T11888   0.571   4.964  10.331 -0.3181  1.0579 -2.1650
  114OSM    C8S11889   0.743   5.034  10.236  0.5395  0.5667 -0.2754
  114OSM    H8S11890   0.813   4.948  10.229  0.8504  0.7517  0.5546
  114OSM    H8T11891   0.811   5.122  10.241 -0.6858  1.4106  2.9250
  114OSM    C9S11892   0.668   5.031  10.109  0.8123 -0.5138 -0.0611
  114OSM    H9S11893   0.608   4.938  10.102  1.7825 -1.0062 -2.1883
  114OSM    H9T11894   0.750   5.037  10.034 -2.1273 -4.2444 -3.7941
  114OSM   C10S11895   0.585   5.159  10.079  0.0651 -0.8175 -0.0701
  114OSM   H10S11896   0.647   5.245  10.110  0.8355  0.1256 -3.9163
  114OSM   H10T11897   0.495   5.155  10.144  0.3414  2.0268  0.5410
  114OSM   C11S11898   0.545   5.182   9.933 -0.2079  0.0708 -0.0737
  114OSM   H11S11899   0.628   5.167   9.861 -1.3755 -2.8271 -0.8916
  114OSM   H11T11900   0.514   5.289   9.929  2.0042  0.6789 -2.2164
  114OSM   C12S11901   0.442   5.096   9.874 -0.1918  0.8539 -0.2677
  114OSM   H12S11902   0.345   5.102   9.926 -0.2136 -1.1205 -0.0287
  114OSM   H12T11903   0.465   4.987   9.884 -1.0727  0.6816 -0.1245
  114OSM   C13S11904   0.409   5.097   9.728  0.0713 -0.1162 -0.2183
  114OSM   H13S11905   0.466   5.185   9.691  1.4977 -0.1021  1.9563
  114OSM   H13T11906   0.301   5.114   9.708 -0.6934 -0.0425  3.7571
  114OSM   C14S11907   0.440   4.971   9.648  0.2452 -0.4898 -0.2992
  114OSM   H14S11908   0.377   4.964   9.557  0.6565  2.5059 -0.8832
  114OSM   H14T11909   0.410   4.890   9.718 -1.1380 -0.0444 -0.3580
  114OSM   C15S11910   0.591   4.981   9.604 -0.6209  0.0458  0.0879
  114OSM   H15S11911   0.653   4.999   9.695  0.3077  2.2536 -0.9580
  114OSM   H15T11912   0.605   5.069   9.538 -2.1351  0.6507  0.5466
  114OSM   C16S11913   0.652   4.865   9.525 -0.3717  0.4489  0.0630
  114OSM   H16S11914   0.646   4.769   9.581 -0.1980  1.1588  1.3155
  114OSM   H16T11915   0.763   4.874   9.519 -0.4850  1.1425 -1.2567
  114OSM   C17S11916   0.589   4.874   9.388  0.0909 -0.0154 -0.6125
  114OSM   H17S11917   0.608   4.980   9.360 -0.0144 -0.1635 -1.2600
  114OSM   H17T11918   0.482   4.843   9.392  0.0417  0.3898  1.5060
  114OSM   C18S11919   0.664   4.787   9.283 -0.1662  0.6350 -0.1515
  114OSM   H18S11920   0.646   4.678   9.298 -0.1275  0.8218  1.3571
  114OSM   H18T11921   0.773   4.801   9.302 -0.1319  1.4210 -0.8838
  114OSM   H18U11922   0.646   4.808   9.175  0.2725  1.5973 -0.0458
  114OSM    C1F11923   0.246   5.347  10.538 -0.1916 -0.3852  0.7907
  114OSM     OF11924   0.267   5.438  10.616  0.8809 -0.2628 -0.0174
  114OSM    C2F11925   0.191   5.366  10.399  0.4296 -0.1987 -0.3744
  114OSM    H2F11926   0.126   5.456  10.404  0.5532 -0.0696 -1.0475
  114OSM    H2G11927   0.128   5.281  10.367 -1.8123  1.3454 -0.1683
  114OSM    C3F11928   0.298   5.394  10.288 -0.1165  1.0219 -0.8775
  114OSM    H3F11929   0.369   5.309  10.278  0.4435  1.4747 -0.7424
  114OSM    H3G11930   0.364   5.478  10.319  1.1210 -0.5765  0.9172
  114OSM    C4F11931   0.239   5.455  10.162 -0.1121  0.5482 -0.5299
  114OSM    H4F11932   0.305   5.442  10.074 -1.4596 -0.2307 -1.4357
  114OSM    H4G11933   0.214   5.561  10.183 -0.9157  0.2295  0.1401
  114OSM    C5F11934   0.101   5.407  10.108  0.0325  0.1195  0.1510
  114OSM    H5F11935   0.025   5.457  10.172 -1.9249 -1.6002 -0.7809
  114OSM    H5G11936   0.089   5.298  10.121  0.7831  0.0877  0.6051
  114OSM    C6F11937   0.065   5.438   9.961  0.1276 -0.0979 -0.5532
  114OSM    H6F11938   0.085   5.547   9.950 -2.8461  0.6534  0.8655
  114OSM    H6G11939  -0.044   5.428   9.946  0.5959 -1.1518 -3.4980
  114OSM    C7F11940   0.152   5.361   9.861  0.2055  0.2606 -0.3647
  114OSM    H7F11941   0.159   5.254   9.889 -0.4596  0.3737  0.2695
  114OSM    H7G11942   0.255   5.401   9.851  0.1961  0.6293  0.8508
  114OSM    C8F11943   0.091   5.369   9.721  0.2588 -1.1174  0.4476
  114OSM    H8F11944  -0.010   5.323   9.718 -0.8560  1.2905 -0.1266
  114OSM    H8G11945   0.157   5.299   9.666  0.6304 -1.5214  1.3964
  114OSM    C9F11946   0.105   5.505   9.653 -0.0388  1.0589 -0.4331
  114OSM    H9F11947   0.115   5.595   9.716 -1.0611  1.3826 -0.7309
  114OSM   C10F11948   0.107   5.516   9.518  0.1882  0.5765 -0.4441
  114OSM   H10F11949   0.143   5.612   9.476  1.6900 -0.3385 -1.2889
  114OSM   C11F11950   0.089   5.412   9.414 -0.1338  0.1905 -0.3929
  114OSM   H11F11951   0.043   5.460   9.325  1.9526 -0.0420 -1.6295
  114OSM   H11G11952   0.025   5.328   9.449  1.7107 -0.6738  0.9614
  114OSM   C12F11953   0.235   5.360   9.386 -0.1813 -0.0022  0.0841
  114OSM   H12F11954   0.278   5.296   9.467 -1.0169 -0.0309  0.5104
  114OSM   H12G11955   0.308   5.445   9.384 -0.4844  0.2625  0.2247
  114OSM   C13F11956   0.250   5.276   9.254  0.5136 -0.1580  0.8563
  114OSM   H13F11957   0.238   5.344   9.167 -2.2359 -0.5709  0.8771
  114OSM   H13G11958   0.163   5.209   9.264  0.0691  0.4878  1.3723
  114OSM   C14F11959   0.382   5.194   9.252  0.6785  0.0140  0.0464
  114OSM   H14F11960   0.389   5.136   9.347 -0.4176 -1.5321 -0.7892
  114OSM   H14G11961   0.461   5.271   9.253 -0.9469  1.7114  0.0676
  114OSM   C15F11962   0.410   5.092   9.143 -0.5009  0.6403 -1.3068
  114OSM   H15F11963   0.333   5.013   9.132 -0.7581  1.2051 -4.0587
  114OSM   H15G11964   0.504   5.039   9.168  0.4497  1.9800 -1.9715
  114OSM   C16F11965   0.441   5.150   9.002 -0.3067  0.5867 -0.7703
  114OSM   H16F11966   0.528   5.217   9.020 -1.1441  0.5126  4.3802
  114OSM   H16G11967   0.364   5.221   8.967 -0.4532  0.2042 -1.2291
  114OSM   C17F11968   0.463   5.053   8.892 -0.5030 -0.3302  0.0895
  114OSM   H17F11969   0.373   4.998   8.857  0.3118 -1.1257 -0.7836
  114OSM   H17G11970   0.533   4.974   8.925  2.9357  2.5199 -0.1056
  114OSM   C18F11971   0.529   5.121   8.776  0.1304 -0.0121  0.3841
  114OSM   H18F11972   0.578   5.041   8.718 -0.0376  0.1984 -0.0526
  114OSM   H18G11973   0.614   5.182   8.814  0.2233  0.3216 -0.3516
  114OSM   H18H11974   0.461   5.190   8.721  1.2754  1.3810  0.6947
  115OSM      N11975   4.301   5.472  10.827 -0.0962 -0.1186 -0.0894
  115OSM    C1511976   4.377   5.497  10.697 -0.0567 -0.2557  0.3276
  115OSM   H15A11977   4.316   5.475  10.610  0.8531 -2.6894  0.2684
  115OSM   H15B11978   4.472   5.447  10.700  0.4933  0.8247  0.9481
  115OSM   H15C11979   4.407   5.598  10.677  0.6190 -1.0634 -3.2312
  115OSM    C1411980   4.401   5.501  10.937 -0.1165 -0.0922 -0.3511
  115OSM   H14A11981   4.424   5.606  10.934 -2.3809  0.4323 -0.1275
  115OSM   H14B11982   4.496   5.450  10.932 -0.5258 -1.1361  1.8821
  115OSM   H14C11983   4.344   5.495  11.028  0.1826  0.9614 -0.0891
  115OSM    C1311984   4.197   5.574  10.833  0.3758  0.5349  0.6090
  115OSM   H13A11985   4.128   5.560  10.751 -0.5636 -0.0007  1.4820
  115OSM   H13B11986   4.235   5.675  10.825 -0.4051  0.9064  1.4772
  115OSM   H13C11987   4.139   5.567  10.924  1.7562  1.5724  1.5856
  115OSM    C1211988   4.244   5.334  10.828  0.1087  0.0970  0.0925
  115OSM   H12A11989   4.322   5.264  10.801  1.4263  1.6623 -0.2213
  115OSM   H12B11990   4.168   5.319  10.752  1.1350 -0.8476 -0.7701
  115OSM    C1111991   4.175   5.292  10.962 -0.0298  0.1325  0.2365
  115OSM   H11A11992   4.110   5.381  10.970  2.4364  1.9003  1.1016
  115OSM   H11B11993   4.245   5.293  11.049 -1.4147  0.1654  1.3693
  115OSM      P11994   4.184   5.025  10.956  0.0606  0.3231 -0.5767
  115OSM    O1311995   4.328   5.039  10.936  0.2659 -0.3870  0.5505
  115OSM    O1411996   4.150   4.975  11.093  0.2984  0.5059  0.4700
  115OSM    O1111997   4.117   4.950  10.836 -0.3108 -0.3764  0.0776
  115OSM    O1211998   4.112   5.166  10.939 -0.6030  0.3474  0.1952
  115OSM    C1S11999   4.030   5.012  10.742  0.7448 -0.7084  0.0351
  115OSM    H1S12000   4.086   5.101  10.704  2.3483 -1.9708 -0.6686
  115OSM    H1T12001   3.934   5.048  10.783  1.2769 -0.2570  0.8931
  115OSM     NF12002   3.911   5.003  10.528 -0.3227  0.7829  0.1585
  115OSM    HNF12003   3.818   4.971  10.515 -0.1160 -0.0329  0.6016
  115OSM    C2S12004   3.995   4.927  10.622  0.7667 -0.6354 -0.0275
  115OSM    H2S12005   4.092   4.906  10.573  0.8263  0.3344 -0.3331
  115OSM    C3S12006   3.929   4.801  10.677  0.6761  0.5922 -1.1736
  115OSM    H3S12007   3.831   4.824  10.724  1.4303  3.5971 -1.0176
  115OSM     O312008   4.001   4.733  10.780 -0.1504 -0.1115 -0.2733
  115OSM    HO312009   4.063   4.804  10.799 -0.2148  0.0398 -0.6236
  115OSM    C4S12010   3.919   4.702  10.561 -0.0023  0.3832 -0.1633
  115OSM    H4S12011   4.011   4.662  10.514 -1.4260 -2.1063 -0.9030
  115OSM    C5S12012   3.807   4.645  10.507 -0.4202 -0.1970 -0.5524
  115OSM    H5S12013   3.713   4.677  10.554 -0.2547 -1.2471  0.5101
  115OSM    C6S12014   3.809   4.543  10.398  0.2822 -0.1486  0.5773
  115OSM    H6S12015   3.741   4.462  10.433  1.1319 -0.4334  1.6013
  115OSM    H6T12016   3.905   4.492  10.372 -0.2705 -2.2763  2.4989
  115OSM    C7S12017   3.749   4.597  10.274 -0.5026 -0.2140  0.3155
  115OSM    H7S12018   3.650   4.646  10.285 -0.5118  0.2776 -1.6960
  115OSM    H7T12019   3.724   4.507  10.214 -0.8240  0.2015 -0.1829
  115OSM    C8S12020   3.838   4.700  10.195  0.4494 -0.0390  0.2006
  115OSM    H8S12021   3.947   4.680  10.198  0.7579  1.4626 -0.1491
  115OSM    H8T12022   3.837   4.802  10.240 -1.4280  0.6450 -1.3075
  115OSM    C9S12023   3.796   4.722  10.045 -0.3062 -0.5372 -0.3382
  115OSM    H9S12024   3.744   4.631  10.008 -0.0697 -0.6746 -0.3322
  115OSM    H9T12025   3.893   4.734   9.992  0.4453 -1.6777  0.7412
  115OSM   C10S12026   3.715   4.851  10.025  0.5228 -0.6483 -0.0315
  115OSM   H10S12027   3.776   4.937  10.059 -1.2180  0.1961  1.0165
  115OSM   H10T12028   3.619   4.861  10.081  0.3221  0.1999 -0.5277
  115OSM   C11S12029   3.708   4.888   9.875  0.1412  0.5986  0.1356
  115OSM   H11S12030   3.813   4.867   9.844  1.3278  0.6626  3.9204
  115OSM   H11T12031   3.699   4.998   9.859 -0.5500  0.5942  0.4837
  115OSM   C12S12032   3.589   4.825   9.791 -0.1660 -0.7537 -0.4449
  115OSM   H12S12033   3.487   4.840   9.831  0.2774 -2.0554  1.2535
  115OSM   H12T12034   3.626   4.720   9.795  2.9058  0.3209  1.3378
  115OSM   C13S12035   3.586   4.871   9.646 -0.3841  0.4473 -0.0331
  115OSM   H13S12036   3.686   4.865   9.599 -0.3166 -0.2498  0.1923
  115OSM   H13T12037   3.563   4.980   9.644  0.1572  0.5323 -1.7221
  115OSM   C14S12038   3.475   4.810   9.561 -0.5411  0.2937 -0.5415
  115OSM   H14S12039   3.381   4.799   9.620  1.2391 -3.2547  1.8204
  115OSM   H14T12040   3.487   4.705   9.527  1.5408  0.8067 -1.4501
  115OSM   C15S12041   3.444   4.901   9.443 -0.4878 -0.0251 -0.2143
  115OSM   H15S12042   3.386   4.985   9.489 -1.0236 -0.2263 -0.5197
  115OSM   H15T12043   3.384   4.844   9.369 -1.5682  1.0427 -0.1848
  115OSM   C16S12044   3.565   4.958   9.369 -0.3665 -0.2653  0.8295
  115OSM   H16S12045   3.614   5.036   9.431  0.0532  0.5558 -0.5140
  115OSM   H16T12046   3.529   5.010   9.278  1.1793  0.5553  0.6689
  115OSM   C17S12047   3.655   4.850   9.315  0.0735 -0.5802 -0.2356
  115OSM   H17S12048   3.688   4.787   9.401  0.8353  0.6746  0.4214
  115OSM   H17T12049   3.746   4.897   9.270 -1.1556  0.3158 -1.8142
  115OSM   C18S12050   3.597   4.765   9.197  0.1937  0.1556 -0.1592
  115OSM   H18S12051   3.574   4.835   9.114 -0.0187  0.7721  0.4134
  115OSM   H18T12052   3.507   4.704   9.221  0.7017 -0.7405 -0.4746
  115OSM   H18U12053   3.679   4.694   9.171  1.2136  1.6037 -0.9306
  115OSM    C1F12054   3.963   5.098  10.456  0.3909 -0.8900  0.2620
  115OSM     OF12055   4.088   5.108  10.440 -0.7529 -0.2568 -0.5323
  115OSM    C2F12056   3.866   5.176  10.373 -0.1023 -0.0329 -0.3009
  115OSM    H2F12057   3.811   5.250  10.435  2.3560 -0.4425  2.4541
  115OSM    H2G12058   3.803   5.105  10.314 -0.3539  0.6903 -0.9048
  115OSM    C3F12059   3.945   5.271  10.271  0.1698 -0.5009  0.2558
  115OSM    H3F12060   4.016   5.208  10.213  0.1198 -0.3734  0.0592
  115OSM    H3G12061   4.007   5.348  10.322  1.9335 -0.8693 -1.3029
  115OSM    C4F12062   3.861   5.349  10.168 -0.0365 -0.0905 -0.6240
  115OSM    H4F12063   3.924   5.432  10.131  1.7270 -0.8455  0.6267
  115OSM    H4G12064   3.780   5.404  10.221 -0.2072 -0.7254 -0.2336
  115OSM    C5F12065   3.801   5.258  10.064 -0.0701  0.0265 -0.1522
  115OSM    H5F12066   3.739   5.192  10.127  0.6514  0.2283  0.7800
  115OSM    H5G12067   3.880   5.196  10.016 -0.2297 -1.6322  1.6960
  115OSM    C6F12068   3.726   5.334   9.959 -0.4167  0.3819 -1.2923
  115OSM    H6F12069   3.643   5.393  10.004  1.0818  1.3452  0.2922
  115OSM    H6G12070   3.686   5.259   9.888  0.7263 -1.0507 -0.4467
  115OSM    C7F12071   3.805   5.430   9.872 -0.6355  0.2650 -0.6032
  115OSM    H7F12072   3.898   5.378   9.841 -0.0504  1.4248 -0.8170
  115OSM    H7G12073   3.837   5.513   9.939 -0.1462 -0.7430  0.4257
  115OSM    C8F12074   3.727   5.482   9.745 -0.4294 -0.1756  0.0242
  115OSM    H8F12075   3.782   5.572   9.710 -0.2978 -0.6304 -0.9223
  115OSM    H8G12076   3.626   5.515   9.778 -0.5958 -1.9756  1.3619
  115OSM    C9F12077   3.732   5.375   9.642  0.0330  0.5273 -0.1320
  115OSM    H9F12078   3.695   5.276   9.672 -2.2340  0.9507 -1.3480
  115OSM   C10F12079   3.779   5.387   9.514  0.4217  0.1876  1.0344
  115OSM   H10F12080   3.770   5.294   9.457  1.7250 -1.7918  3.9363
  115OSM   C11F12081   3.816   5.521   9.446  0.3912  0.2117  0.2597
  115OSM   H11F12082   3.883   5.514   9.357  1.8062 -1.4193  1.4257
  115OSM   H11G12083   3.859   5.591   9.520  1.4477  0.7058 -0.8004
  115OSM   C12F12084   3.691   5.603   9.410 -0.5265  0.6995  0.1644
  115OSM   H12F12085   3.719   5.707   9.385 -0.1316  0.5027 -0.2196
  115OSM   H12G12086   3.624   5.600   9.498  0.0317 -3.3685  0.5683
  115OSM   C13F12087   3.597   5.548   9.303  0.3240  0.0687 -0.1078
  115OSM   H13F12088   3.522   5.628   9.287 -0.5034 -0.6824  0.0014
  115OSM   H13G12089   3.538   5.460   9.335  0.7573 -1.5648 -3.4773
  115OSM   C14F12090   3.667   5.520   9.167 -0.1368  0.0007  0.1284
  115OSM   H14F12091   3.763   5.575   9.159 -0.6987  1.1717  1.0908
  115OSM   H14G12092   3.613   5.557   9.078  3.1038 -2.1626 -2.8639
  115OSM   C15F12093   3.706   5.375   9.132  0.0543  0.3052 -0.6214
  115OSM   H15F12094   3.789   5.348   9.200 -0.6347 -0.7440 -0.1925
  115OSM   H15G12095   3.750   5.368   9.030 -0.5594 -0.3154 -0.8424
  115OSM   C16F12096   3.601   5.263   9.138  0.3755  0.3382  0.8249
  115OSM   H16F12097   3.547   5.261   9.234  0.7739 -1.5813  1.0188
  115OSM   H16G12098   3.652   5.166   9.122 -1.2810 -0.4029 -0.1038
  115OSM   C17F12099   3.504   5.284   9.018 -0.6094  0.0568 -0.5302
  115OSM   H17F12100   3.572   5.300   8.932 -1.5076 -0.7256 -1.3962
  115OSM   H17G12101   3.453   5.381   9.038  0.5758  0.6114 -0.1461
  115OSM   C18F12102   3.403   5.179   8.992  0.5543 -0.3965 -0.4845
  115OSM   H18F12103   3.324   5.166   9.068 -1.0966 -3.2732 -2.5930
  115OSM   H18G12104   3.447   5.078   8.978  2.5284  0.5297 -1.2502
  115OSM   H18H12105   3.358   5.191   8.891  1.4295 -0.8627 -0.9365
  116OSM      N12106   6.616   1.044  10.806  0.2105 -0.0642 -0.3609
  116OSM    C1512107   6.662   0.984  10.677 -0.2433 -0.9957 -0.2057
  116OSM   H15A12108   6.769   0.998  10.668 -0.0839  0.1661  2.8361
  116OSM   H15B12109   6.607   1.024  10.593  2.9132  0.0258 -1.8670
  116OSM   H15C12110   6.632   0.881  10.687 -0.1102 -1.0128  0.0078
  116OSM    C1412111   6.478   1.002  10.827 -0.7720 -0.3465 -0.1448
  116OSM   H14A12112   6.415   1.059  10.761 -0.4548  3.7315  2.8906
  116OSM   H14B12113   6.442   1.011  10.928 -1.3210  2.2577 -0.5433
  116OSM   H14C12114   6.471   0.899  10.793  0.0591 -0.6955  0.7246
  116OSM    C1312115   6.702   0.988  10.919  0.1604 -0.2372  0.9889
  116OSM   H13A12116   6.718   0.881  10.912 -1.3216 -0.2660 -3.7006
  116OSM   H13B12117   6.653   0.991  11.015 -0.3552  4.4531  0.6588
  116OSM   H13C12118   6.799   1.034  10.914  0.9395 -1.9044 -0.0984
  116OSM    C1212119   6.629   1.194  10.804  0.9163  0.3608 -0.2608
  116OSM   H12A12120   6.579   1.245  10.886 -2.5852 -0.6832 -1.6944
  116OSM   H12B12121   6.573   1.235  10.722  2.8015  1.1471 -1.1890
  116OSM    C1112122   6.773   1.257  10.801 -0.7951 -0.1072  0.1735
  116OSM   H11A12123   6.763   1.367  10.789 -2.2033 -0.1076  1.1969
  116OSM   H11B12124   6.827   1.205  10.718 -0.6773 -0.3662  0.4120
  116OSM      P12125   6.990   1.202  10.947 -0.3799 -0.1861 -0.0808
  116OSM    O1312126   7.015   1.230  11.093  0.0432  0.1695 -0.0941
  116OSM    O1412127   7.017   1.069  10.891 -0.0676 -0.2195 -0.0729
  116OSM    O1112128   7.066   1.308  10.870 -0.5651 -0.1532  0.9292
  116OSM    O1212129   6.842   1.234  10.922 -0.1850  0.3437  0.1600
  116OSM    C1S12130   7.131   1.297  10.745 -0.1393 -0.6744 -0.0623
  116OSM    H1S12131   7.114   1.195  10.704 -0.2847 -1.0527  0.9370
  116OSM    H1T12132   7.239   1.322  10.749 -0.5391  0.8959  1.8347
  116OSM     NF12133   7.126   1.350  10.498  0.2598  0.2608  0.1731
  116OSM    HNF12134   7.200   1.407  10.463  0.1911 -0.3471 -0.9763
  116OSM    C2S12135   7.070   1.388  10.627 -0.6709  0.6746 -0.3987
  116OSM    H2S12136   6.967   1.346  10.620 -0.0354 -0.9505 -0.4073
  116OSM    C3S12137   7.066   1.543  10.641 -0.3068  0.7256 -0.0936
  116OSM    H3S12138   7.171   1.579  10.629 -0.8554  3.0766  1.7054
  116OSM     O312139   7.022   1.581  10.770 -0.4359  0.0165  0.7154
  116OSM    HO312140   7.012   1.496  10.814  1.3552 -1.2050 -1.1257
  116OSM    C4S12141   6.982   1.609  10.535 -0.2096  0.1776 -0.1844
  116OSM    H4S12142   6.878   1.572  10.537  0.1916 -0.9275  1.3903
  116OSM    C5S12143   7.022   1.701  10.452  0.2196 -0.4549  0.3499
  116OSM    H5S12144   7.129   1.726  10.442  0.5984 -1.3454  2.0706
  116OSM    C6S12145   6.935   1.765  10.344  0.2070  0.3650 -0.2255
  116OSM    H6S12146   6.978   1.861  10.310  0.0853  0.7223  0.6215
  116OSM    H6T12147   6.836   1.795  10.384  0.3487 -0.4502  0.7825
  116OSM    C7S12148   6.903   1.666  10.226 -0.1191  0.3492  0.1438
  116OSM    H7S12149   6.837   1.589  10.270  0.6437 -0.3508  0.0773
  116OSM    H7T12150   6.996   1.613  10.198 -1.1302 -1.6259  0.4917
  116OSM    C8S12151   6.828   1.743  10.126  0.1743 -0.0418 -0.1696
  116OSM    H8S12152   6.892   1.825  10.085  0.5644 -1.0223 -1.5678
  116OSM    H8T12153   6.744   1.803  10.167 -0.3859  0.3713 -1.8811
  116OSM    C9S12154   6.761   1.650  10.025 -0.3130  0.2718 -0.1372
  116OSM    H9S12155   6.696   1.576  10.076 -1.0494  0.4143 -0.8640
  116OSM    H9T12156   6.844   1.592   9.977  1.2706  1.2480  1.3803
  116OSM   C10S12157   6.670   1.712   9.914 -0.0898 -0.2962 -0.4315
  116OSM   H10S12158   6.729   1.782   9.851 -0.3174  0.5985  0.3322
  116OSM   H10T12159   6.586   1.772   9.955 -0.3366  1.4907 -3.4384
  116OSM   C11S12160   6.607   1.610   9.818  0.0384  0.0872  0.5090
  116OSM   H11S12161   6.540   1.542   9.875  1.9882 -0.9308  1.6516
  116OSM   H11T12162   6.690   1.550   9.773 -1.6468 -1.2121 -0.9138
  116OSM   C12S12163   6.515   1.673   9.710 -0.3110 -0.1739 -0.0344
  116OSM   H12S12164   6.574   1.740   9.644 -1.0426 -1.8000 -2.3904
  116OSM   H12T12165   6.439   1.737   9.759 -2.3270 -2.4681 -0.0858
  116OSM   C13S12166   6.452   1.580   9.611 -0.3590  0.2018  0.0391
  116OSM   H13S12167   6.363   1.530   9.656 -0.0103 -0.2688  0.2017
  116OSM   H13T12168   6.536   1.517   9.576 -1.7175 -1.8615  0.4219
  116OSM   C14S12169   6.403   1.659   9.493 -0.5147 -1.0731 -0.4400
  116OSM   H14S12170   6.476   1.741   9.480 -2.3896  0.6490 -0.2254
  116OSM   H14T12171   6.302   1.703   9.508 -0.0357  0.2310 -0.9753
  116OSM   C15S12172   6.400   1.573   9.361 -1.2219 -0.2259  0.6577
  116OSM   H15S12173   6.338   1.485   9.388 -1.5060 -0.7813 -1.6790
  116OSM   H15T12174   6.505   1.538   9.347 -1.2902 -0.0066 -0.4796
  116OSM   C16S12175   6.346   1.639   9.235  0.3110 -0.8860  0.8648
  116OSM   H16S12176   6.420   1.718   9.209  0.2739 -1.2016 -0.2365
  116OSM   H16T12177   6.251   1.688   9.264  1.2773  1.7064 -0.2006
  116OSM   C17S12178   6.326   1.538   9.122 -0.4669  0.4657  0.0794
  116OSM   H17S12179   6.264   1.575   9.037 -0.7662 -0.3129 -0.0443
  116OSM   H17T12180   6.271   1.455   9.170  0.3241 -0.1067  0.0019
  116OSM   C18S12181   6.455   1.466   9.064  0.3885 -0.7030 -0.5313
  116OSM   H18S12182   6.507   1.421   9.151 -1.2245  0.2956  0.9738
  116OSM   H18T12183   6.529   1.531   9.011 -0.9002  1.0852 -0.1660
  116OSM   H18U12184   6.425   1.387   8.993  0.0357 -1.3479  0.3326
  116OSM    C1F12185   7.086   1.238  10.434 -0.1841 -0.1673  0.0132
  116OSM     OF12186   6.989   1.174  10.467  0.7825 -0.5134  0.1804
  116OSM    C2F12187   7.175   1.186  10.323 -0.0634 -0.6489 -0.2958
  116OSM    H2F12188   7.271   1.192  10.378  0.0337  0.4931 -0.5771
  116OSM    H2G12189   7.173   1.270  10.250  0.2966 -0.0436  0.3896
  116OSM    C3F12190   7.132   1.042  10.269 -0.3902  0.0336 -0.6707
  116OSM    H3F12191   7.027   1.053  10.236 -0.1614 -0.2387 -1.4996
  116OSM    H3G12192   7.139   0.971  10.355  1.9275  0.2437 -0.6403
  116OSM    C4F12193   7.240   0.992  10.171 -0.0282 -0.5331  0.4019
  116OSM    H4F12194   7.326   0.963  10.234  1.5582  0.9052 -1.0375
  116OSM    H4G12195   7.282   1.082  10.120  1.0587  0.3279  2.7711
  116OSM    C5F12196   7.186   0.893  10.062  0.0254  0.1421 -0.3640
  116OSM    H5F12197   7.111   0.945   9.997 -1.4713 -0.0712  1.1598
  116OSM    H5G12198   7.133   0.805  10.104  1.1994 -0.3684  0.0566
  116OSM    C6F12199   7.288   0.842   9.968 -0.3074 -0.4567  0.4292
  116OSM    H6F12200   7.362   0.789  10.032  0.0752 -1.4710 -0.8456
  116OSM    H6G12201   7.343   0.931   9.931 -0.9303  0.2790  1.2560
  116OSM    C7F12202   7.233   0.756   9.860 -0.4617 -0.2224 -0.1596
  116OSM    H7F12203   7.122   0.755   9.857 -0.5159  1.4505  0.7058
  116OSM    H7G12204   7.262   0.653   9.890 -5.9135 -1.5009  1.2094
  116OSM    C8F12205   7.309   0.780   9.724  0.3423 -0.3548  0.8632
  116OSM    H8F12206   7.309   0.694   9.653 -2.1762  0.1205  0.2192
  116OSM    H8G12207   7.416   0.807   9.737 -0.1823  2.0986  0.3869
  116OSM    C9F12208   7.249   0.896   9.653  0.1185 -0.3168 -0.0850
  116OSM    H9F12209   7.176   0.956   9.709  0.3129  0.4809 -0.6782
  116OSM   C10F12210   7.275   0.920   9.524  0.9712 -0.8001  0.2578
  116OSM   H10F12211   7.235   1.013   9.480  1.6853 -0.9709 -0.7550
  116OSM   C11F12212   7.361   0.834   9.434  0.2705  0.7807  0.0958
  116OSM   H11F12213   7.348   0.725   9.452 -1.0868  1.1698  1.6345
  116OSM   H11G12214   7.469   0.856   9.449  0.2572  0.1649  1.1477
  116OSM   C12F12215   7.312   0.853   9.287  0.1684 -0.4858 -0.2850
  116OSM   H12F12216   7.351   0.770   9.225 -1.2192  0.1810 -2.1195
  116OSM   H12G12217   7.362   0.946   9.253  2.1619 -1.4266  0.0149
  116OSM   C13F12218   7.165   0.871   9.262 -0.3614  0.2244  0.2568
  116OSM   H13F12219   7.128   0.966   9.305 -1.3111  0.6009 -1.3831
  116OSM   H13G12220   7.119   0.788   9.320 -1.1979 -0.3353 -1.1697
  116OSM   C14F12221   7.119   0.862   9.121 -0.0942  0.0142  0.1368
  116OSM   H14F12222   7.008   0.870   9.121 -0.1020  1.0341  4.3897
  116OSM   H14G12223   7.145   0.760   9.085  1.3836  0.9778 -1.6322
  116OSM   C15F12224   7.178   0.966   9.021  0.0675  0.6662  0.1983
  116OSM   H15F12225   7.283   0.935   9.006 -0.3266 -0.9334  0.6376
  116OSM   H15G12226   7.172   1.068   9.065  0.9066  0.5437  0.5944
  116OSM   C16F12227   7.097   0.965   8.893  0.2280  0.2392  0.5750
  116OSM   H16F12228   6.994   0.994   8.923  1.3751  2.5724  2.4451
  116OSM   H16G12229   7.096   0.871   8.834  0.0444  1.1417 -0.9117
  116OSM   C17F12230   7.144   1.076   8.797  0.1074  0.2125  0.0073
  116OSM   H17F12231   7.111   1.173   8.840  1.4314 -0.1355  1.9015
  116OSM   H17G12232   7.088   1.057   8.703  1.5424 -3.6653 -0.1368
  116OSM   C18F12233   7.296   1.086   8.777  0.1879 -0.9357 -0.7092
  116OSM   H18F12234   7.320   1.157   8.694 -1.3096  0.3858 -0.0418
  116OSM   H18G12235   7.348   0.991   8.755 -0.0341 -1.4125  0.7735
  116OSM   H18H12236   7.349   1.133   8.863 -0.9502  0.5924 -0.8137
  117OSM      N12237   4.322   2.754  11.101  0.0600 -0.1830 -0.6576
  117OSM    C1512238   4.374   2.694  11.228 -0.6510  0.0497  0.4773
  117OSM   H15A12239   4.302   2.621  11.262 -1.0516  0.3903  0.3543
  117OSM   H15B12240   4.402   2.767  11.302  0.3567  0.1080  0.0464
  117OSM   H15C12241   4.464   2.638  11.208 -0.4849  0.2906  0.5475
  117OSM    C1412242   4.238   2.663  11.021  0.4543 -0.1363 -0.1093
  117OSM   H14A12243   4.149   2.652  11.080  1.1437  2.0501  1.4014
  117OSM   H14B12244   4.287   2.569  10.998 -3.1693 -1.5540 -2.4561
  117OSM   H14C12245   4.205   2.701  10.925  2.0286 -3.5818 -2.1133
  117OSM    C1312246   4.232   2.873  11.138 -0.7360  0.1900  0.0777
  117OSM   H13A12247   4.263   2.927  11.226 -2.7216 -1.1134  1.5914
  117OSM   H13B12248   4.138   2.828  11.165 -1.4101  1.1357 -0.6372
  117OSM   H13C12249   4.211   2.933  11.050 -0.8611 -0.7472 -0.5371
  117OSM    C1212250   4.434   2.804  11.020 -0.1133 -0.6081 -0.5012
  117OSM   H12A12251   4.496   2.871  11.079 -1.6027  1.0039 -0.7427
  117OSM   H12B12252   4.400   2.867  10.940  1.0435  0.6194 -0.0486
  117OSM    C1112253   4.530   2.704  10.947 -0.3215  0.3135 -0.0445
  117OSM   H11A12254   4.607   2.763  10.892  0.1727 -2.8325 -2.8866
  117OSM   H11B12255   4.479   2.653  10.862  1.3894  1.3818 -1.7739
  117OSM      P12256   4.592   2.454  11.015  0.3481 -0.1583  0.5589
  117OSM    O1312257   4.702   2.392  11.087  0.4174 -0.0707 -0.2909
  117OSM    O1412258   4.452   2.403  11.037  0.7054 -0.3347  0.0673
  117OSM    O1112259   4.615   2.425  10.867  0.1093 -0.2112  0.5162
  117OSM    O1212260   4.600   2.608  11.027  0.0038  0.1190  0.4791
  117OSM    C1S12261   4.740   2.422  10.802 -0.4942  0.3970  0.6900
  117OSM    H1S12262   4.812   2.346  10.841  0.6946  0.8984 -0.4696
  117OSM    H1T12263   4.800   2.513  10.824  0.3429 -0.1363  0.6284
  117OSM     NF12264   4.857   2.413  10.581  0.5258 -0.7450 -0.2095
  117OSM    HNF12265   4.868   2.498  10.530  1.0768  0.4330  1.8205
  117OSM    C2S12266   4.724   2.402  10.641 -0.3838  0.5580  0.0090
  117OSM    H2S12267   4.679   2.302  10.623 -1.4283  0.7987  1.2220
  117OSM    C3S12268   4.623   2.499  10.576 -0.6198 -0.3107  0.2091
  117OSM    H3S12269   4.658   2.600  10.605  1.1427 -0.4676 -1.2093
  117OSM     O312270   4.488   2.479  10.622  0.0848  0.3809  0.6927
  117OSM    HO312271   4.489   2.418  10.696  0.7773 -0.9070 -0.3721
  117OSM    C4S12272   4.619   2.482  10.424 -0.1608 -0.2959  0.7480
  117OSM    H4S12273   4.677   2.559  10.370 -0.5707 -1.0487 -0.7996
  117OSM    C5S12274   4.577   2.378  10.347 -0.2980  0.1841  0.3174
  117OSM    H5S12275   4.519   2.301  10.400  1.7757 -0.5229  1.6234
  117OSM    C6S12276   4.587   2.382  10.196  0.1526 -0.0717  0.5912
  117OSM    H6S12277   4.506   2.320  10.152  0.8815 -0.2685 -0.4796
  117OSM    H6T12278   4.680   2.322  10.182 -0.5598 -0.0896 -5.2040
  117OSM    C7S12279   4.597   2.520  10.131 -0.5292  0.2737 -0.7933
  117OSM    H7S12280   4.697   2.563  10.153 -0.1519 -1.4136  0.8829
  117OSM    H7T12281   4.514   2.580  10.172  0.0128 -0.6557  1.7649
  117OSM    C8S12282   4.585   2.507   9.978 -0.2637  0.0261  0.4009
  117OSM    H8S12283   4.644   2.419   9.946  2.2417  2.1910 -1.0675
  117OSM    H8T12284   4.614   2.604   9.931  1.5589  1.0769  3.5504
  117OSM    C9S12285   4.443   2.474   9.921  0.3205 -0.6639  0.0661
  117OSM    H9S12286   4.381   2.558   9.958  1.6106  1.3356 -2.1750
  117OSM    H9T12287   4.403   2.384   9.973 -0.8180 -0.8881 -1.1563
  117OSM   C10S12288   4.435   2.441   9.768  0.9810 -0.2188  0.3337
  117OSM   H10S12289   4.500   2.356   9.737 -0.0735 -0.1810 -2.0368
  117OSM   H10T12290   4.457   2.537   9.716  0.0005  0.5516  1.3214
  117OSM   C11S12291   4.289   2.395   9.740  0.0943  0.2774  0.4043
  117OSM   H11S12292   4.210   2.465   9.778 -0.7054 -1.2460  1.6154
  117OSM   H11T12293   4.288   2.291   9.778  0.7658  0.3911  0.7373
  117OSM   C12S12294   4.254   2.400   9.588 -0.0687 -0.1726 -0.0985
  117OSM   H12S12295   4.338   2.349   9.536 -1.0832 -0.9358 -1.0277
  117OSM   H12T12296   4.250   2.505   9.552  0.0162 -0.4086 -0.8111
  117OSM   C13S12297   4.122   2.334   9.551  0.2308 -0.2783 -0.7375
  117OSM   H13S12298   4.036   2.379   9.605  0.1472 -2.3645  0.9541
  117OSM   H13T12299   4.134   2.230   9.588 -0.6495 -0.0669  0.1666
  117OSM   C14S12300   4.088   2.344   9.403  0.2250 -0.6594 -0.2547
  117OSM   H14S12301   4.075   2.450   9.370 -0.8611 -1.0945 -1.2570
  117OSM   H14T12302   3.991   2.291   9.392  1.1820 -2.0433 -2.2451
  117OSM   C15S12303   4.193   2.284   9.307 -0.2133 -0.0544  0.6187
  117OSM   H15S12304   4.222   2.185   9.346 -2.9383 -0.3923  1.8633
  117OSM   H15T12305   4.279   2.354   9.313 -0.2521 -0.1186  2.1178
  117OSM   C16S12306   4.125   2.286   9.164  0.0521 -0.4606 -0.0684
  117OSM   H16S12307   4.019   2.252   9.160 -0.1276 -0.0299  0.8327
  117OSM   H16T12308   4.180   2.219   9.094  1.1465 -0.9193  1.1982
  117OSM   C17S12309   4.123   2.416   9.087 -0.0500  0.8294 -0.3140
  117OSM   H17S12310   4.228   2.450   9.079  0.1809  1.1668  3.1734
  117OSM   H17T12311   4.071   2.497   9.142 -0.4504 -1.7785  3.3956
  117OSM   C18S12312   4.064   2.407   8.947  0.1420  0.3921 -0.5735
  117OSM   H18S12313   4.089   2.313   8.894  3.1895  0.1028  1.2434
  117OSM   H18T12314   4.093   2.496   8.887 -0.3054  1.9062  1.3963
  117OSM   H18U12315   3.953   2.402   8.943  0.0709 -2.1452  2.4754
  117OSM    C1F12316   4.949   2.316  10.581  0.1893 -0.8061  0.2403
  117OSM     OF12317   4.919   2.208  10.629  0.1521 -0.1516 -0.1631
  117OSM    C2F12318   5.083   2.351  10.524  0.0479 -0.0647  0.5762
  117OSM    H2F12319   5.168   2.322  10.589  2.6561 -2.0873 -3.5377
  117OSM    H2G12320   5.088   2.462  10.535 -1.5425  0.1216 -0.4113
  117OSM    C3F12321   5.109   2.302  10.381  0.0851  0.7402  0.3064
  117OSM    H3F12322   5.116   2.192  10.389  1.0174  0.5316 -2.8523
  117OSM    H3G12323   5.214   2.331  10.357  0.0833  1.0611  0.6716
  117OSM    C4F12324   5.017   2.339  10.273 -0.6452  0.6266  0.0405
  117OSM    H4F12325   5.003   2.449  10.271 -0.5004  0.7006  2.0454
  117OSM    H4G12326   4.912   2.301  10.278 -0.8466  0.6247 -3.0692
  117OSM    C5F12327   5.059   2.274  10.140  0.8638 -0.3962 -0.2433
  117OSM    H5F12328   5.055   2.163  10.153 -2.7473 -0.1812  1.0197
  117OSM    H5G12329   5.161   2.317  10.131  1.6202 -1.6731  1.7690
  117OSM    C6F12330   4.957   2.307  10.034  0.9998 -0.1824  0.0415
  117OSM    H6F12331   4.943   2.417  10.032 -0.1765 -0.2907  1.4019
  117OSM    H6G12332   4.862   2.270  10.079  0.2132  0.9622 -0.6657
  117OSM    C7F12333   4.987   2.245   9.897 -0.6926 -0.4404  0.0747
  117OSM    H7F12334   5.016   2.139   9.913  0.2058 -0.2422 -0.1838
  117OSM    H7G12335   5.079   2.289   9.852 -0.4801  0.0746  1.0027
  117OSM    C8F12336   4.871   2.253   9.800  0.0008 -0.2537  0.1668
  117OSM    H8F12337   4.778   2.222   9.853  0.0351  0.1490  0.4641
  117OSM    H8G12338   4.878   2.174   9.723 -1.8346 -0.5448  0.2590
  117OSM    C9F12339   4.850   2.390   9.743 -0.0961  0.3018  0.5686
  117OSM    H9F12340   4.872   2.476   9.807 -3.3873  1.6409 -0.0008
  117OSM   C10F12341   4.825   2.420   9.613 -0.6259 -0.1520 -0.1535
  117OSM   H10F12342   4.820   2.527   9.587 -5.9406  1.1090  5.0603
  117OSM   C11F12343   4.819   2.318   9.508 -0.2927  0.1224  0.3259
  117OSM   H11F12344   4.712   2.304   9.481 -0.5606  1.7335  0.5153
  117OSM   H11G12345   4.859   2.220   9.542 -0.6495 -0.9331 -2.2035
  117OSM   C12F12346   4.893   2.355   9.384 -1.0830 -0.8636  0.2243
  117OSM   H12F12347   4.997   2.380   9.413 -0.9763 -0.5090 -0.4464
  117OSM   H12G12348   4.852   2.450   9.343  0.8937 -0.3476 -0.6496
  117OSM   C13F12349   4.894   2.239   9.279 -0.4086  0.7300  0.1366
  117OSM   H13F12350   4.791   2.211   9.249  0.5023 -0.8685 -1.6188
  117OSM   H13G12351   4.939   2.150   9.328 -0.5174  0.6107  0.0186
  117OSM   C14F12352   4.969   2.280   9.153 -0.5967  0.7410  0.6716
  117OSM   H14F12353   4.986   2.188   9.093  2.2442  2.4108 -1.2007
  117OSM   H14G12354   5.071   2.308   9.186 -1.2580  1.3715  2.2051
  117OSM   C15F12355   4.909   2.387   9.064  0.4988 -0.0391  0.1386
  117OSM   H15F12356   4.886   2.475   9.129 -0.7783 -0.1949 -0.0902
  117OSM   H15G12357   4.813   2.358   9.016  0.1614 -0.2015  0.9029
  117OSM   C16F12358   5.014   2.443   8.968 -0.6975  0.0766  0.9539
  117OSM   H16F12359   5.110   2.462   9.022 -0.2263 -0.5681  0.3606
  117OSM   H16G12360   4.971   2.532   8.918  2.0059  0.8045 -0.2083
  117OSM   C17F12361   5.039   2.335   8.859 -0.2747 -0.0045  0.6451
  117OSM   H17F12362   4.951   2.269   8.846 -0.2026  0.4391 -2.4901
  117OSM   H17G12363   5.112   2.268   8.909  0.2632 -0.4839 -0.7650
  117OSM   C18F12364   5.089   2.387   8.727  0.4012  0.0548  0.5882
  117OSM   H18F12365   5.200   2.397   8.727  0.3741  0.5340 -1.5041
  117OSM   H18G12366   5.044   2.486   8.706  0.2726  0.0768  0.9604
  117OSM   H18H12367   5.062   2.312   8.649  1.6401  0.7919 -0.5817
  118OSM      N12368   5.241   3.564  11.314 -0.1546 -0.3117 -0.2968
  118OSM    C1512369   5.311   3.574  11.442  0.3800  0.0451  0.1924
  118OSM   H15A12370   5.300   3.483  11.500 -1.5325 -1.0190 -1.7416
  118OSM   H15B12371   5.267   3.657  11.495 -0.5382 -0.4755  0.2619
  118OSM   H15C12372   5.418   3.586  11.438  0.1459  1.8946 -0.9818
  118OSM    C1412373   5.236   3.421  11.265  0.0320 -0.1645 -0.2942
  118OSM   H14A12374   5.162   3.406  11.188  0.3078 -0.3561 -0.5188
  118OSM   H14B12375   5.212   3.345  11.337 -2.7251  2.0032  1.2045
  118OSM   H14C12376   5.332   3.401  11.219 -0.1897 -0.4270 -0.6436
  118OSM    C1312377   5.093   3.604  11.325 -0.3367  0.9648 -0.5896
  118OSM   H13A12378   5.074   3.710  11.333 -1.3596  0.7864 -0.5905
  118OSM   H13B12379   5.041   3.543  11.398 -1.3429  0.0418 -2.0615
  118OSM   H13C12380   5.051   3.577  11.229  2.8200 -0.9857 -1.5061
  118OSM    C1212381   5.305   3.656  11.212 -0.2155 -0.3412  0.2462
  118OSM   H12A12382   5.405   3.620  11.193 -0.1608  0.0612 -0.2341
  118OSM   H12B12383   5.320   3.748  11.265 -2.7893  0.4027 -0.2251
  118OSM    C1112384   5.246   3.675  11.080  0.0645  0.7617 -0.2950
  118OSM   H11A12385   5.312   3.752  11.037 -1.1045  1.4402 -0.8866
  118OSM   H11B12386   5.151   3.733  11.081  0.5756  1.5928  1.7818
  118OSM      P12387   5.112   3.488  10.939 -0.1343 -0.2106  0.6507
  118OSM    O1312388   5.157   3.413  10.817 -0.2735 -0.0007  0.3459
  118OSM    O1412389   5.039   3.413  11.044 -0.0111 -0.1088 -0.2901
  118OSM    O1112390   5.035   3.613  10.892 -0.3360  0.8249  0.6960
  118OSM    O1212391   5.246   3.557  11.000 -0.0539  0.0152  0.0003
  118OSM    C1S12392   5.043   3.691  10.769 -0.2808  0.0393  0.1699
  118OSM    H1S12393   5.121   3.658  10.698  0.6050  2.3237  0.0453
  118OSM    H1T12394   5.074   3.795  10.796 -0.9734 -0.0631  1.4301
  118OSM     NF12395   4.929   3.745  10.564  0.4844  0.3170  0.2624
  118OSM    HNF12396   4.913   3.843  10.563  1.2839  0.4420 -0.7392
  118OSM    C2S12397   4.908   3.686  10.699 -0.2425 -0.5770  0.3233
  118OSM    H2S12398   4.888   3.577  10.692 -0.1818 -0.5021 -1.1814
  118OSM    C3S12399   4.790   3.757  10.780 -0.3659 -0.2054 -1.0951
  118OSM    H3S12400   4.810   3.867  10.781 -2.6507  0.2367 -0.7323
  118OSM     O312401   4.790   3.728  10.921 -0.5718  0.2796  0.2298
  118OSM    HO312402   4.873   3.680  10.926 -1.2442 -1.1946 -1.9942
  118OSM    C4S12403   4.648   3.735  10.720  0.3783 -0.5285  0.4534
  118OSM    H4S12404   4.633   3.746  10.611 -0.0420 -0.6155  0.5011
  118OSM    C5S12405   4.546   3.662  10.779  0.5573  0.4913  0.2327
  118OSM    H5S12406   4.561   3.621  10.880  0.6120 -0.6874 -0.2504
  118OSM    C6S12407   4.418   3.627  10.721  0.5184 -0.0082  0.3340
  118OSM    H6S12408   4.345   3.698  10.765  1.7295  1.0856  0.5941
  118OSM    H6T12409   4.383   3.528  10.758  2.0912 -0.6578  0.1313
  118OSM    C7S12410   4.378   3.657  10.570 -0.5285  0.0665 -0.2458
  118OSM    H7S12411   4.398   3.765  10.549 -0.7770  0.5749  2.0347
  118OSM    H7T12412   4.269   3.648  10.556 -0.8184  3.2479 -0.4641
  118OSM    C8S12413   4.457   3.580  10.464 -0.1728  0.6114 -0.1341
  118OSM    H8S12414   4.565   3.601  10.475  0.4815 -1.6947 -1.8329
  118OSM    H8T12415   4.418   3.629  10.372 -1.7978 -0.4573 -0.0323
  118OSM    C9S12416   4.434   3.429  10.446  0.3047 -0.8714  0.0709
  118OSM    H9S12417   4.466   3.384  10.543  2.0511  0.6302  0.2118
  118OSM    H9T12418   4.501   3.395  10.364  0.7233  0.2057 -0.0496
  118OSM   C10S12419   4.290   3.388  10.409 -0.4487 -0.5892  0.5836
  118OSM   H10S12420   4.238   3.469  10.354 -0.2647  1.3515  3.1541
  118OSM   H10T12421   4.234   3.383  10.505  0.1369  0.3536  0.9756
  118OSM   C11S12422   4.285   3.260  10.325  1.0643 -0.0456  0.0435
  118OSM   H11S12423   4.176   3.238  10.322  1.0689 -0.8291  3.2854
  118OSM   H11T12424   4.340   3.181  10.381 -2.3105 -2.0639  0.6878
  118OSM   C12S12425   4.334   3.270  10.178  0.2190 -0.0302  0.4152
  118OSM   H12S12426   4.322   3.182  10.112  0.5351  0.0456  0.2500
  118OSM   H12T12427   4.444   3.270  10.196 -0.0148  1.3562  1.9788
  118OSM   C13S12428   4.308   3.401  10.101 -0.1012 -0.3428 -0.4330
  118OSM   H13S12429   4.362   3.484  10.151 -1.5275  0.1547  0.3311
  118OSM   H13T12430   4.202   3.434  10.104 -0.7399 -2.4186  1.5753
  118OSM   C14S12431   4.356   3.382   9.952  0.5573  0.2601 -0.6428
  118OSM   H14S12432   4.456   3.334   9.955  0.6776  0.5737  0.7639
  118OSM   H14T12433   4.383   3.481   9.910  0.0707  0.6451 -0.0525
  118OSM   C15S12434   4.271   3.302   9.862 -0.4709  0.4199  0.2714
  118OSM   H15S12435   4.173   3.348   9.838 -0.8305 -0.5419 -0.1333
  118OSM   H15T12436   4.253   3.210   9.921 -2.0400  0.1910 -0.5281
  118OSM   C16S12437   4.329   3.277   9.718 -0.0539  0.2693 -0.4922
  118OSM   H16S12438   4.410   3.203   9.732 -1.3819 -0.7572  2.0166
  118OSM   H16T12439   4.374   3.368   9.673  0.3543  1.1989  1.7374
  118OSM   C17S12440   4.219   3.220   9.633  0.8331  0.0045  0.1516
  118OSM   H17S12441   4.155   3.303   9.598  0.9231  0.7996  1.8011
  118OSM   H17T12442   4.154   3.143   9.681 -0.0199 -0.3049 -1.4763
  118OSM   C18S12443   4.274   3.153   9.504  0.5710 -0.0114 -0.7038
  118OSM   H18S12444   4.328   3.230   9.445 -0.3115 -0.0127 -1.5200
  118OSM   H18T12445   4.196   3.112   9.436 -0.4100  0.8253 -0.0969
  118OSM   H18U12446   4.337   3.068   9.539 -0.0348  0.4024  1.5208
  118OSM    C1F12447   4.997   3.685  10.472 -0.3093 -0.0029  0.1088
  118OSM     OF12448   5.048   3.574  10.467  0.5032 -0.4395  0.3268
  118OSM    C2F12449   5.014   3.773  10.355  0.3226 -0.3995  0.2699
  118OSM    H2F12450   5.123   3.795  10.356  0.3791 -0.5052 -1.4733
  118OSM    H2G12451   4.957   3.868  10.362 -0.9259 -0.8641 -2.9976
  118OSM    C3F12452   4.983   3.708  10.220 -0.1039 -0.7944 -0.3048
  118OSM    H3F12453   5.035   3.610  10.218  2.2502  0.4064 -1.5261
  118OSM    H3G12454   5.036   3.768  10.142 -0.4979  0.5889  0.4708
  118OSM    C4F12455   4.835   3.700  10.186 -0.8887 -0.2819 -0.9054
  118OSM    H4F12456   4.799   3.803  10.206 -1.2198 -0.3467 -1.1612
  118OSM    H4G12457   4.782   3.626  10.250  0.3601  0.0019  0.4816
  118OSM    C5F12458   4.796   3.651  10.037 -0.4140 -0.0145  0.2031
  118OSM    H5F12459   4.814   3.543  10.021  2.5479  0.6851 -1.4742
  118OSM    H5G12460   4.866   3.704   9.970  0.8736 -0.2082  1.3759
  118OSM    C6F12461   4.651   3.696   9.996  0.3384 -0.3866  0.1857
  118OSM    H6F12462   4.636   3.804  10.020  1.4002 -0.0167 -0.7636
  118OSM    H6G12463   4.570   3.653  10.059 -0.2272 -1.2173 -1.0974
  118OSM    C7F12464   4.613   3.674   9.849 -0.7571 -0.3201 -0.4911
  118OSM    H7F12465   4.507   3.700   9.827 -0.9900 -2.3374 -1.8672
  118OSM    H7G12466   4.624   3.564   9.836 -3.2869 -0.5900 -0.5856
  118OSM    C8F12467   4.709   3.732   9.739 -1.2032 -0.7186 -0.2167
  118OSM    H8F12468   4.703   3.695   9.635 -1.4691  1.2965 -0.9535
  118OSM    H8G12469   4.814   3.713   9.767 -0.0730  2.6274 -1.8987
  118OSM    C9F12470   4.693   3.882   9.727  0.3487 -0.5952 -0.2994
  118OSM    H9F12471   4.743   3.945   9.803 -0.5455  1.0849 -1.0678
  118OSM   C10F12472   4.606   3.946   9.642  0.8518  0.2215  0.3877
  118OSM   H10F12473   4.581   4.052   9.655 -1.1204 -0.2787  0.8518
  118OSM   C11F12474   4.512   3.888   9.540  0.1068  0.5731 -0.6301
  118OSM   H11F12475   4.406   3.888   9.575  0.8881  0.6103  1.8167
  118OSM   H11G12476   4.531   3.779   9.525 -3.3104  0.0312 -1.4785
  118OSM   C12F12477   4.520   3.957   9.404 -0.2905  0.3104 -0.6875
  118OSM   H12F12478   4.556   4.061   9.423  0.3715 -0.1782  0.7560
  118OSM   H12G12479   4.417   3.972   9.364 -1.3530 -1.9335  1.1087
  118OSM   C13F12480   4.614   3.891   9.302  0.0592  0.8729  0.1582
  118OSM   H13F12481   4.580   3.786   9.289 -0.0898  0.8311  0.8392
  118OSM   H13G12482   4.716   3.880   9.344  0.3404  0.6908 -0.5762
  118OSM   C14F12483   4.615   3.965   9.167  0.3626  0.3748  0.3169
  118OSM   H14F12484   4.678   4.056   9.170  0.7518  0.2155 -1.8794
  118OSM   H14G12485   4.510   3.977   9.133  0.5380 -2.2018 -1.2986
  118OSM   C15F12486   4.670   3.864   9.062 -0.5367  0.2422  0.1990
  118OSM   H15F12487   4.602   3.777   9.069 -0.1169 -0.1021  0.0145
  118OSM   H15G12488   4.763   3.811   9.090 -0.6858 -0.7242 -1.0863
  118OSM   C16F12489   4.675   3.930   8.922  0.3538  0.8969 -1.1979
  118OSM   H16F12490   4.783   3.932   8.895  1.3419 -3.5343  1.8147
  118OSM   H16G12491   4.633   4.031   8.907 -0.1033  0.5445 -2.3531
  118OSM   C17F12492   4.590   3.859   8.818  0.2132  0.0748  0.2558
  118OSM   H17F12493   4.482   3.863   8.844  0.1291 -1.7330  0.2280
  118OSM   H17G12494   4.616   3.751   8.821 -0.6114 -0.1227  0.4721
  118OSM   C18F12495   4.595   3.917   8.678 -0.3726 -0.3306  0.3551
  118OSM   H18F12496   4.555   3.838   8.610 -0.8988 -1.2704  1.7476
  118OSM   H18G12497   4.703   3.935   8.656 -0.7440 -0.1461 -1.4402
  118OSM   H18H12498   4.529   4.005   8.670 -0.2169 -0.0928  1.6621
  119OSM      N12499   6.401   2.629  10.969  0.0142 -0.0177  0.8582
  119OSM    C1512500   6.464   2.506  10.918 -0.2706 -0.6604 -0.4448
  119OSM   H15A12501   6.528   2.517  10.832 -0.6431 -0.2148 -0.6697
  119OSM   H15B12502   6.403   2.420  10.897 -0.9382 -0.8935  2.1975
  119OSM   H15C12503   6.541   2.476  10.988 -1.2677 -1.1046  0.4777
  119OSM    C1412504   6.309   2.599  11.075 -0.3827 -0.0606 -0.2360
  119OSM   H14A12505   6.305   2.686  11.139  2.0842  0.8710 -1.2804
  119OSM   H14B12506   6.335   2.515  11.137 -1.5571 -1.6692 -1.8829
  119OSM   H14C12507   6.212   2.580  11.033 -0.2364  0.5893 -0.8941
  119OSM    C1312508   6.519   2.713  11.010  0.1402  0.0977 -0.1848
  119OSM   H13A12509   6.561   2.666  11.097  0.9702 -0.6149 -0.9617
  119OSM   H13B12510   6.492   2.816  11.027  1.6456  0.4560  0.0441
  119OSM   H13C12511   6.589   2.735  10.931 -0.5892  1.0720 -0.5690
  119OSM    C1212512   6.322   2.700  10.851 -0.1553 -0.5429  0.2528
  119OSM   H12A12513   6.396   2.730  10.779 -1.5432  1.8620 -0.2070
  119OSM   H12B12514   6.273   2.783  10.900  0.9031  1.2417 -1.6268
  119OSM    C1112515   6.221   2.611  10.771  0.4807 -0.8283 -0.1222
  119OSM   H11A12516   6.287   2.526  10.744  2.1286  0.1784  0.7091
  119OSM   H11B12517   6.178   2.677  10.692  0.8293  0.9633  1.1523
  119OSM      P12518   5.998   2.668  10.889 -0.3313 -0.1498 -0.3277
  119OSM    O1312519   5.916   2.596  10.989  0.3198 -0.5274  0.4136
  119OSM    O1412520   6.052   2.805  10.914 -0.0266 -0.1386 -0.7910
  119OSM    O1112521   5.919   2.682  10.757  0.2193 -0.0828 -0.6694
  119OSM    O1212522   6.116   2.574  10.861  0.2301 -0.3380 -0.2340
  119OSM    C1S12523   5.809   2.600  10.713 -0.4615  0.2533 -0.7201
  119OSM    H1S12524   5.718   2.618  10.774 -0.6761  0.9996 -1.2573
  119OSM    H1T12525   5.828   2.492  10.730  0.5446  1.0137  3.7379
  119OSM     NF12526   5.627   2.586  10.539  0.1449 -0.3828  1.0878
  119OSM    HNF12527   5.614   2.491  10.511  0.9915 -0.2088  0.0991
  119OSM    C2S12528   5.764   2.640  10.564 -0.8376  0.5607 -0.2680
  119OSM    H2S12529   5.761   2.751  10.553 -0.4543  1.0352  3.8056
  119OSM    C3S12530   5.872   2.593  10.458  0.1463  0.1436  0.4917
  119OSM    H3S12531   5.906   2.487  10.460  2.9469  1.0418  2.3776
  119OSM     O312532   5.985   2.664  10.490  0.3524 -0.4448  0.6645
  119OSM    HO312533   5.955   2.725  10.557 -1.8964 -1.6279  0.7821
  119OSM    C4S12534   5.823   2.636  10.324 -0.5244  0.0636  0.4769
  119OSM    H4S12535   5.753   2.562  10.283 -1.5599  0.5891  1.2758
  119OSM    C5S12536   5.846   2.748  10.260 -0.3142 -0.0650 -0.6492
  119OSM    H5S12537   5.916   2.819  10.307  1.0900 -1.1189 -1.1525
  119OSM    C6S12538   5.805   2.773  10.120  0.6678  0.7248  1.0734
  119OSM    H6S12539   5.752   2.869  10.101 -1.2634 -0.5689 -0.3053
  119OSM    H6T12540   5.749   2.686  10.082  0.9155 -0.0345  2.4294
  119OSM    C7S12541   5.921   2.789  10.030  0.1517  0.4042 -0.0963
  119OSM    H7S12542   5.987   2.699  10.036  0.3545  0.5644  0.0646
  119OSM    H7T12543   5.979   2.873  10.073 -0.7526  1.0876 -0.2074
  119OSM    C8S12544   5.880   2.843   9.887 -0.3542  0.5448 -0.5068
  119OSM    H8S12545   5.970   2.850   9.822  0.4904 -0.0095  0.5807
  119OSM    H8T12546   5.832   2.943   9.895  1.3632  1.2017  2.4451
  119OSM    C9S12547   5.788   2.740   9.827 -0.0835  0.3040  0.2068
  119OSM    H9S12548   5.697   2.739   9.891 -2.6923 -0.2180 -3.3511
  119OSM    H9T12549   5.833   2.639   9.827  0.3505  0.5013 -0.4600
  119OSM   C10S12550   5.745   2.792   9.686  0.1589 -0.2158  0.1959
  119OSM   H10S12551   5.690   2.716   9.628 -1.7846 -0.2556  2.0256
  119OSM   H10T12552   5.830   2.822   9.621 -2.8410  0.8326 -3.3586
  119OSM   C11S12553   5.644   2.912   9.695 -0.4854 -0.9568 -0.7833
  119OSM   H11S12554   5.700   2.994   9.745 -0.6954 -2.5944  2.3056
  119OSM   H11T12555   5.554   2.898   9.759  1.6838 -2.6004  2.0494
  119OSM   C12S12556   5.598   2.965   9.555  0.4927 -0.6220  0.2014
  119OSM   H12S12557   5.681   3.015   9.500  0.3295 -0.2404  0.2977
  119OSM   H12T12558   5.524   3.042   9.585 -1.3964 -2.3554  0.0357
  119OSM   C13S12559   5.525   2.877   9.456 -0.0346 -0.5076 -1.0675
  119OSM   H13S12560   5.452   2.837   9.530  1.6895 -1.2422  0.2985
  119OSM   H13T12561   5.593   2.798   9.418  0.0717 -0.0376 -1.8522
  119OSM   C14S12562   5.450   2.946   9.340 -0.0613  0.1322  0.1538
  119OSM   H14S12563   5.403   3.038   9.382  1.8241  0.6526  1.2079
  119OSM   H14T12564   5.370   2.878   9.306  0.1736 -0.2138  0.2904
  119OSM   C15S12565   5.530   2.976   9.204  0.7622 -0.1986  0.0346
  119OSM   H15S12566   5.567   2.880   9.162  0.0197  0.6194 -2.5375
  119OSM   H15T12567   5.617   3.043   9.224 -1.6770  2.3604  2.6507
  119OSM   C16S12568   5.431   3.026   9.103 -0.6009  0.0050  0.6003
  119OSM   H16S12569   5.370   3.109   9.145 -2.4832 -1.2885  0.4869
  119OSM   H16T12570   5.358   2.948   9.072 -0.2696  0.7342 -2.2039
  119OSM   C17S12571   5.497   3.071   8.970  0.6776 -0.2546  0.6191
  119OSM   H17S12572   5.576   2.997   8.947 -1.3350 -2.7216  1.4877
  119OSM   H17T12573   5.538   3.174   8.979  0.3067  0.0334 -0.7904
  119OSM   C18S12574   5.396   3.072   8.858  0.7453  0.1028  0.0454
  119OSM   H18S12575   5.461   3.052   8.770  0.7278  0.9566 -0.1680
  119OSM   H18T12576   5.334   3.164   8.850  1.2526  0.3517 -1.2525
  119OSM   H18U12577   5.328   2.987   8.880  1.1192  0.0667  1.0505
  119OSM    C1F12578   5.516   2.654  10.570 -0.0521 -1.1043 -0.9065
  119OSM     OF12579   5.525   2.764  10.626  0.0171  0.3668  0.0847
  119OSM    C2F12580   5.379   2.598  10.539 -0.6233 -0.3906 -0.2949
  119OSM    H2F12581   5.327   2.593  10.637 -1.2887 -2.0005 -0.7193
  119OSM    H2G12582   5.399   2.502  10.487  1.8375  0.7254 -1.4814
  119OSM    C3F12583   5.297   2.696  10.452 -0.2262  0.1759  0.1653
  119OSM    H3F12584   5.273   2.789  10.507 -2.6988 -0.4042  0.1416
  119OSM    H3G12585   5.202   2.640  10.434 -0.3102  1.0144 -2.1094
  119OSM    C4F12586   5.345   2.726  10.312  0.1428  0.0907  0.4095
  119OSM    H4F12587   5.450   2.759  10.324 -0.1854  2.0431 -1.6227
  119OSM    H4G12588   5.280   2.806  10.269  1.4700  0.4917 -0.8934
  119OSM    C5F12589   5.333   2.600  10.221  0.3511 -0.8258  0.4945
  119OSM    H5F12590   5.223   2.596  10.206  0.2830 -1.4551  1.1908
  119OSM    H5G12591   5.372   2.507  10.266 -0.5533 -0.9062  1.1223
  119OSM    C6F12592   5.405   2.622  10.088  0.3171 -0.3470  0.5028
  119OSM    H6F12593   5.511   2.612  10.118  0.0723 -2.4294  0.7201
  119OSM    H6G12594   5.378   2.721  10.045 -0.2115 -1.4048 -1.6621
  119OSM    C7F12595   5.384   2.508   9.986  0.1289 -0.1668  0.0081
  119OSM    H7F12596   5.277   2.500   9.958 -0.0093 -0.3339  0.5813
  119OSM    H7G12597   5.423   2.410  10.023  1.2429  1.5800  3.6743
  119OSM    C8F12598   5.465   2.541   9.858 -0.5216  0.0871  0.6636
  119OSM    H8F12599   5.565   2.576   9.890 -0.2935 -0.9455  1.0919
  119OSM    H8G12600   5.407   2.624   9.811  0.4152  0.8384  0.8237
  119OSM    C9F12601   5.478   2.419   9.767 -0.3472 -0.5745 -0.5077
  119OSM    H9F12602   5.556   2.358   9.815  0.0612  0.5987  0.3667
  119OSM   C10F12603   5.430   2.383   9.646 -0.0998  0.0875  0.0657
  119OSM   H10F12604   5.462   2.287   9.603 -0.6650 -1.0003  2.0202
  119OSM   C11F12605   5.335   2.468   9.568 -0.3830 -0.1581 -0.2398
  119OSM   H11F12606   5.299   2.547   9.638 -0.1075 -1.5963  1.5771
  119OSM   H11G12607   5.249   2.420   9.518  0.4566 -0.3078 -1.5495
  119OSM   C12F12608   5.410   2.541   9.454  0.1010 -0.5651 -0.8893
  119OSM   H12F12609   5.495   2.605   9.484 -0.1847 -0.3476 -0.5443
  119OSM   H12G12610   5.337   2.615   9.414  2.7158  1.9481 -1.1432
  119OSM   C13F12611   5.439   2.450   9.336 -0.5560  0.2084 -0.5714
  119OSM   H13F12612   5.357   2.379   9.314  1.6801 -3.0080  1.0005
  119OSM   H13G12613   5.527   2.385   9.357 -0.9892 -0.9225 -2.1811
  119OSM   C14F12614   5.460   2.526   9.205 -0.4167 -0.4115  0.1725
  119OSM   H14F12615   5.560   2.575   9.205  0.1566 -1.5611  0.2654
  119OSM   H14G12616   5.379   2.602   9.201 -0.8809 -0.6451  3.5563
  119OSM   C15F12617   5.450   2.432   9.083  0.2967 -0.0911  0.5111
  119OSM   H15F12618   5.346   2.393   9.081 -0.0974  0.9816 -0.1813
  119OSM   H15G12619   5.523   2.348   9.079  3.2070  2.2577  1.7803
  119OSM   C16F12620   5.468   2.514   8.952 -0.5665 -0.4906 -0.9152
  119OSM   H16F12621   5.471   2.435   8.873 -2.8517 -0.3579 -1.1654
  119OSM   H16G12622   5.570   2.558   8.958 -0.2852 -1.0475 -1.5049
  119OSM   C17F12623   5.365   2.627   8.924 -0.0982  0.0279  0.0784
  119OSM   H17F12624   5.343   2.681   9.018 -0.2194 -3.9505  2.4283
  119OSM   H17G12625   5.274   2.572   8.893  1.0106 -2.0035  0.3677
  119OSM   C18F12626   5.410   2.715   8.806 -0.8593 -0.1114 -0.9507
  119OSM   H18F12627   5.341   2.796   8.775  0.4528  1.3412 -0.1218
  119OSM   H18G12628   5.427   2.656   8.713 -0.4555  2.3353 -2.4644
  119OSM   H18H12629   5.510   2.756   8.830 -1.1281  0.3721 -0.6542
  120OSM      N12630   4.985   6.432  10.779  0.2985 -0.3213 -0.4942
  120OSM    C1512631   5.031   6.494  10.650  0.5279  0.2280  0.3561
  120OSM   H15A12632   4.938   6.493  10.595  0.6234 -2.1166  0.1862
  120OSM   H15B12633   5.090   6.418  10.602 -1.4235 -2.6084  2.2879
  120OSM   H15C12634   5.063   6.596  10.663  4.1132 -0.8303  0.1343
  120OSM    C1412635   5.090   6.447  10.889 -0.4584  0.9639 -0.3990
  120OSM   H14A12636   5.130   6.547  10.888 -1.5497  1.4229  0.9713
  120OSM   H14B12637   5.183   6.396  10.865 -1.1936 -0.6103  0.0338
  120OSM   H14C12638   5.069   6.425  10.993  0.0491  1.4208 -0.1991
  120OSM    C1312639   4.859   6.511  10.823 -0.1069 -0.4777 -0.3383
  120OSM   H13A12640   4.777   6.500  10.753 -0.0265  0.5655 -0.6103
  120OSM   H13B12641   4.877   6.615  10.844  0.8268 -0.6902 -0.0461
  120OSM   H13C12642   4.824   6.462  10.913  0.9225 -1.6359 -0.5596
  120OSM    C1212643   4.954   6.284  10.763  0.6505 -0.4971 -0.0469
  120OSM   H12A12644   4.937   6.233  10.857  0.8387  2.5728  1.7223
  120OSM   H12B12645   5.032   6.222  10.722  0.9825 -0.2374  0.1913
  120OSM    C1112646   4.831   6.252  10.679  0.1084 -0.5437  0.1020
  120OSM   H11A12647   4.745   6.307  10.723  1.2696  0.6604  0.9108
  120OSM   H11B12648   4.803   6.146  10.691  2.8119 -1.1827  1.2538
  120OSM      P12649   4.894   6.204  10.431  0.1258 -0.1529  0.5510
  120OSM    O1312650   5.030   6.149  10.472 -0.4736  0.1491  0.0078
  120OSM    O1412651   4.795   6.102  10.397 -0.0430 -0.3430  0.1091
  120OSM    O1112652   4.925   6.290  10.307 -0.3320  0.0603  0.4575
  120OSM    O1212653   4.845   6.303  10.543  0.3959 -0.2528 -0.4422
  120OSM    C1S12654   5.005   6.409  10.334 -0.0921 -0.1475  0.2776
  120OSM    H1S12655   5.099   6.380  10.385  1.6260 -2.0296 -3.7765
  120OSM    H1T12656   4.944   6.484  10.389 -1.5804 -2.1848  1.4927
  120OSM     NF12657   5.128   6.592  10.231 -0.0291 -0.0015 -0.7132
  120OSM    HNF12658   5.084   6.680  10.249  3.8316  2.3023 -2.0790
  120OSM    C2S12659   5.040   6.482  10.202  0.2791 -0.8142  0.3686
  120OSM    H2S12660   5.101   6.410  10.144  1.0736 -0.1850  0.4277
  120OSM    C3S12661   4.922   6.519  10.115 -0.3636 -0.0435 -0.4983
  120OSM    H3S12662   4.858   6.586  10.177  0.9767 -1.2264  2.2762
  120OSM     O312663   4.837   6.403  10.077 -0.5867 -0.2293 -0.3988
  120OSM    HO312664   4.872   6.345  10.145  0.2250  0.7143  0.0005
  120OSM    C4S12665   4.963   6.590   9.991 -0.7730  0.5103  0.5033
  120OSM    H4S12666   4.958   6.700  10.001  1.9332  0.7937 -0.9093
  120OSM    C5S12667   5.013   6.547   9.880 -0.5599 -0.4240 -1.5801
  120OSM    H5S12668   5.028   6.438   9.868  0.1947 -0.7488  1.7892
  120OSM    C6S12669   5.061   6.631   9.771  0.2176 -0.1164 -0.1300
  120OSM    H6S12670   5.023   6.596   9.673  1.1688 -0.8586 -0.2542
  120OSM    H6T12671   5.171   6.615   9.766 -0.0537 -2.4462  0.8471
  120OSM    C7S12672   5.029   6.785   9.770 -0.5205  0.2346 -0.1892
  120OSM    H7S12673   5.075   6.841   9.854 -1.7674  1.2362 -0.1560
  120OSM    H7T12674   4.919   6.791   9.787 -0.7717 -4.5017  0.5821
  120OSM    C8S12675   5.047   6.845   9.625  0.4064  0.3679  0.1694
  120OSM    H8S12676   5.004   6.947   9.630  1.5863  1.1720 -4.3625
  120OSM    H8T12677   4.976   6.798   9.554 -0.4862  0.3840  1.0365
  120OSM    C9S12678   5.194   6.861   9.584  0.2549 -0.2708  0.1381
  120OSM    H9S12679   5.252   6.767   9.572  0.0838 -0.7351  2.5667
  120OSM    H9T12680   5.244   6.924   9.661  1.3488 -0.0928 -0.7008
  120OSM   C10S12681   5.206   6.931   9.446  0.2741  0.8476 -0.1958
  120OSM   H10S12682   5.312   6.963   9.442  1.4314 -2.6048  1.1315
  120OSM   H10T12683   5.140   7.020   9.437  1.0411  1.3445 -1.0362
  120OSM   C11S12684   5.190   6.835   9.328 -0.0624 -0.6033 -0.3450
  120OSM   H11S12685   5.085   6.823   9.294 -0.3448  0.0495  0.2864
  120OSM   H11T12686   5.218   6.731   9.356  0.0963 -0.6792 -0.7835
  120OSM   C12S12687   5.276   6.885   9.204 -0.3684  0.5155  0.0882
  120OSM   H12S12688   5.380   6.864   9.237 -1.2083 -0.4056  2.2926
  120OSM   H12T12689   5.253   6.993   9.192  0.0264  0.7748  1.5388
  120OSM   C13S12690   5.236   6.805   9.075  0.1566 -0.5152 -0.2404
  120OSM   H13S12691   5.127   6.823   9.062 -0.1222 -1.3792  0.8206
  120OSM   H13T12692   5.238   6.695   9.088 -1.7910 -0.6965 -1.4407
  120OSM   C14S12693   5.329   6.839   8.955  0.0515  0.6758 -0.1139
  120OSM   H14S12694   5.431   6.825   8.997 -0.8570 -1.1791  1.5435
  120OSM   H14T12695   5.317   6.948   8.937  0.8887  0.6362 -0.9634
  120OSM   C15S12696   5.306   6.746   8.836 -0.5665 -0.5012 -0.8360
  120OSM   H15S12697   5.204   6.767   8.795 -0.7941 -2.6411 -1.4563
  120OSM   H15T12698   5.311   6.640   8.871  0.4950 -0.7572 -1.7427
  120OSM   C16S12699   5.429   6.762   8.743  0.5111  0.8054  0.6732
  120OSM   H16S12700   5.403   6.708   8.649  1.0672  2.3441 -0.3877
  120OSM   H16T12701   5.520   6.719   8.789  0.0792  0.4669  1.2152
  120OSM   C17S12702   5.448   6.915   8.717 -0.0448 -0.6088  0.1377
  120OSM   H17S12703   5.488   6.962   8.809  2.3108 -1.2872 -0.5086
  120OSM   H17T12704   5.350   6.963   8.695  1.4172  2.1060 -0.6724
  120OSM   C18S12705   5.552   6.930   8.606  0.4143  0.1612 -0.9682
  120OSM   H18S12706   5.514   6.884   8.512  0.4478 -0.3053 -0.7552
  120OSM   H18T12707   5.642   6.880   8.647  0.6513  0.0390 -1.6233
  120OSM   H18U12708   5.564   7.040   8.599  0.1590  0.2561 -0.0310
  120OSM    C1F12709   5.257   6.588  10.254 -0.3716 -0.2503 -0.3471
  120OSM     OF12710   5.324   6.485  10.252 -0.3350  0.1308 -0.2450
  120OSM    C2F12711   5.324   6.712  10.286  0.8585  0.4510  0.0631
  120OSM    H2F12712   5.419   6.696  10.341  0.3525 -0.0421  0.7960
  120OSM    H2G12713   5.260   6.761  10.363  1.9736  1.4450  0.3705
  120OSM    C3F12714   5.360   6.791  10.159  0.0996  0.1409  0.3901
  120OSM    H3F12715   5.271   6.827  10.104  0.7218  2.3770  0.8106
  120OSM    H3G12716   5.402   6.712  10.093 -1.4661 -2.0978  1.9901
  120OSM    C4F12717   5.467   6.890  10.185  0.0717 -0.2375  0.5588
  120OSM    H4F12718   5.556   6.843  10.231  0.0245  0.2045  1.1055
  120OSM    H4G12719   5.443   6.971  10.258  1.8809  1.7841 -1.0235
  120OSM    C5F12720   5.507   6.962  10.061  0.3911 -0.2367 -0.6358
  120OSM    H5F12721   5.581   7.043  10.081  0.1594 -0.1283 -0.2208
  120OSM    H5G12722   5.413   7.001  10.017  0.2203  0.6089  0.4632
  120OSM    C6F12723   5.583   6.868   9.951 -0.8599  0.1433  0.3159
  120OSM    H6F12724   5.503   6.803   9.909 -1.5035  2.6702 -2.5287
  120OSM    H6G12725   5.666   6.808   9.995 -1.0227  1.8272  2.9991
  120OSM    C7F12726   5.633   6.954   9.833 -0.3796 -0.5466 -0.4543
  120OSM    H7F12727   5.714   7.019   9.873 -0.6395 -0.4570 -0.0636
  120OSM    H7G12728   5.549   7.023   9.811  1.3579  2.1704  1.1723
  120OSM    C8F12729   5.687   6.872   9.708  0.5064 -0.4002 -0.0422
  120OSM    H8F12730   5.731   6.781   9.753  0.5901 -0.5411 -0.4045
  120OSM    H8G12731   5.772   6.927   9.661  0.7968 -1.6764 -1.0545
  120OSM    C9F12732   5.579   6.843   9.609 -1.2258  0.3860  0.3353
  120OSM    H9F12733   5.499   6.773   9.637 -0.7115  0.0376  0.9614
  120OSM   C10F12734   5.579   6.886   9.486  0.5211  0.9266 -0.7207
  120OSM   H10F12735   5.486   6.865   9.431 -0.8935  1.4711  1.4378
  120OSM   C11F12736   5.685   6.968   9.414 -0.6849 -0.1057  0.1552
  120OSM   H11F12737   5.779   6.978   9.473  0.5118  1.0769 -1.8780
  120OSM   H11G12738   5.662   7.074   9.392 -2.5645 -0.5610 -0.1581
  120OSM   C12F12739   5.723   6.901   9.283  0.0159  0.1634 -0.6804
  120OSM   H12F12740   5.630   6.883   9.225  0.6157 -3.9442 -0.5119
  120OSM   H12G12741   5.775   6.805   9.307  0.5204 -0.2509 -3.3092
  120OSM   C13F12742   5.824   6.993   9.198  0.6770  0.1171 -0.4012
  120OSM   H13F12743   5.920   7.019   9.248  0.1473  2.8908 -0.7575
  120OSM   H13G12744   5.771   7.090   9.188  0.5668  0.2266  1.0383
  120OSM   C14F12745   5.864   6.924   9.063 -0.9712  0.0987  0.4734
  120OSM   H14F12746   5.767   6.894   9.017 -1.0945  0.3774  0.5439
  120OSM   H14G12747   5.915   6.829   9.087  1.6345  1.6802  1.4738
  120OSM   C15F12748   5.936   6.999   8.953 -0.0496  0.2461 -0.1570
  120OSM   H15F12749   6.043   7.020   8.976  0.1014 -1.2337  0.5514
  120OSM   H15G12750   5.894   7.101   8.948 -0.4766 -0.0303 -4.1130
  120OSM   C16F12751   5.917   6.937   8.817  0.0130 -0.8381 -0.2963
  120OSM   H16F12752   5.807   6.927   8.801 -0.4483 -0.1585  2.2291
  120OSM   H16G12753   5.957   6.834   8.831 -0.1990 -0.9103 -0.2089
  120OSM   C17F12754   5.996   6.997   8.706 -0.7659  0.2756  1.2536
  120OSM   H17F12755   6.106   6.998   8.715 -0.5441 -0.7760 -1.0291
  120OSM   H17G12756   5.967   7.103   8.687 -0.2954  0.2947  0.6241
  120OSM   C18F12757   5.973   6.930   8.572  0.5553  0.3447  0.2411
  120OSM   H18F12758   6.001   6.823   8.576  0.8335  0.4242  0.3900
  120OSM   H18G12759   6.028   6.990   8.497 -2.3760  0.7622 -1.6691
  120OSM   H18H12760   5.868   6.937   8.537  0.5805 -0.5211 -0.0347
  121OSM      N12761   3.755   3.324  10.756 -0.5216  0.0494 -0.3319
  121OSM    C1512762   3.642   3.219  10.734  0.3504  0.0772 -0.4790
  121OSM   H15A12763   3.668   3.140  10.666  1.8227  0.6768 -0.6393
  121OSM   H15B12764   3.546   3.262  10.708 -0.0254 -0.4723 -0.0009
  121OSM   H15C12765   3.630   3.173  10.831 -0.0904  3.9877  1.4447
  121OSM    C1412766   3.774   3.402  10.634 -0.3421 -0.6336  0.1652
  121OSM   H14A12767   3.855   3.473  10.645  0.1956 -1.0913 -0.7712
  121OSM   H14B12768   3.685   3.461  10.618 -1.2680 -2.1997 -0.5192
  121OSM   H14C12769   3.797   3.340  10.548 -1.1532 -1.0944  0.2765
  121OSM    C1312770   3.694   3.408  10.865 -0.1037 -0.4510 -0.0824
  121OSM   H13A12771   3.756   3.494  10.890 -0.2115 -0.5483  0.5220
  121OSM   H13B12772   3.691   3.345  10.953 -0.4149  0.9493  0.9304
  121OSM   H13C12773   3.598   3.436  10.824 -0.2553  0.0697  0.6172
  121OSM    C1212774   3.881   3.256  10.810 -0.5526  0.4936  0.1607
  121OSM   H12A12775   3.859   3.232  10.913  1.6304 -1.7722  0.1367
  121OSM   H12B12776   3.969   3.318  10.809 -0.0840 -0.1559  1.0002
  121OSM    C1112777   3.934   3.122  10.744  0.1771 -0.0890  0.5067
  121OSM   H11A12778   4.030   3.093  10.791 -0.5606 -3.8736 -0.2283
  121OSM   H11B12779   3.961   3.159  10.643  0.6038  0.6344  0.8780
  121OSM      P12780   3.824   2.904  10.827  0.3078 -0.2399 -0.3430
  121OSM    O1312781   3.814   2.961  10.963  0.0684 -0.1804  0.5749
  121OSM    O1412782   3.716   2.820  10.780 -0.7353 -0.1409  0.0824
  121OSM    O1112783   3.959   2.832  10.800 -0.2724 -0.7475  0.0058
  121OSM    O1212784   3.832   3.023  10.723  0.1504 -0.1360 -0.4190
  121OSM    C1S12785   3.995   2.746  10.690 -0.0130  0.0383 -0.1727
  121OSM    H1S12786   3.904   2.718  10.632  0.7186 -1.2692 -0.6885
  121OSM    H1T12787   4.045   2.656  10.729 -0.3606  0.4898  1.3537
  121OSM     NF12788   4.096   2.737  10.463  0.3175  0.4872  0.1883
  121OSM    HNF12789   4.168   2.670  10.454  1.4272  1.6777  0.0262
  121OSM    C2S12790   4.089   2.804  10.593  0.6258 -0.2009 -0.2187
  121OSM    H2S12791   4.052   2.908  10.577  2.9812  0.4729 -1.5197
  121OSM    C3S12792   4.228   2.827  10.667  0.4669  0.7935 -0.1617
  121OSM    H3S12793   4.261   2.725  10.697 -0.8548  0.0916 -1.0862
  121OSM     O312794   4.219   2.896  10.792 -0.1864 -0.1013  0.1181
  121OSM    HO312795   4.123   2.904  10.799 -0.4350 -1.3437 -1.7845
  121OSM    C4S12796   4.332   2.896  10.589 -0.4361  0.4571  0.8483
  121OSM    H4S12797   4.313   3.003  10.574 -1.1526  0.2219  0.0147
  121OSM    C5S12798   4.435   2.836  10.529  0.8888  0.3604 -0.5976
  121OSM    H5S12799   4.438   2.726  10.536 -1.8104  0.2367 -0.9751
  121OSM    C6S12800   4.548   2.888  10.451 -0.3361  0.7761 -0.2505
  121OSM    H6S12801   4.645   2.843  10.481 -1.4521 -2.3530 -1.1521
  121OSM    H6T12802   4.546   2.999  10.452  0.5029  0.8708 -3.2768
  121OSM    C7S12803   4.538   2.846  10.303 -0.1580 -0.3181  0.2233
  121OSM    H7S12804   4.521   2.736  10.300 -0.6720 -0.2092 -1.7740
  121OSM    H7T12805   4.631   2.876  10.250 -0.2643 -0.4875 -0.0603
  121OSM    C8S12806   4.422   2.913  10.235 -0.1986 -0.2805  0.4073
  121OSM    H8S12807   4.437   3.023  10.249  1.4008 -0.4698  0.2753
  121OSM    H8T12808   4.331   2.881  10.289 -1.5091  0.9622 -1.0084
  121OSM    C9S12809   4.402   2.871  10.081 -0.0402 -0.6643  0.1314
  121OSM    H9S12810   4.309   2.928  10.057  0.2219 -1.4140 -2.8343
  121OSM    H9T12811   4.368   2.765  10.081 -0.4608 -0.5321 -0.1015
  121OSM   C10S12812   4.521   2.889   9.996  0.3481 -0.5074  0.2254
  121OSM   H10S12813   4.589   2.805  10.019 -0.1404 -1.1341 -0.5643
  121OSM   H10T12814   4.558   2.990  10.024 -2.1266  0.1553  1.3120
  121OSM   C11S12815   4.500   2.891   9.846 -0.2238  0.7004  0.2500
  121OSM   H11S12816   4.416   2.954   9.808 -1.1733  0.5691  2.0766
  121OSM   H11T12817   4.465   2.791   9.812  1.5657  0.7290 -1.7944
  121OSM   C12S12818   4.629   2.912   9.762 -0.4082 -0.4732  0.5966
  121OSM   H12S12819   4.712   2.845   9.793 -0.2817 -0.3274  0.5724
  121OSM   H12T12820   4.671   3.010   9.792 -0.6661  0.0998 -0.8833
  121OSM   C13S12821   4.607   2.908   9.605  0.4064 -0.5586 -0.2094
  121OSM   H13S12822   4.698   2.940   9.549  0.9817  1.5476  1.8525
  121OSM   H13T12823   4.531   2.985   9.584  1.1032 -0.8114 -4.1773
  121OSM   C14S12824   4.553   2.776   9.548  0.7253  0.2400  0.5156
  121OSM   H14S12825   4.458   2.742   9.594  0.3598 -1.0008 -1.1352
  121OSM   H14T12826   4.623   2.691   9.558 -0.7437 -1.1981 -1.1120
  121OSM   C15S12827   4.527   2.780   9.391 -0.0924 -0.6400 -0.0486
  121OSM   H15S12828   4.631   2.809   9.366 -0.3024  0.6160  0.5374
  121OSM   H15T12829   4.475   2.872   9.359  0.8311 -0.3288 -0.6765
  121OSM   C16S12830   4.456   2.651   9.352  0.3270 -0.7820  1.0670
  121OSM   H16S12831   4.348   2.657   9.380 -0.0664 -2.0507 -0.0915
  121OSM   H16T12832   4.509   2.567   9.402 -0.4353 -0.1826  2.9401
  121OSM   C17S12833   4.479   2.626   9.200  0.2941  0.5188 -1.0025
  121OSM   H17S12834   4.407   2.683   9.138 -2.6311 -0.3481  1.4710
  121OSM   H17T12835   4.448   2.522   9.175  0.9097  0.5961 -2.1143
  121OSM   C18S12836   4.630   2.646   9.164  0.4446  0.6951  0.0368
  121OSM   H18S12837   4.659   2.753   9.174  0.1960  0.7502  0.1621
  121OSM   H18T12838   4.660   2.605   9.065 -0.1290 -1.4968  0.7425
  121OSM   H18U12839   4.695   2.612   9.247 -0.8844 -1.6277  0.1659
  121OSM    C1F12840   3.999   2.747  10.371 -0.5485 -0.3128  0.5492
  121OSM     OF12841   3.899   2.806  10.401  0.2908  0.0863  0.0202
  121OSM    C2F12842   4.009   2.673  10.242 -0.8634 -0.3058 -0.0919
  121OSM    H2F12843   3.923   2.602  10.243 -1.6801  0.6711  0.2548
  121OSM    H2G12844   4.101   2.612  10.239 -1.0811 -0.6658  0.4473
  121OSM    C3F12845   4.014   2.770  10.124  0.0496 -0.3367  0.0780
  121OSM    H3F12846   4.098   2.838  10.147  1.4223 -1.2943 -1.8815
  121OSM    H3G12847   3.915   2.820  10.114 -0.9145 -2.1340  0.2389
  121OSM    C4F12848   4.059   2.710   9.989 -0.1680  0.3266  0.6988
  121OSM    H4F12849   3.978   2.636   9.975  1.1808 -0.8756 -0.9466
  121OSM    H4G12850   4.154   2.656  10.010  0.0272  0.3308 -0.1716
  121OSM    C5F12851   4.073   2.806   9.874 -0.1809  0.1746  0.4581
  121OSM    H5F12852   4.150   2.881   9.902  0.2039 -0.3941  0.9196
  121OSM    H5G12853   3.984   2.872   9.872 -1.0693 -0.9707  1.5555
  121OSM    C6F12854   4.096   2.743   9.741 -0.0003  0.1537 -0.1163
  121OSM    H6F12855   4.013   2.669   9.738  0.5392 -0.3807 -2.8749
  121OSM    H6G12856   4.189   2.684   9.732 -0.4669 -0.2771 -2.1233
  121OSM    C7F12857   4.075   2.854   9.624  0.2954  0.7469 -0.8283
  121OSM    H7F12858   4.131   2.801   9.545 -1.2874  0.8333 -2.0192
  121OSM    H7G12859   4.141   2.940   9.651  1.3148 -1.0716  2.8187
  121OSM    C8F12860   3.930   2.897   9.590  0.3008 -0.0783 -0.3320
  121OSM    H8F12861   3.876   2.950   9.672 -1.9375  0.6023 -2.1829
  121OSM    H8G12862   3.883   2.799   9.570  0.0370 -0.3059  1.3567
  121OSM    C9F12863   3.894   2.978   9.463 -0.3159  0.6435 -0.0582
  121OSM    H9F12864   3.810   3.048   9.477 -0.4463  0.0196  2.4172
  121OSM   C10F12865   3.948   2.978   9.339 -0.0357  0.4874  0.5273
  121OSM   H10F12866   3.897   3.038   9.262 -0.4394 -1.3092 -0.6210
  121OSM   C11F12867   4.063   2.894   9.293  0.5125 -0.5296 -0.4060
  121OSM   H11F12868   4.059   2.798   9.348  1.3020  0.1800  0.9333
  121OSM   H11G12869   4.161   2.945   9.298  0.6840 -1.0080  1.4555
  121OSM   C12F12870   4.015   2.873   9.144  0.7724 -0.3536  0.3398
  121OSM   H12F12871   4.003   2.970   9.091 -1.0322  0.2866  1.8597
  121OSM   H12G12872   3.938   2.794   9.130  3.0308 -2.5310 -0.1580
  121OSM   C13F12873   4.143   2.816   9.073  0.1664 -0.6088  0.2631
  121OSM   H13F12874   4.156   2.711   9.105  2.5153  0.0554  1.6168
  121OSM   H13G12875   4.235   2.875   9.096  0.8081 -1.4893 -0.0371
  121OSM   C14F12876   4.135   2.830   8.914  0.6358  0.4412 -0.0412
  121OSM   H14F12877   4.217   2.762   8.880 -0.4002 -1.5649  1.3604
  121OSM   H14G12878   4.167   2.929   8.874  0.7268  0.1097 -0.8055
  121OSM   C15F12879   4.007   2.793   8.848  0.2926  0.3116  0.8612
  121OSM   H15F12880   3.933   2.867   8.886  0.2065  0.3613  0.6025
  121OSM   H15G12881   3.979   2.691   8.883 -0.6977  0.6833  1.1775
  121OSM   C16F12882   3.993   2.800   8.696  0.1588  0.0608  0.2230
  121OSM   H16F12883   3.911   2.730   8.673 -0.6361  1.1355 -0.2446
  121OSM   H16G12884   4.087   2.767   8.647  0.2831 -0.2395  0.6516
  121OSM   C17F12885   3.974   2.939   8.649  0.0770 -0.4382  0.1255
  121OSM   H17F12886   4.061   2.998   8.685 -1.4563  0.7181  2.0500
  121OSM   H17G12887   3.881   2.979   8.694  0.0211  0.5109 -0.8006
  121OSM   C18F12888   3.944   2.956   8.496 -0.3721 -0.2075 -0.4575
  121OSM   H18F12889   3.909   3.061   8.486  0.4999  0.0392 -1.0133
  121OSM   H18G12890   3.858   2.890   8.470 -0.3088 -0.4651 -0.0266
  121OSM   H18H12891   4.039   2.938   8.441 -1.1900 -0.8520 -1.6790
  122OSM      N12892   4.532   0.592  11.153 -0.3568 -0.2461  0.3685
  122OSM    C1512893   4.563   0.452  11.128 -0.4206  0.2562  0.3333
  122OSM   H15A12894   4.539   0.415  11.029 -1.6370 -1.5909  1.2940
  122OSM   H15B12895   4.528   0.379  11.199 -2.7488  0.4751 -0.5576
  122OSM   H15C12896   4.671   0.448  11.121 -0.5416 -1.4904 -0.9520
  122OSM    C1412897   4.384   0.595  11.180  0.0542 -0.2367 -0.8586
  122OSM   H14A12898   4.342   0.691  11.207  0.7699 -0.6085  1.7307
  122OSM   H14B12899   4.370   0.534  11.268 -1.1866 -0.3069 -1.1027
  122OSM   H14C12900   4.326   0.560  11.096 -3.2579  1.1021  0.7784
  122OSM    C1312901   4.603   0.644  11.274  0.2952 -1.0448  0.5248
  122OSM   H13A12902   4.708   0.662  11.254  0.1754  3.5670  3.5028
  122OSM   H13B12903   4.610   0.577  11.358 -0.6152  0.8973  2.1654
  122OSM   H13C12904   4.558   0.734  11.311  0.1840 -1.4257  1.3199
  122OSM    C1212905   4.558   0.675  11.032  0.1173 -0.0245  0.0872
  122OSM   H12A12906   4.514   0.769  11.061  1.8889  0.3142  1.7378
  122OSM   H12B12907   4.494   0.646  10.950  0.5964 -0.7703 -0.0220
  122OSM    C1112908   4.704   0.690  10.987  0.1026  0.1313 -0.1026
  122OSM   H11A12909   4.769   0.703  11.075 -2.3747  0.4881  1.7296
  122OSM   H11B12910   4.718   0.781  10.924  1.3638  0.4168  0.5730
  122OSM      P12911   4.889   0.549  10.850 -0.0897  0.1994 -0.3904
  122OSM    O1312912   4.985   0.514  10.954 -0.5163  0.1070  0.2951
  122OSM    O1412913   4.876   0.442  10.746 -0.5200  0.0615  1.1668
  122OSM    O1112914   4.926   0.689  10.781 -0.3941  0.5787  0.0348
  122OSM    O1212915   4.744   0.574  10.908  0.2467  0.0439 -0.8924
  122OSM    C1S12916   5.025   0.696  10.685 -0.3583 -0.4432 -0.0463
  122OSM    H1S12917   5.117   0.637  10.701  0.0015 -1.0761 -3.8992
  122OSM    H1T12918   5.058   0.802  10.685 -1.7693  0.0238 -1.9113
  122OSM     NF12919   5.067   0.693  10.451 -0.5780  0.2092 -0.3766
  122OSM    HNF12920   5.061   0.778  10.399  2.3626 -0.3124 -1.6795
  122OSM    C2S12921   4.961   0.677  10.545  0.2361  0.1028 -0.0169
  122OSM    H2S12922   4.930   0.570  10.545 -0.4346  0.2326  3.6219
  122OSM    C3S12923   4.833   0.774  10.538 -0.2902  0.2093 -0.4542
  122OSM    H3S12924   4.865   0.880  10.526  1.6209 -0.0401  2.1930
  122OSM     O312925   4.737   0.786  10.644 -0.2600  0.1098 -0.0672
  122OSM    HO312926   4.788   0.752  10.718  1.6764  0.4559 -1.1872
  122OSM    C4S12927   4.757   0.727  10.419  0.1640  0.6170  0.0715
  122OSM    H4S12928   4.700   0.633  10.421  1.0279  0.0879  0.1387
  122OSM    C5S12929   4.740   0.798  10.310  0.3177  0.6247 -0.2933
  122OSM    H5S12930   4.779   0.901  10.301  0.4129  0.8753  2.7070
  122OSM    C6S12931   4.667   0.744  10.191 -0.2339 -0.3411 -0.4202
  122OSM    H6S12932   4.644   0.635  10.189  0.3622 -0.4718 -0.4405
  122OSM    H6T12933   4.727   0.765  10.100  0.9162  0.6018  0.5300
  122OSM    C7S12934   4.522   0.798  10.174  0.0886 -0.6297 -0.3531
  122OSM    H7S12935   4.525   0.906  10.148 -1.1402 -0.7503 -1.0371
  122OSM    H7T12936   4.465   0.779  10.267  2.9260  0.4804  1.6771
  122OSM    C8S12937   4.450   0.730  10.061  0.0404  0.6258 -0.0908
  122OSM    H8S12938   4.346   0.768  10.067  0.2249  1.4102 -1.8470
  122OSM    H8T12939   4.446   0.626  10.100 -0.4330  0.7583  0.2310
  122OSM    C9S12940   4.529   0.758   9.928  0.1833  0.6563  0.4542
  122OSM    H9S12941   4.629   0.712   9.936  0.7928  2.1322  1.6196
  122OSM    H9T12942   4.547   0.868   9.928  1.4543  0.4454  1.4376
  122OSM   C10S12943   4.453   0.716   9.808 -0.4043 -0.6748  0.2899
  122OSM   H10S12944   4.345   0.742   9.804 -0.5791 -1.5469 -0.8372
  122OSM   H10T12945   4.445   0.606   9.791  1.4084 -0.7362 -0.2791
  122OSM   C11S12946   4.513   0.787   9.676  0.0499  0.5621  0.0024
  122OSM   H11S12947   4.617   0.754   9.654  0.1602  0.1004  1.1882
  122OSM   H11T12948   4.511   0.896   9.699 -0.0056  0.1741  1.9133
  122OSM   C12S12949   4.433   0.758   9.548 -0.2476 -0.7836 -0.2165
  122OSM   H12S12950   4.351   0.832   9.539  0.3684  0.4865  3.7060
  122OSM   H12T12951   4.390   0.656   9.556 -0.8846 -0.3815  1.7521
  122OSM   C13S12952   4.515   0.776   9.415  0.1611 -0.1070  0.1901
  122OSM   H13S12953   4.600   0.703   9.411  0.0950 -0.0872 -1.8499
  122OSM   H13T12954   4.574   0.868   9.432  1.9290 -1.3886  1.3051
  122OSM   C14S12955   4.439   0.789   9.286  0.3719 -0.7395 -0.3307
  122OSM   H14S12956   4.493   0.853   9.213 -0.2387  0.7951  0.5489
  122OSM   H14T12957   4.342   0.836   9.313 -0.0122 -1.1046 -1.0608
  122OSM   C15S12958   4.410   0.654   9.217  0.6297  0.8235  0.2734
  122OSM   H15S12959   4.365   0.576   9.283  1.1124 -1.5093 -2.0827
  122OSM   H15T12960   4.500   0.592   9.199  0.3787  0.5269  0.0319
  122OSM   C16S12961   4.324   0.660   9.086 -0.1665 -0.2222 -0.7319
  122OSM   H16S12962   4.220   0.655   9.125 -0.4431  1.6351 -1.1887
  122OSM   H16T12963   4.330   0.571   9.020  1.0027  0.0148 -0.9478
  122OSM   C17S12964   4.360   0.785   8.998 -0.2513 -0.0691 -0.3359
  122OSM   H17S12965   4.470   0.790   8.982 -0.2412  2.4306  0.4044
  122OSM   H17T12966   4.323   0.876   9.049 -1.5854  0.1706 -1.7272
  122OSM   C18S12967   4.302   0.781   8.856  0.3273  0.8668 -0.0364
  122OSM   H18S12968   4.357   0.712   8.789 -0.6237  1.8632 -1.8989
  122OSM   H18T12969   4.315   0.881   8.809 -0.5990  1.4181  0.8664
  122OSM   H18U12970   4.193   0.763   8.838 -0.5515  4.1611  1.5577
  122OSM    C1F12971   5.170   0.616  10.427  1.0404  0.3012  0.1714
  122OSM     OF12972   5.191   0.511  10.482 -0.0096  0.4486  0.1851
  122OSM    C2F12973   5.254   0.674  10.313 -0.0746  0.9562 -0.5280
  122OSM    H2F12974   5.319   0.741  10.373  1.0783 -1.5123  1.0866
  122OSM    H2G12975   5.184   0.718  10.239 -0.7440 -1.7596 -1.5829
  122OSM    C3F12976   5.347   0.562  10.245  0.0655 -0.4243  0.2214
  122OSM    H3F12977   5.279   0.478  10.222 -1.9476  1.6898 -1.8023
  122OSM    H3G12978   5.430   0.533  10.313  0.5694 -0.3009 -0.3349
  122OSM    C4F12979   5.413   0.588  10.105 -0.4872  0.4226  0.0030
  122OSM    H4F12980   5.478   0.501  10.082 -2.3225 -0.6232 -1.3932
  122OSM    H4G12981   5.470   0.681  10.125  0.9119 -0.1335 -1.3102
  122OSM    C5F12982   5.319   0.605   9.989 -0.9701  0.5385  0.0980
  122OSM    H5F12983   5.377   0.636   9.899 -0.2188  2.7234  1.2890
  122OSM    H5G12984   5.255   0.693  10.009  0.9718  2.2517 -0.9923
  122OSM    C6F12985   5.229   0.482   9.950 -0.0498  0.8854 -0.6410
  122OSM    H6F12986   5.163   0.464  10.037 -1.0785 -3.4171 -2.2040
  122OSM    H6G12987   5.296   0.394   9.944  1.7457  2.1176  0.6419
  122OSM    C7F12988   5.150   0.505   9.821 -0.2376  0.4312 -0.2954
  122OSM    H7F12989   5.083   0.591   9.841  0.4630  0.9053  0.0311
  122OSM    H7G12990   5.089   0.415   9.798  0.3843 -0.0505 -0.0701
  122OSM    C8F12991   5.228   0.546   9.691  0.3895 -0.5306 -0.2089
  122OSM    H8F12992   5.288   0.635   9.719 -1.1044  0.0784  1.1193
  122OSM    H8G12993   5.152   0.569   9.613  0.3788  1.1596  0.2671
  122OSM    C9F12994   5.329   0.446   9.651  0.0006 -0.5384 -0.1963
  122OSM    H9F12995   5.334   0.352   9.708 -2.0914  0.0341  0.9843
  122OSM   C10F12996   5.427   0.463   9.554  0.1110 -0.4216  1.3780
  122OSM   H10F12997   5.498   0.384   9.525  0.7253 -0.3124  2.5432
  122OSM   C11F12998   5.442   0.584   9.469 -0.1924  0.0597  0.2697
  122OSM   H11F12999   5.537   0.585   9.411  1.5283  1.9614  2.9507
  122OSM   H11G13000   5.437   0.682   9.521 -0.7779  0.8402 -1.2337
  122OSM   C12F13001   5.346   0.598   9.352 -0.1863 -0.2727  0.5697
  122OSM   H12F13002   5.246   0.613   9.399 -0.7604  0.4826 -0.8671
  122OSM   H12G13003   5.347   0.508   9.287  2.6048 -0.6735  1.0906
  122OSM   C13F13004   5.364   0.710   9.245  0.1201  0.3499  0.5351
  122OSM   H13F13005   5.470   0.720   9.211  0.4475 -1.9343  0.8542
  122OSM   H13G13006   5.346   0.808   9.295  2.7362  0.2884  1.6572
  122OSM   C14F13007   5.272   0.695   9.124  0.6041 -0.5583  0.0822
  122OSM   H14F13008   5.275   0.793   9.072 -1.2393  0.1773  1.3207
  122OSM   H14G13009   5.174   0.673   9.172  1.2931  0.2319  1.8630
  122OSM   C15F13010   5.305   0.587   9.023 -0.0853  0.2130  0.5351
  122OSM   H15F13011   5.312   0.493   9.081  2.5887 -0.5981 -0.9781
  122OSM   H15G13012   5.408   0.613   8.990  0.6103 -2.0402  0.8585
  122OSM   C16F13013   5.215   0.570   8.899  0.2401 -0.3919 -0.0886
  122OSM   H16F13014   5.229   0.652   8.826  0.7259 -0.1936  0.2188
  122OSM   H16G13015   5.119   0.578   8.954  1.5554  1.5080  2.0316
  122OSM   C17F13016   5.227   0.424   8.843  1.4446 -0.0649 -0.3406
  122OSM   H17F13017   5.235   0.350   8.924  1.7629 -0.6906 -0.9387
  122OSM   H17G13018   5.328   0.426   8.797  1.3725  4.2642 -0.5442
  122OSM   C18F13019   5.121   0.399   8.735 -0.8564 -0.5713 -0.1888
  122OSM   H18F13020   5.157   0.324   8.661  0.0737 -0.8271  0.5151
  122OSM   H18G13021   5.096   0.499   8.694  3.0950  0.2002 -0.9796
  122OSM   H18H13022   5.032   0.360   8.788 -0.0507 -2.3853 -0.1078
  123OSM      N13023   1.853   6.368   5.664  0.1325 -0.3332  0.3316
  123OSM    C1513024   1.855   6.515   5.624 -0.1459 -0.0197 -0.4595
  123OSM   H15A13025   1.847   6.522   5.516  1.1567  2.2603 -0.4423
  123OSM   H15B13026   1.951   6.556   5.651 -0.6260  0.5974  0.3081
  123OSM   H15C13027   1.776   6.568   5.675  0.2559  0.8546 -0.7284
  123OSM    C1413028   1.734   6.307   5.596 -0.4497 -0.3708 -0.1432
  123OSM   H14A13029   1.750   6.200   5.602  2.6068  0.1129  1.5373
  123OSM   H14B13030   1.732   6.338   5.492  0.2056 -2.2825 -0.7438
  123OSM   H14C13031   1.642   6.341   5.641  0.5378  0.3073  1.4052
  123OSM    C1313032   1.986   6.307   5.623  0.1574  1.0222 -0.8803
  123OSM   H13A13033   1.977   6.204   5.654 -2.4727  0.4147 -3.3774
  123OSM   H13B13034   2.074   6.353   5.664  0.8418  1.2959 -2.6066
  123OSM   H13C13035   2.009   6.301   5.518 -0.7868 -0.7432 -1.0064
  123OSM    C1213036   1.825   6.360   5.817  1.0979  0.3443 -0.5031
  123OSM   H12A13037   1.810   6.255   5.836  4.5304 -0.2277 -0.5467
  123OSM   H12B13038   1.733   6.411   5.839  1.4187  0.3580  0.8866
  123OSM    C1113039   1.926   6.407   5.915 -0.5516 -0.3378  0.0609
  123OSM   H11A13040   2.015   6.348   5.887 -0.6375  0.0024 -0.9301
  123OSM   H11B13041   1.900   6.385   6.021 -0.3162  1.0584  0.4261
  123OSM      P13042   2.065   6.616   5.949  0.2032 -0.0598 -0.1475
  123OSM    O1313043   2.172   6.553   5.870  0.1346  0.3086  0.2591
  123OSM    O1413044   2.049   6.760   5.925 -0.7049  0.6007 -0.4550
  123OSM    O1113045   2.085   6.585   6.104  0.5544  0.2638 -0.2412
  123OSM    O1213046   1.932   6.547   5.906 -0.2414 -0.3643 -0.6126
  123OSM    C1S13047   1.978   6.610   6.194 -0.0907  0.3445 -0.0704
  123OSM    H1S13048   1.886   6.559   6.157  0.7266 -1.6568  0.6008
  123OSM    H1T13049   1.971   6.719   6.212  1.9063  0.5266 -0.3264
  123OSM     NF13050   1.907   6.577   6.426  0.1762  0.4178  0.7471
  123OSM    HNF13051   1.926   6.656   6.484 -0.1403  0.6945  0.4778
  123OSM    C2S13052   2.009   6.542   6.331 -0.1207  0.2687 -0.4646
  123OSM    H2S13053   2.022   6.434   6.306  2.1631  0.1164  1.2313
  123OSM    C3S13054   2.152   6.586   6.382 -0.3774  0.3774  0.4745
  123OSM    H3S13055   2.158   6.696   6.372  2.0041  0.0928 -1.9201
  123OSM     O313056   2.264   6.547   6.303  0.2232 -0.0387 -0.5636
  123OSM    HO313057   2.233   6.548   6.213 -2.2166 -1.1205  0.2117
  123OSM    C4S13058   2.187   6.529   6.521 -0.6660  0.0499 -0.1420
  123OSM    H4S13059   2.210   6.421   6.515  0.3195  0.3748 -2.7834
  123OSM    C5S13060   2.188   6.595   6.644  0.4026 -0.0618  0.5115
  123OSM    H5S13061   2.162   6.702   6.650 -0.2596 -0.1372 -0.7072
  123OSM    C6S13062   2.225   6.534   6.769 -0.5361 -0.0019  0.3588
  123OSM    H6S13063   2.331   6.506   6.781 -0.2010  1.0870  0.0044
  123OSM    H6T13064   2.172   6.437   6.779 -1.2794  0.4492  0.8496
  123OSM    C7S13065   2.164   6.615   6.880 -0.7825  0.6345 -0.1954
  123OSM    H7S13066   2.053   6.607   6.881 -0.7791  0.5126 -0.6891
  123OSM    H7T13067   2.199   6.720   6.884  0.4133  0.2392 -0.1632
  123OSM    C8S13068   2.220   6.548   7.008 -0.2053 -0.7790  0.5278
  123OSM    H8S13069   2.329   6.564   7.005 -0.5466  1.7554  0.2346
  123OSM    H8T13070   2.188   6.442   7.018  0.4974 -1.2891 -2.3077
  123OSM    C9S13071   2.181   6.624   7.137  0.4258  0.1813 -0.3580
  123OSM    H9S13072   2.197   6.733   7.124  0.3706  0.3541  0.9383
  123OSM    H9T13073   2.236   6.583   7.225  1.7763 -0.1606 -1.3414
  123OSM   C10S13074   2.027   6.595   7.165 -0.3642  0.0173 -0.2955
  123OSM   H10S13075   2.011   6.485   7.171 -1.5320  0.2022 -0.0116
  123OSM   H10T13076   1.972   6.623   7.072  1.2027  2.0697 -0.6504
  123OSM   C11S13077   1.969   6.650   7.296 -0.2021  0.0744 -0.3867
  123OSM   H11S13078   1.861   6.624   7.301  0.1500 -1.4628 -0.3718
  123OSM   H11T13079   1.982   6.759   7.305  1.3238 -0.1356  0.0991
  123OSM   C12S13080   2.036   6.580   7.422  0.2086  0.5821  0.4305
  123OSM   H12S13081   2.142   6.607   7.443  0.8318 -0.0871 -1.6373
  123OSM   H12T13082   2.047   6.472   7.395 -1.2594  0.9680 -1.8350
  123OSM   C13S13083   1.950   6.576   7.549  0.2381  0.3938 -0.4726
  123OSM   H13S13084   1.987   6.490   7.609  0.5824  1.8471  1.4376
  123OSM   H13T13085   1.845   6.558   7.516  1.3391  0.5886 -4.3299
  123OSM   C14S13086   1.964   6.701   7.630  0.5112  0.3149 -0.3220
  123OSM   H14S13087   1.938   6.799   7.583  0.5038  0.6026  0.2821
  123OSM   H14T13088   2.073   6.711   7.650  0.8331 -0.4399 -1.6305
  123OSM   C15S13089   1.888   6.695   7.763  0.8788  0.4908  0.1468
  123OSM   H15S13090   1.927   6.610   7.823 -0.0462  0.4917  0.7533
  123OSM   H15T13091   1.782   6.664   7.750  1.3137 -1.1540  0.4252
  123OSM   C16S13092   1.908   6.819   7.838 -0.1629 -1.0734  0.0624
  123OSM   H16S13093   1.887   6.906   7.772  0.7089 -0.5788  0.4288
  123OSM   H16T13094   2.015   6.826   7.867 -0.6334  2.5500  1.1404
  123OSM   C17S13095   1.842   6.836   7.979  0.3620  0.7017  0.0019
  123OSM   H17S13096   1.861   6.742   8.034  0.7441 -0.0629 -1.4195
  123OSM   H17T13097   1.731   6.831   7.971  0.2955  3.0654 -1.1087
  123OSM   C18S13098   1.879   6.959   8.060  0.0321  0.4371  0.1891
  123OSM   H18S13099   1.837   6.959   8.163  1.7708 -2.1845  0.9672
  123OSM   H18T13100   1.836   7.045   8.005  1.2498  2.0840  1.7636
  123OSM   H18U13101   1.986   6.982   8.076  0.4100 -0.1619 -1.3952
  123OSM    C1F13102   1.779   6.534   6.427 -0.2303 -0.1835 -0.5175
  123OSM     OF13103   1.743   6.455   6.339 -0.5767  0.2284  0.5674
  123OSM    C2F13104   1.682   6.579   6.538 -0.1484  0.0948 -0.6571
  123OSM    H2F13105   1.586   6.524   6.525 -0.9640  0.7337  2.2745
  123OSM    H2G13106   1.651   6.681   6.506 -0.1969 -0.2368 -1.6911
  123OSM    C3F13107   1.743   6.570   6.680 -0.0116 -0.1831  0.6556
  123OSM    H3F13108   1.702   6.649   6.747 -0.6399 -1.1235  1.3905
  123OSM    H3G13109   1.852   6.590   6.682  0.0036 -0.0894 -0.6622
  123OSM    C4F13110   1.730   6.434   6.744 -0.7571 -0.1119  0.3481
  123OSM    H4F13111   1.812   6.369   6.704 -0.8205 -0.8339  1.3649
  123OSM    H4G13112   1.636   6.386   6.710 -1.0108  1.7992 -1.7426
  123OSM    C5F13113   1.743   6.449   6.889  0.0783  0.0855 -0.7342
  123OSM    H5F13114   1.675   6.522   6.937  1.6705 -1.2765  3.8642
  123OSM    H5G13115   1.849   6.481   6.902  0.1933  0.3217 -2.1218
  123OSM    C6F13116   1.733   6.306   6.954 -0.7252 -0.4226 -0.1942
  123OSM    H6F13117   1.793   6.229   6.902 -1.6162 -1.8537  0.8400
  123OSM    H6G13118   1.623   6.294   6.943 -0.7455 -0.9119  0.5114
  123OSM    C7F13119   1.766   6.318   7.103 -0.3266 -0.0471 -0.1890
  123OSM    H7F13120   1.691   6.371   7.167  2.2104  0.2882  2.6008
  123OSM    H7G13121   1.863   6.372   7.110 -0.3482  0.0407 -0.5324
  123OSM    C8F13122   1.787   6.176   7.174 -0.4736  0.5260  0.4292
  123OSM    H8F13123   1.848   6.105   7.115  1.4278  2.7596 -0.3749
  123OSM    H8G13124   1.688   6.128   7.187  0.7124 -1.7051  1.3686
  123OSM    C9F13125   1.849   6.191   7.309 -0.0730  0.5990  0.1954
  123OSM    H9F13126   1.959   6.192   7.302 -0.0048  0.6851  1.2373
  123OSM   C10F13127   1.792   6.188   7.427  0.4353  0.0270 -0.5475
  123OSM   H10F13128   1.855   6.208   7.515 -0.2187  2.4505 -0.5839
  123OSM   C11F13129   1.643   6.182   7.455 -0.2489  0.4058 -0.2624
  123OSM   H11F13130   1.621   6.080   7.494 -1.2821 -0.1028 -2.1532
  123OSM   H11G13131   1.583   6.182   7.362 -0.5748 -3.2277 -0.1137
  123OSM   C12F13132   1.576   6.286   7.541  0.2920 -0.3684  0.2081
  123OSM   H12F13133   1.471   6.284   7.506 -0.1397 -0.4281  1.4671
  123OSM   H12G13134   1.609   6.388   7.512 -0.5341 -0.3965 -0.8560
  123OSM   C13F13135   1.585   6.270   7.698 -0.9346 -0.2877 -0.3802
  123OSM   H13F13136   1.524   6.181   7.725  1.2867 -2.0175 -0.9152
  123OSM   H13G13137   1.533   6.361   7.736  1.5370  1.7481 -1.7948
  123OSM   C14F13138   1.726   6.274   7.761 -0.1844 -0.0115 -0.3958
  123OSM   H14F13139   1.795   6.352   7.721 -0.2602  0.1043 -0.3022
  123OSM   H14G13140   1.761   6.172   7.734  1.5123  0.4848 -0.0994
  123OSM   C15F13141   1.722   6.271   7.911 -0.3041  0.1779  0.1147
  123OSM   H15F13142   1.651   6.190   7.941 -0.4239  0.6685  1.1965
  123OSM   H15G13143   1.677   6.362   7.956  2.4563  0.9304  1.4672
  123OSM   C16F13144   1.857   6.222   7.955 -0.2870 -0.6801 -0.3922
  123OSM   H16F13145   1.933   6.283   7.900 -0.7385  0.7781  0.5517
  123OSM   H16G13146   1.864   6.118   7.918  1.3852  0.0767 -2.2977
  123OSM   C17F13147   1.876   6.238   8.107  0.5243 -0.1174 -0.2909
  123OSM   H17F13148   1.796   6.190   8.167 -1.5687  1.1363 -1.9818
  123OSM   H17G13149   1.886   6.347   8.126 -1.5848  0.0570 -0.1163
  123OSM   C18F13150   2.010   6.180   8.156 -0.4481  0.4961 -0.2776
  123OSM   H18F13151   2.095   6.216   8.095  1.3655 -2.1816  0.5767
  123OSM   H18G13152   2.007   6.069   8.153 -1.8749  0.3741  3.3043
  123OSM   H18H13153   2.032   6.211   8.260 -0.6627 -0.6391  0.1135
  124OSM      N13154   5.365   3.956   6.017 -0.0586  0.0603  0.5298
  124OSM    C1513155   5.286   3.843   5.957  1.0969  0.8090 -0.1982
  124OSM   H15A13156   5.291   3.836   5.849  4.1447 -1.1497 -0.0011
  124OSM   H15B13157   5.185   3.850   5.994  1.3351 -4.2249  1.8411
  124OSM   H15C13158   5.312   3.746   5.997  0.1893  0.3385 -0.7222
  124OSM    C1413159   5.511   3.931   6.011 -0.0045 -0.2336  0.0539
  124OSM   H14A13160   5.553   3.925   5.912 -0.3529  1.1419 -0.1864
  124OSM   H14B13161   5.544   3.848   6.072 -0.0364 -0.6803 -0.5314
  124OSM   H14C13162   5.564   4.013   6.057 -1.5568  0.5159  0.5520
  124OSM    C1313163   5.333   4.077   5.929 -0.4830 -0.2310 -0.2111
  124OSM   H13A13164   5.375   4.068   5.829  1.0221  1.1824  0.2741
  124OSM   H13B13165   5.364   4.172   5.969 -1.2130 -1.0555  2.4155
  124OSM   H13C13166   5.228   4.084   5.902 -0.0209  1.3027 -1.7351
  124OSM    C1213167   5.326   3.985   6.162 -0.1945 -0.1515  0.1497
  124OSM   H12A13168   5.219   3.990   6.165 -0.4429 -4.1363  1.3391
  124OSM   H12B13169   5.378   4.072   6.201  1.4748 -0.4566 -1.3185
  124OSM    C1113170   5.364   3.872   6.275 -0.4400  0.2057  0.6071
  124OSM   H11A13171   5.349   3.915   6.376 -0.7300 -0.5322  0.8820
  124OSM   H11B13172   5.473   3.850   6.274 -0.2192  1.3026 -0.9745
  124OSM      P13173   5.128   3.738   6.273 -0.2786  0.7764  0.1377
  124OSM    O1313174   5.064   3.803   6.163 -0.7730 -0.1422 -0.3950
  124OSM    O1413175   5.098   3.590   6.294  0.3438 -0.3980 -0.2003
  124OSM    O1113176   5.105   3.815   6.415  0.3540  0.4480 -0.7500
  124OSM    O1213177   5.292   3.745   6.259  0.8016  0.4352 -0.6998
  124OSM    C1S13178   5.181   3.767   6.531  0.3057 -0.0975 -0.3622
  124OSM    H1S13179   5.280   3.818   6.534  0.1765  0.0702  1.9550
  124OSM    H1T13180   5.198   3.657   6.540  1.8370 -0.2421 -3.9724
  124OSM     NF13181   5.209   3.784   6.783  0.0933 -0.3466 -0.5157
  124OSM    HNF13182   5.197   3.701   6.836 -0.5159 -2.3434 -3.6322
  124OSM    C2S13183   5.118   3.799   6.672 -0.0166 -0.4264  0.0757
  124OSM    H2S13184   5.100   3.909   6.666 -0.1101 -0.4188  0.4838
  124OSM    C3S13185   4.983   3.726   6.680 -0.3697 -0.0528 -0.1885
  124OSM    H3S13186   4.985   3.616   6.672  4.6364 -0.0404 -0.9480
  124OSM     O313187   4.902   3.741   6.560  0.0926 -0.0406  0.0646
  124OSM    HO313188   4.957   3.791   6.500  1.0470 -1.8461 -0.6197
  124OSM    C4S13189   4.909   3.785   6.800  0.0183 -0.2714 -0.4241
  124OSM    H4S13190   4.936   3.739   6.896 -1.1687 -1.0599 -0.4620
  124OSM    C5S13191   4.824   3.888   6.799  1.0295 -0.5435 -0.3724
  124OSM    H5S13192   4.810   3.936   6.701  1.8287  1.2542  0.3691
  124OSM    C6S13193   4.750   3.950   6.909 -0.0306  0.1417 -0.2992
  124OSM    H6S13194   4.642   3.925   6.904  0.3049 -1.4694  0.3969
  124OSM    H6T13195   4.760   4.061   6.907  2.6824 -0.0010  2.1276
  124OSM    C7S13196   4.793   3.896   7.053 -0.7074  0.6065 -0.9728
  124OSM    H7S13197   4.901   3.921   7.060 -0.4338 -0.6931 -0.5334
  124OSM    H7T13198   4.798   3.786   7.060 -2.6645  0.5431 -0.3523
  124OSM    C8S13199   4.710   3.957   7.163 -0.0252  1.2119 -0.5517
  124OSM    H8S13200   4.608   3.917   7.148 -0.4254  1.6818  0.8616
  124OSM    H8T13201   4.714   4.068   7.152 -2.8053  1.4347  0.4051
  124OSM    C9S13202   4.764   3.930   7.305  0.1159  0.6284  0.4276
  124OSM    H9S13203   4.862   3.979   7.325 -1.0553  2.2369  2.3862
  124OSM    H9T13204   4.781   3.823   7.328 -3.1685 -0.0981 -0.2837
  124OSM   C10S13205   4.663   3.981   7.411  0.2030  0.4560 -0.6294
  124OSM   H10S13206   4.576   3.912   7.398  0.1806  0.7987 -2.5030
  124OSM   H10T13207   4.633   4.084   7.383  1.3494  0.7313 -0.8470
  124OSM   C11S13208   4.718   3.975   7.555  1.1623 -0.7855  0.3282
  124OSM   H11S13209   4.819   4.021   7.567  1.3443 -1.0649 -0.1058
  124OSM   H11T13210   4.732   3.872   7.595 -1.1356 -1.9716 -1.7915
  124OSM   C12S13211   4.634   4.060   7.649  0.2468 -0.0304  0.3479
  124OSM   H12S13212   4.540   4.005   7.669  0.7425 -0.2359  2.2487
  124OSM   H12T13213   4.617   4.157   7.597 -1.5015  0.6101  2.0373
  124OSM   C13S13214   4.708   4.091   7.782  0.5920  0.8087  0.0722
  124OSM   H13S13215   4.643   4.167   7.830  1.0037  0.5454  1.0705
  124OSM   H13T13216   4.803   4.143   7.760 -1.1672  3.8803 -0.6098
  124OSM   C14S13217   4.709   3.974   7.882 -0.1241  0.0411 -0.7480
  124OSM   H14S13218   4.788   3.900   7.855  2.0199  1.6477  0.8859
  124OSM   H14T13219   4.615   3.916   7.870 -0.9805  0.9816  1.2812
  124OSM   C15S13220   4.720   4.023   8.018 -0.6082 -0.7520 -0.0219
  124OSM   H15S13221   4.626   4.076   8.044  0.6493  1.2494  0.5638
  124OSM   H15T13222   4.807   4.092   8.024 -0.1471 -1.3783  0.5124
  124OSM   C16S13223   4.741   3.907   8.113  0.8311 -0.7277 -0.7565
  124OSM   H16S13224   4.829   3.848   8.079  0.0337 -2.1790 -0.3384
  124OSM   H16T13225   4.647   3.848   8.111  0.1802  0.0786  3.2105
  124OSM   C17S13226   4.770   3.956   8.257  0.2441  0.2026  0.0172
  124OSM   H17S13227   4.685   4.023   8.281 -0.0799  0.0621 -0.7140
  124OSM   H17T13228   4.860   4.020   8.245  0.3197 -0.0598 -0.8220
  124OSM   C18S13229   4.800   3.845   8.366 -0.3688 -0.3714 -0.2558
  124OSM   H18S13230   4.856   3.895   8.448  0.3710 -0.2155 -0.8480
  124OSM   H18T13231   4.877   3.779   8.321  3.4576  2.5790  1.6497
  124OSM   H18U13232   4.710   3.786   8.392 -1.1610  0.4651 -1.0799
  124OSM    C1F13233   5.312   3.866   6.803  0.0770  0.0167  0.6014
  124OSM     OF13234   5.333   3.958   6.728 -0.1364  0.3866  0.2157
  124OSM    C2F13235   5.407   3.841   6.920 -0.6162  0.0525 -0.5311
  124OSM    H2F13236   5.473   3.756   6.893 -0.5517 -0.9942  2.6644
  124OSM    H2G13237   5.348   3.807   7.008 -1.1909 -0.7969 -1.2341
  124OSM    C3F13238   5.488   3.975   6.949 -0.3781 -0.2992  0.2017
  124OSM    H3F13239   5.401   4.036   6.981 -0.9599 -1.8534  1.6444
  124OSM    H3G13240   5.531   4.009   6.852  1.5697  0.1071  1.1915
  124OSM    C4F13241   5.592   3.979   7.061 -0.1046 -0.5678 -0.4930
  124OSM    H4F13242   5.660   3.892   7.048  0.6963 -0.0550  0.2421
  124OSM    H4G13243   5.544   3.967   7.160  1.4465  0.3045  0.3817
  124OSM    C5F13244   5.673   4.110   7.063  0.5695 -0.0385  0.5004
  124OSM    H5F13245   5.608   4.184   7.012  0.4128 -0.9768 -0.6780
  124OSM    H5G13246   5.769   4.092   7.010  1.2083 -0.9831  1.9265
  124OSM    C6F13247   5.712   4.150   7.205  0.0240  0.3055  0.0324
  124OSM    H6F13248   5.758   4.065   7.260  0.4205  0.5406  0.0642
  124OSM    H6G13249   5.621   4.180   7.261 -0.1123  0.0344 -0.0417
  124OSM    C7F13250   5.808   4.273   7.216  0.3659  0.2100 -0.1755
  124OSM    H7F13251   5.768   4.355   7.154 -1.1378  0.4611  1.1141
  124OSM    H7G13252   5.909   4.244   7.178  0.9053  0.7532  0.8285
  124OSM    C8F13253   5.820   4.341   7.361 -0.1334  0.3065  0.1797
  124OSM    H8F13254   5.714   4.347   7.395 -0.1238 -1.0849  0.5030
  124OSM    H8G13255   5.876   4.436   7.345  0.5726 -0.2585 -0.7541
  124OSM    C9F13256   5.886   4.248   7.454 -0.1604 -0.1353  0.6792
  124OSM    H9F13257   5.992   4.230   7.428 -0.0520  0.2080  0.8798
  124OSM   C10F13258   5.850   4.201   7.570  0.2181  0.5573  0.7472
  124OSM   H10F13259   5.914   4.130   7.624 -0.7222  0.8376  2.2619
  124OSM   C11F13260   5.722   4.230   7.643 -0.5288 -0.1551 -0.0706
  124OSM   H11F13261   5.632   4.195   7.587 -1.6129  2.2887  0.1116
  124OSM   H11G13262   5.719   4.341   7.646 -1.7645 -0.0999 -2.2959
  124OSM   C12F13263   5.721   4.162   7.783  0.0576 -0.7433  0.1853
  124OSM   H12F13264   5.769   4.063   7.775 -1.7423 -1.9304  3.2484
  124OSM   H12G13265   5.620   4.139   7.824 -0.7862 -1.6168 -2.2625
  124OSM   C13F13266   5.806   4.239   7.889  0.6833  0.6229 -0.2428
  124OSM   H13F13267   5.753   4.329   7.925 -0.9604 -1.0227  1.5809
  124OSM   H13G13268   5.906   4.277   7.857  1.6322 -0.3507  1.4923
  124OSM   C14F13269   5.836   4.157   8.015  0.4847 -0.8087 -0.0448
  124OSM   H14F13270   5.889   4.225   8.084  0.0904  0.2952 -0.7986
  124OSM   H14G13271   5.904   4.073   7.989  0.7929 -0.0737 -1.6960
  124OSM   C15F13272   5.713   4.102   8.086 -0.4633 -0.7389  0.0846
  124OSM   H15F13273   5.670   4.028   8.014  1.9178 -0.0443 -2.1073
  124OSM   H15G13274   5.645   4.186   8.112  0.0500 -0.6546  1.1781
  124OSM   C16F13275   5.748   4.029   8.219 -0.0419  0.2294  0.0770
  124OSM   H16F13276   5.809   4.095   8.284 -0.5187  1.1011 -0.3518
  124OSM   H16G13277   5.804   3.939   8.186 -0.5814 -0.3592  0.7357
  124OSM   C17F13278   5.617   3.987   8.295 -0.2097 -0.4166 -1.0211
  124OSM   H17F13279   5.643   3.912   8.373 -1.1966 -0.2505 -0.5197
  124OSM   H17G13280   5.539   3.935   8.234 -0.6996 -0.5752 -0.2613
  124OSM   C18F13281   5.551   4.108   8.347  0.0598  0.2251 -0.1419
  124OSM   H18F13282   5.612   4.153   8.428 -1.9243  1.7754  0.5539
  124OSM   H18G13283   5.461   4.066   8.396  1.1910 -0.9286  0.9941
  124OSM   H18H13284   5.518   4.176   8.265  0.0666  0.4555  0.0474
  125OSM      N13285   5.069   5.335   6.442 -0.1435  0.1737  0.8578
  125OSM    C1513286   5.051   5.435   6.545 -0.4152 -0.2264 -0.2670
  125OSM   H15A13287   4.980   5.401   6.620 -1.5769  0.3580 -1.0839
  125OSM   H15B13288   5.000   5.519   6.500  1.0636 -0.1390 -1.8447
  125OSM   H15C13289   5.146   5.467   6.586 -0.7210  0.6877 -0.2693
  125OSM    C1413290   5.169   5.394   6.343  0.7598 -0.1564 -0.5295
  125OSM   H14A13291   5.191   5.330   6.258 -0.2204  1.8676 -2.3700
  125OSM   H14B13292   5.261   5.416   6.395  0.1425  1.9856 -0.2988
  125OSM   H14C13293   5.132   5.484   6.295  0.1158  0.2510  0.7218
  125OSM    C1313294   5.124   5.219   6.496  0.0532  0.5262 -0.0632
  125OSM   H13A13295   5.136   5.139   6.425 -2.0660  0.7956 -0.7550
  125OSM   H13B13296   5.067   5.187   6.582  2.1816 -1.3208  0.7125
  125OSM   H13C13297   5.223   5.238   6.534  1.1782 -0.2221 -2.5096
  125OSM    C1213298   4.931   5.312   6.375  0.0442  0.0308  0.0002
  125OSM   H12A13299   4.894   5.405   6.333 -2.0714  0.4118  2.6139
  125OSM   H12B13300   4.856   5.292   6.450  2.0502 -1.2144  1.7102
  125OSM    C1113301   4.915   5.200   6.265 -0.3660 -0.4058 -0.5590
  125OSM   H11A13302   5.010   5.201   6.208 -0.0957  0.7858 -0.0897
  125OSM   H11B13303   4.837   5.230   6.192 -2.4049  0.6283  1.9467
  125OSM      P13304   4.763   4.991   6.332 -0.0099 -0.3369  0.0505
  125OSM    O1313305   4.640   5.071   6.322  0.6836  0.4852  0.0872
  125OSM    O1413306   4.768   4.881   6.236  0.3390  0.4544 -0.2089
  125OSM    O1113307   4.765   4.919   6.472 -0.3800 -0.3273  0.2334
  125OSM    O1213308   4.891   5.081   6.329  0.0240  0.4123 -0.7100
  125OSM    C1S13309   4.830   4.997   6.579 -0.1770 -0.0520 -0.0599
  125OSM    H1S13310   4.779   5.096   6.581  0.7717  0.4376  0.5148
  125OSM    H1T13311   4.939   5.006   6.562 -0.0564 -1.5579 -0.1557
  125OSM     NF13312   4.857   5.028   6.815 -0.0381  0.2264 -0.7837
  125OSM    HNF13313   4.939   5.014   6.870  1.0407  4.1162 -1.2813
  125OSM    C2S13314   4.821   4.926   6.716 -0.3569 -0.9501 -0.0583
  125OSM    H2S13315   4.717   4.897   6.742 -0.2575  0.0472  1.5155
  125OSM    C3S13316   4.900   4.795   6.718  0.0035 -0.2295 -0.3503
  125OSM    H3S13317   5.007   4.825   6.713  0.4017 -1.6504 -0.3218
  125OSM     O313318   4.886   4.722   6.595  0.7129  0.1131 -0.1413
  125OSM    HO313319   4.842   4.783   6.536 -1.2155 -0.7653  0.3287
  125OSM    C4S13320   4.870   4.710   6.836 -0.4261  0.2863  0.3070
  125OSM    H4S13321   4.953   4.714   6.908  1.3095  0.5611 -1.6442
  125OSM    C5S13322   4.764   4.632   6.861 -0.0718  0.0337 -0.6322
  125OSM    H5S13323   4.688   4.608   6.785 -0.8211  1.7054 -0.4231
  125OSM    C6S13324   4.724   4.542   6.978 -0.5957 -0.0787 -0.2220
  125OSM    H6S13325   4.740   4.437   6.946  3.0012 -0.1344  1.5544
  125OSM    H6T13326   4.615   4.557   6.992 -0.5048  1.2634 -0.8110
  125OSM    C7S13327   4.802   4.559   7.112  0.5621  0.0614 -0.2098
  125OSM    H7S13328   4.773   4.652   7.165  0.1047  0.4992 -1.2328
  125OSM    H7T13329   4.912   4.564   7.096  0.8673  1.0087  1.9728
  125OSM    C8S13330   4.779   4.431   7.203 -0.4875 -0.5163 -0.0944
  125OSM    H8S13331   4.812   4.342   7.145  1.9475  0.0342  0.3949
  125OSM    H8T13332   4.675   4.428   7.244 -0.1707  0.1245  0.7760
  125OSM    C9S13333   4.867   4.434   7.331  1.0431  0.0937  0.3296
  125OSM    H9S13334   4.819   4.518   7.386  0.3836 -1.9866  3.0471
  125OSM    H9T13335   4.966   4.467   7.291  0.4743  0.8972 -0.4406
  125OSM   C10S13336   4.879   4.313   7.415 -0.4790  0.5892  0.3596
  125OSM   H10S13337   4.940   4.236   7.363 -0.7807  0.8231 -0.3491
  125OSM   H10T13338   4.780   4.269   7.440 -1.7906  3.3904  0.2316
  125OSM   C11S13339   4.932   4.334   7.563 -0.4393 -0.4995  0.5840
  125OSM   H11S13340   5.032   4.381   7.562 -0.8779  0.5003  1.8746
  125OSM   H11T13341   4.953   4.229   7.591 -0.0023 -0.3418  0.8546
  125OSM   C12S13342   4.839   4.411   7.652 -0.1414  0.2389 -0.1170
  125OSM   H12S13343   4.740   4.362   7.664  0.7927 -1.3641  1.3176
  125OSM   H12T13344   4.809   4.503   7.598  2.8615  0.7470 -0.9874
  125OSM   C13S13345   4.901   4.470   7.779 -0.3384  0.3974 -0.0614
  125OSM   H13S13346   4.826   4.543   7.817  2.9433  3.4524  0.8117
  125OSM   H13T13347   4.981   4.535   7.738  1.6949 -0.2785  2.7143
  125OSM   C14S13348   4.968   4.369   7.879 -0.2797  0.0265 -0.2758
  125OSM   H14S13349   5.051   4.314   7.830 -0.1163  1.3099 -1.4968
  125OSM   H14T13350   4.897   4.292   7.915  0.8614 -1.0082 -0.2407
  125OSM   C15S13351   5.030   4.436   8.005  0.0559  1.1534  0.6787
  125OSM   H15S13352   4.951   4.491   8.060 -2.0556  1.7017 -2.7532
  125OSM   H15T13353   5.110   4.502   7.966  0.0120  0.6957 -0.2017
  125OSM   C16S13354   5.095   4.332   8.093 -0.1792  0.1835  0.6103
  125OSM   H16S13355   5.185   4.296   8.039  0.7763 -0.4021  2.5702
  125OSM   H16T13356   5.031   4.241   8.103 -0.0036  0.1119  1.0891
  125OSM   C17S13357   5.153   4.380   8.228  0.3792  0.0040 -0.1472
  125OSM   H17S13358   5.180   4.486   8.215 -1.7611  0.7613  1.2866
  125OSM   H17T13359   5.244   4.323   8.257 -1.0665 -1.2973  2.0730
  125OSM   C18S13360   5.048   4.359   8.336  0.2224 -0.5650  0.3313
  125OSM   H18S13361   5.083   4.395   8.435  1.7658 -3.6402  0.9509
  125OSM   H18T13362   5.015   4.253   8.345 -0.1104 -0.5040 -0.1377
  125OSM   H18U13363   4.957   4.415   8.304  2.4537  2.8398 -0.3898
  125OSM    C1F13364   4.797   5.144   6.839 -0.1351 -0.4898  0.2213
  125OSM     OF13365   4.685   5.166   6.790  0.1084  0.0830 -0.3862
  125OSM    C2F13366   4.874   5.241   6.917 -0.3873 -0.6944  0.5775
  125OSM    H2F13367   4.871   5.337   6.861  1.5217 -0.7895  0.2607
  125OSM    H2G13368   4.978   5.200   6.919 -0.6438 -1.4918 -1.6470
  125OSM    C3F13369   4.817   5.269   7.056  0.2630  0.7341 -0.9480
  125OSM    H3F13370   4.900   5.317   7.111 -0.0135 -0.7515  0.8294
  125OSM    H3G13371   4.796   5.170   7.103 -0.5833  1.9851  1.4147
  125OSM    C4F13372   4.702   5.368   7.064  0.3675  0.6274 -0.6697
  125OSM    H4F13373   4.597   5.334   7.062  1.5293 -3.2683  0.0138
  125OSM    H4G13374   4.714   5.444   6.983 -0.1344 -1.0795 -2.3653
  125OSM    C5F13375   4.708   5.451   7.201 -0.4221 -0.6307  0.2631
  125OSM    H5F13376   4.654   5.546   7.183  1.3974  0.5830  1.1271
  125OSM    H5G13377   4.811   5.487   7.220 -0.1791 -0.4271 -1.3719
  125OSM    C6F13378   4.644   5.375   7.321 -0.5967 -0.1768 -0.1282
  125OSM    H6F13379   4.690   5.274   7.331  1.8306  0.9212  0.2827
  125OSM    H6G13380   4.539   5.354   7.292 -1.0584 -0.2883  1.5742
  125OSM    C7F13381   4.666   5.453   7.452  0.2096 -0.2177 -0.0052
  125OSM    H7F13382   4.624   5.556   7.451 -0.7878 -0.6223  0.3421
  125OSM    H7G13383   4.775   5.462   7.474  0.1205  0.7216  0.1032
  125OSM    C8F13384   4.594   5.389   7.569  0.0684  0.0195 -0.0648
  125OSM    H8F13385   4.650   5.294   7.588  1.6200  0.6591 -1.3537
  125OSM    H8G13386   4.494   5.355   7.534 -0.4551  1.1047  0.3683
  125OSM    C9F13387   4.573   5.477   7.688 -0.3997  0.3286 -0.1675
  125OSM    H9F13388   4.517   5.569   7.666 -0.3249 -0.0694 -2.0490
  125OSM   C10F13389   4.632   5.465   7.814 -0.6173 -0.5838  0.4935
  125OSM   H10F13390   4.597   5.533   7.893 -0.8329  0.1653 -0.2460
  125OSM   C11F13391   4.726   5.359   7.864 -0.4270  0.6305 -0.3354
  125OSM   H11F13392   4.828   5.395   7.888 -0.1361 -0.1151 -0.4550
  125OSM   H11G13393   4.745   5.278   7.791  0.5442 -1.7339  2.4601
  125OSM   C12F13394   4.685   5.307   8.000  0.4113  0.2591 -0.2308
  125OSM   H12F13395   4.584   5.263   7.988  0.9498 -1.4753  1.3067
  125OSM   H12G13396   4.673   5.385   8.078  0.3815 -0.9613  1.0093
  125OSM   C13F13397   4.775   5.193   8.055 -0.2401 -0.0361  0.3053
  125OSM   H13F13398   4.874   5.241   8.067 -0.5896  0.1490  2.5552
  125OSM   H13G13399   4.779   5.105   7.987 -2.9813 -0.8174  1.1103
  125OSM   C14F13400   4.724   5.136   8.180  0.3805  0.3860 -0.1537
  125OSM   H14F13401   4.620   5.102   8.165  0.6835 -0.4084 -0.4481
  125OSM   H14G13402   4.726   5.202   8.270  0.0809 -0.6219  0.6005
  125OSM   C15F13403   4.794   4.999   8.217  0.2930 -0.3705  0.1082
  125OSM   H15F13404   4.898   5.020   8.250  0.5526  0.2430 -1.0812
  125OSM   H15G13405   4.786   4.924   8.136  0.2109 -0.4987  0.2330
  125OSM   C16F13406   4.712   4.950   8.340 -0.2219  0.5871  0.5499
  125OSM   H16F13407   4.605   4.930   8.315  0.2506 -1.1777 -0.1467
  125OSM   H16G13408   4.705   5.031   8.416  0.0792  1.2221 -0.0958
  125OSM   C17F13409   4.763   4.813   8.404  0.3582 -0.2060 -0.0241
  125OSM   H17F13410   4.831   4.845   8.486 -0.4149 -0.3303  0.6722
  125OSM   H17G13411   4.815   4.759   8.322  0.6130 -1.0310  0.6783
  125OSM   C18F13412   4.648   4.712   8.447  0.1448  1.0247  0.5113
  125OSM   H18F13413   4.694   4.635   8.513  1.3166  0.7560 -0.5929
  125OSM   H18G13414   4.611   4.662   8.355  1.2999 -0.4739  0.8317
  125OSM   H18H13415   4.566   4.770   8.495  0.0650  0.7172  0.7495
  126OSM      N13416   2.984   4.647   6.318  0.3392 -0.4392 -0.4579
  126OSM    C1513417   2.905   4.536   6.375 -0.1826  0.5586  0.2723
  126OSM   H15A13418   2.873   4.460   6.306  0.3708  0.3225  0.2721
  126OSM   H15B13419   2.819   4.577   6.426 -1.4947  0.1851 -1.5933
  126OSM   H15C13420   2.979   4.493   6.441  0.5950  0.0381 -0.9229
  126OSM    C1413421   3.118   4.595   6.265 -0.5703 -0.1396  0.3089
  126OSM   H14A13422   3.153   4.526   6.340 -2.5344  0.3153  1.6630
  126OSM   H14B13423   3.183   4.679   6.245 -1.9226  1.0578  0.8940
  126OSM   H14C13424   3.104   4.548   6.168 -0.5387  2.1845 -0.8659
  126OSM    C1313425   2.919   4.711   6.201 -0.1437 -0.6283 -0.2378
  126OSM   H13A13426   2.837   4.773   6.234  0.4094 -1.1700  2.2593
  126OSM   H13B13427   2.901   4.639   6.123  0.3922 -0.1843 -0.7744
  126OSM   H13C13428   2.992   4.777   6.156 -1.2513  0.3504 -0.6136
  126OSM    C1213429   2.999   4.750   6.427  0.4351  0.7118 -0.2476
  126OSM   H12A13430   3.052   4.833   6.384  0.4136  0.4640 -0.7523
  126OSM   H12B13431   3.055   4.710   6.510  2.3675  2.2115 -0.7885
  126OSM    C1113432   2.868   4.812   6.485  0.4755  0.1048 -0.2428
  126OSM   H11A13433   2.902   4.887   6.559 -1.6345 -0.1576  1.0248
  126OSM   H11B13434   2.805   4.737   6.538 -0.3707  1.3237  0.5017
  126OSM      P13435   2.628   4.875   6.418  0.2172  0.1647  0.1554
  126OSM    O1313436   2.559   5.002   6.384 -0.4407  0.0957  0.3448
  126OSM    O1413437   2.581   4.751   6.346  0.4041  0.0595 -0.0239
  126OSM    O1113438   2.594   4.845   6.569  0.4348  0.2940 -0.0343
  126OSM    O1213439   2.787   4.887   6.394 -0.7640  0.1095 -0.0958
  126OSM    C1S13440   2.614   4.952   6.665  0.1262 -0.6685  0.2065
  126OSM    H1S13441   2.550   5.040   6.643  2.1345  0.3666 -1.6251
  126OSM    H1T13442   2.711   5.006   6.665 -1.4787  2.3369 -1.3188
  126OSM     NF13443   2.537   5.018   6.894  0.6244 -0.0977  0.2736
  126OSM    HNF13444   2.616   5.043   6.950  0.0152  0.8314  0.7235
  126OSM    C2S13445   2.569   4.902   6.809  0.8067 -0.2281 -0.3155
  126OSM    H2S13446   2.480   4.839   6.786  1.5409 -1.8573  1.1531
  126OSM    C3S13447   2.688   4.811   6.862  0.2271  0.6326 -0.2397
  126OSM    H3S13448   2.788   4.858   6.856  0.2484  0.5445 -0.5760
  126OSM     O313449   2.699   4.699   6.770  0.1341 -0.4983  0.5465
  126OSM    HO313450   2.659   4.727   6.687 -1.0154  0.6735  1.4679
  126OSM    C4S13451   2.655   4.737   6.988  0.2153  0.0540 -1.2473
  126OSM    H4S13452   2.588   4.650   6.977  0.0834 -0.0012 -0.0292
  126OSM    C5S13453   2.693   4.781   7.106  0.1983 -0.2922 -0.5347
  126OSM    H5S13454   2.738   4.882   7.114 -1.6428  0.3544  3.0329
  126OSM    C6S13455   2.668   4.712   7.243 -0.4493  0.1988  0.3180
  126OSM    H6S13456   2.658   4.602   7.240 -0.0707  0.0507  3.0994
  126OSM    H6T13457   2.566   4.741   7.276 -0.0858  0.2876  1.3896
  126OSM    C7S13458   2.766   4.757   7.345  0.0418  0.9477  0.1747
  126OSM    H7S13459   2.762   4.867   7.360  1.7593  1.0936 -0.2709
  126OSM    H7T13460   2.874   4.737   7.325  0.7616  2.0007  2.7781
  126OSM    C8S13461   2.746   4.688   7.489 -0.0532 -0.4692  0.2670
  126OSM    H8S13462   2.733   4.581   7.462 -0.6929 -0.2567 -0.2658
  126OSM    H8T13463   2.655   4.713   7.547 -0.6078 -0.5853 -0.5466
  126OSM    C9S13464   2.857   4.720   7.584  0.0252 -0.0485 -0.0939
  126OSM    H9S13465   2.885   4.828   7.580  4.6922 -1.2261 -2.4421
  126OSM    H9T13466   2.949   4.663   7.561 -1.2923 -2.5320  0.5766
  126OSM   C10S13467   2.823   4.690   7.734 -0.1246 -0.1116 -0.6982
  126OSM   H10S13468   2.807   4.581   7.746  1.4032 -0.3415 -0.7268
  126OSM   H10T13469   2.738   4.756   7.763 -0.2333  0.1283 -1.5582
  126OSM   C11S13470   2.950   4.715   7.818 -0.5415 -0.1513 -0.8283
  126OSM   H11S13471   2.959   4.822   7.847 -0.0057  0.1316 -2.0127
  126OSM   H11T13472   3.046   4.681   7.774 -0.7465 -3.4785  1.1067
  126OSM   C12S13473   2.929   4.633   7.949  0.6023  0.1804 -0.4415
  126OSM   H12S13474   3.022   4.653   8.006 -0.4822  0.7917  1.1529
  126OSM   H12T13475   2.936   4.523   7.930  1.9537  0.3686 -1.1226
  126OSM   C13S13476   2.803   4.669   8.037 -0.3631  0.4139 -0.1441
  126OSM   H13S13477   2.705   4.675   7.986 -1.4879 -0.8017  1.8141
  126OSM   H13T13478   2.840   4.771   8.059  2.8154 -0.9043  1.0910
  126OSM   C14S13479   2.788   4.588   8.162 -0.2940  0.3556  0.0575
  126OSM   H14S13480   2.876   4.567   8.227  1.0098  1.1188 -1.4452
  126OSM   H14T13481   2.765   4.484   8.131  0.8601  1.5479 -5.1271
  126OSM   C15S13482   2.693   4.633   8.269  0.1982  0.5946 -0.1375
  126OSM   H15S13483   2.601   4.674   8.221  0.1815  1.9190  0.9753
  126OSM   H15T13484   2.738   4.718   8.325  0.0794  0.6530 -0.1309
  126OSM   C16S13485   2.662   4.527   8.373 -0.1743 -0.0131  0.4279
  126OSM   H16S13486   2.622   4.576   8.464 -2.8962 -0.3478 -0.5376
  126OSM   H16T13487   2.754   4.466   8.390  0.4102 -0.1279 -2.7461
  126OSM   C17S13488   2.564   4.411   8.340 -0.0585 -0.7805 -0.8000
  126OSM   H17S13489   2.602   4.367   8.245 -0.9375 -1.6391 -0.7674
  126OSM   H17T13490   2.461   4.442   8.310 -0.1276 -3.0375 -3.1375
  126OSM   C18S13491   2.558   4.309   8.455  0.2597 -0.3119 -0.6871
  126OSM   H18S13492   2.657   4.261   8.466 -1.4878 -3.6256  1.3252
  126OSM   H18T13493   2.491   4.224   8.431  1.6059 -1.5485 -0.0817
  126OSM   H18U13494   2.528   4.357   8.551 -2.1019 -1.2309 -0.9290
  126OSM    C1F13495   2.426   5.083   6.893  0.5921  0.3750  0.4293
  126OSM     OF13496   2.333   5.048   6.817 -0.3373 -0.2014 -0.0675
  126OSM    C2F13497   2.419   5.199   6.990  0.0108 -0.5564  0.6507
  126OSM    H2F13498   2.517   5.251   6.987  0.0713 -0.6851  0.3266
  126OSM    H2G13499   2.422   5.150   7.089 -1.8220  1.7470  1.9052
  126OSM    C3F13500   2.308   5.299   6.964  0.4335  1.5573  0.1094
  126OSM    H3F13501   2.213   5.242   6.956  0.7593  0.8623  1.1404
  126OSM    H3G13502   2.330   5.338   6.862 -0.5491 -1.5722 -1.3382
  126OSM    C4F13503   2.296   5.407   7.069  0.2197  0.0358  0.1925
  126OSM    H4F13504   2.399   5.416   7.109 -0.2509 -1.5932  1.8305
  126OSM    H4G13505   2.222   5.372   7.144 -0.7525 -2.0472 -1.6533
  126OSM    C5F13506   2.243   5.537   7.012  0.2964  0.0088 -0.3347
  126OSM    H5F13507   2.172   5.503   6.934  0.3962 -1.7029  0.3002
  126OSM    H5G13508   2.324   5.601   6.970  1.2382  0.2912  1.8402
  126OSM    C6F13509   2.163   5.617   7.118  0.0973 -0.0654 -0.2677
  126OSM    H6F13510   2.097   5.543   7.167 -0.6888  0.1992 -0.9119
  126OSM    H6G13511   2.093   5.687   7.067  0.0650  1.0999  1.3371
  126OSM    C7F13512   2.256   5.699   7.219 -0.0504 -0.4518  0.1462
  126OSM    H7F13513   2.306   5.780   7.162 -0.0449 -1.9460 -2.0404
  126OSM    H7G13514   2.333   5.634   7.265 -0.4078 -0.2500  1.0421
  126OSM    C8F13515   2.170   5.762   7.333 -0.0903  0.1005  0.1010
  126OSM    H8F13516   2.116   5.683   7.390 -1.4641  0.7357 -0.2947
  126OSM    H8G13517   2.092   5.819   7.279 -0.4883 -1.4870 -1.0199
  126OSM    C9F13518   2.236   5.848   7.437  0.6922 -0.1918  0.0870
  126OSM    H9F13519   2.251   5.952   7.403 -1.9149  0.3587  0.5439
  126OSM   C10F13520   2.263   5.822   7.565 -0.1150  0.3110 -0.1453
  126OSM   H10F13521   2.322   5.892   7.627 -0.3065  0.0961  0.2835
  126OSM   C11F13522   2.233   5.690   7.637 -0.2433 -0.4438  0.1702
  126OSM   H11F13523   2.235   5.603   7.567  0.0531  0.5843 -1.1095
  126OSM   H11G13524   2.134   5.693   7.686 -0.0010  0.8990  0.5991
  126OSM   C12F13525   2.349   5.655   7.726  0.2551 -0.0396 -0.6458
  126OSM   H12F13526   2.358   5.743   7.793 -1.0436 -0.0949 -0.3990
  126OSM   H12G13527   2.446   5.650   7.672  0.9053 -1.7995  0.6216
  126OSM   C13F13528   2.317   5.537   7.819  0.2206 -0.3902 -0.8303
  126OSM   H13F13529   2.412   5.520   7.874 -0.0920  0.3046 -0.0580
  126OSM   H13G13530   2.294   5.452   7.752  0.9857 -1.0813 -0.2287
  126OSM   C14F13531   2.206   5.556   7.920  0.9432  0.4114 -0.7877
  126OSM   H14F13532   2.196   5.454   7.964 -0.5211  0.9388  0.1283
  126OSM   H14G13533   2.110   5.586   7.871 -0.2396  1.1198  1.8920
  126OSM   C15F13534   2.240   5.663   8.028  0.4300  0.3245  0.1255
  126OSM   H15F13535   2.199   5.759   7.989  1.5748  0.6722 -0.2189
  126OSM   H15G13536   2.350   5.670   8.025  0.4941 -0.7573 -0.3050
  126OSM   C16F13537   2.187   5.648   8.165  0.2586 -0.3679  0.4626
  126OSM   H16F13538   2.209   5.549   8.210  0.7477  0.8471  2.9803
  126OSM   H16G13539   2.076   5.651   8.159  0.1780 -3.9597 -1.2680
  126OSM   C17F13540   2.239   5.743   8.275  0.8421 -0.5130 -0.6072
  126OSM   H17F13541   2.173   5.743   8.364 -0.6597 -0.6257 -1.7156
  126OSM   H17G13542   2.236   5.848   8.240 -1.0299 -0.7168 -1.0778
  126OSM   C18F13543   2.376   5.709   8.333  0.1192 -0.4290 -0.3807
  126OSM   H18F13544   2.385   5.614   8.389 -3.0729 -1.0673 -0.8447
  126OSM   H18G13545   2.411   5.786   8.405 -0.8066  1.8164 -2.2281
  126OSM   H18H13546   2.446   5.719   8.247  0.7676  0.2779  0.2231
  127OSM      N13547   3.364   3.581   6.148 -0.6999  0.2039  0.2189
  127OSM    C1513548   3.226   3.635   6.109 -0.3243  0.1458  0.5346
  127OSM   H15A13549   3.148   3.562   6.120 -0.0969 -0.1691  0.0778
  127OSM   H15B13550   3.227   3.680   6.011 -2.2544  0.0067  0.4467
  127OSM   H15C13551   3.207   3.719   6.175  1.0716 -0.2409  1.4539
  127OSM    C1413552   3.459   3.692   6.144 -0.2235 -0.0819  0.0658
  127OSM   H14A13553   3.441   3.780   6.204  0.2960 -0.0570  0.1903
  127OSM   H14B13554   3.457   3.722   6.040 -0.8157  0.4978  0.2401
  127OSM   H14C13555   3.562   3.664   6.158 -0.7875 -4.2693 -3.2262
  127OSM    C1313556   3.361   3.523   6.288  0.6147 -0.0752 -0.0325
  127OSM   H13A13557   3.306   3.589   6.354  0.5958  0.3869 -0.5052
  127OSM   H13B13558   3.460   3.518   6.329  0.0987  1.2482  1.4203
  127OSM   H13C13559   3.314   3.426   6.295 -0.6952  0.4480 -1.2458
  127OSM    C1213560   3.403   3.469   6.057  0.0891 -0.0044  0.0803
  127OSM   H12A13561   3.404   3.501   5.954 -2.0010 -0.0497  0.0351
  127OSM   H12B13562   3.330   3.390   6.069 -0.1462 -0.2582 -2.6342
  127OSM    C1113563   3.537   3.387   6.078  0.1608 -0.1439  0.1483
  127OSM   H11A13564   3.629   3.450   6.082  1.2947 -1.7934  0.6497
  127OSM   H11B13565   3.543   3.332   5.982  2.1595  1.2763 -0.5827
  127OSM      P13566   3.465   3.162   6.189 -0.1300  0.0397 -0.7745
  127OSM    O1313567   3.329   3.174   6.131 -0.0002 -0.1123 -0.0377
  127OSM    O1413568   3.560   3.074   6.114 -0.5703  0.5885 -0.1187
  127OSM    O1113569   3.448   3.120   6.340  0.0067 -0.1016  0.8082
  127OSM    O1213570   3.529   3.301   6.189  0.0360  0.5724 -0.6902
  127OSM    C1S13571   3.535   3.159   6.450 -0.7362  0.0278  0.3075
  127OSM    H1S13572   3.515   3.267   6.466 -0.1934 -0.2378  2.9065
  127OSM    H1T13573   3.640   3.141   6.420 -1.6141 -1.8514 -1.8309
  127OSM     NF13574   3.576   3.149   6.699  0.8133  0.8666  0.1333
  127OSM    HNF13575   3.668   3.119   6.721  1.3986  1.8695 -0.9024
  127OSM    C2S13576   3.518   3.077   6.579  0.7366  0.4185  0.1981
  127OSM    H2S13577   3.410   3.060   6.599  0.5895  0.9921 -0.0804
  127OSM    C3S13578   3.575   2.933   6.557 -0.5929  0.1732  0.0524
  127OSM    H3S13579   3.686   2.938   6.548 -0.4907 -0.8415  0.7788
  127OSM     O313580   3.533   2.880   6.426  0.3135 -0.1805  0.6437
  127OSM    HO313581   3.477   2.948   6.388  2.4843  1.4056  0.2184
  127OSM    C4S13582   3.557   2.840   6.671 -0.0537  0.0343  0.1512
  127OSM    H4S13583   3.639   2.847   6.744  0.2193 -1.6739  0.0279
  127OSM    C5S13584   3.474   2.737   6.682 -0.3084  0.0148  0.2930
  127OSM    H5S13585   3.417   2.710   6.592 -0.8201 -1.8446  1.1634
  127OSM    C6S13586   3.459   2.644   6.795 -0.1372 -0.2835 -0.5863
  127OSM    H6S13587   3.469   2.539   6.759  1.5959 -0.4768  0.4163
  127OSM    H6T13588   3.359   2.642   6.843  0.1908 -0.1616  0.1112
  127OSM    C7S13589   3.554   2.661   6.914  0.1551  0.0559  0.4937
  127OSM    H7S13590   3.565   2.771   6.923 -1.6330  0.5509 -2.5656
  127OSM    H7T13591   3.655   2.622   6.888 -0.6659 -2.0801  0.3559
  127OSM    C8S13592   3.497   2.611   7.046 -0.8308  0.0834  0.2327
  127OSM    H8S13593   3.476   2.502   7.039 -1.1100  0.2376 -1.5631
  127OSM    H8T13594   3.401   2.664   7.061 -0.7667  0.2499  0.0615
  127OSM    C9S13595   3.585   2.634   7.167  0.6606 -0.6079 -0.1920
  127OSM    H9S13596   3.611   2.742   7.171 -1.8098  0.0279 -0.8216
  127OSM    H9T13597   3.681   2.578   7.165  1.9349  1.4919  0.3480
  127OSM   C10S13598   3.506   2.598   7.291  0.2266 -0.8376 -0.4825
  127OSM   H10S13599   3.459   2.498   7.282 -1.4790 -0.0049 -1.0816
  127OSM   H10T13600   3.417   2.664   7.304 -0.3154 -1.7554  0.5627
  127OSM   C11S13601   3.581   2.609   7.428 -0.6241  0.5954  0.4022
  127OSM   H11S13602   3.584   2.716   7.458 -1.0011  0.2862  1.5731
  127OSM   H11T13603   3.684   2.566   7.422 -1.5559 -1.9251  1.8571
  127OSM   C12S13604   3.521   2.539   7.551 -0.5895 -0.7169  1.1206
  127OSM   H12S13605   3.582   2.573   7.637  2.2879  0.0703 -1.1433
  127OSM   H12T13606   3.534   2.428   7.547 -0.4866 -0.6826  0.1938
  127OSM   C13S13607   3.379   2.594   7.570 -0.0725 -0.2083  0.0267
  127OSM   H13S13608   3.293   2.554   7.512 -0.0902  0.0052 -0.0941
  127OSM   H13T13609   3.390   2.703   7.552  4.0426 -0.6191 -0.4325
  127OSM   C14S13610   3.323   2.577   7.716  0.4387  0.8276  0.1267
  127OSM   H14S13611   3.218   2.614   7.722 -0.5874 -1.3919 -2.8531
  127OSM   H14T13612   3.384   2.638   7.785 -0.9792  0.9096  1.3511
  127OSM   C15S13613   3.328   2.421   7.755 -0.3234 -0.4165  0.3100
  127OSM   H15S13614   3.437   2.396   7.753 -0.4943 -1.0695 -0.7204
  127OSM   H15T13615   3.279   2.362   7.675 -1.4569  1.0886 -0.1321
  127OSM   C16S13616   3.269   2.388   7.892  0.2741 -0.1854 -0.5590
  127OSM   H16S13617   3.165   2.428   7.896  0.2372 -0.3988  1.0377
  127OSM   H16T13618   3.327   2.448   7.966 -0.7537 -0.8599  0.8022
  127OSM   C17S13619   3.267   2.237   7.915  0.2504 -0.1674 -0.3177
  127OSM   H17S13620   3.367   2.189   7.922  0.3527 -0.0389 -0.8421
  127OSM   H17T13621   3.214   2.184   7.833 -1.2360  3.3929 -1.7649
  127OSM   C18S13622   3.194   2.207   8.050 -0.0021 -0.3595 -0.4215
  127OSM   H18S13623   3.093   2.253   8.057  0.4764  0.5939  0.1885
  127OSM   H18T13624   3.256   2.263   8.123 -2.1107  0.3269  0.8762
  127OSM   H18U13625   3.198   2.100   8.079 -0.5228  0.3681  2.4317
  127OSM    C1F13626   3.516   3.247   6.755  0.4300  0.3526 -0.2333
  127OSM     OF13627   3.415   3.282   6.700 -0.1287  0.0802 -0.4355
  127OSM    C2F13628   3.585   3.316   6.871  0.0917  0.2486  0.3106
  127OSM    H2F13629   3.600   3.423   6.847  0.1063  0.4171  1.0686
  127OSM    H2G13630   3.675   3.263   6.908  0.0281 -0.4674 -0.5566
  127OSM    C3F13631   3.496   3.326   6.999 -0.1484 -0.0268  0.3952
  127OSM    H3F13632   3.555   3.386   7.072  0.3378 -1.2385  1.0258
  127OSM    H3G13633   3.481   3.224   7.040  2.5714 -0.7430 -0.2630
  127OSM    C4F13634   3.364   3.403   6.971 -0.3854 -0.2145  0.1938
  127OSM    H4F13635   3.291   3.345   6.911  0.0376  1.0741 -1.6036
  127OSM    H4G13636   3.385   3.494   6.911 -1.1533  0.7931  1.4273
  127OSM    C5F13637   3.308   3.460   7.102  0.3270  0.2831 -0.0049
  127OSM    H5F13638   3.385   3.536   7.129  1.0855  0.0486 -1.4760
  127OSM    H5G13639   3.301   3.376   7.175 -1.6648 -0.4439 -1.0187
  127OSM    C6F13640   3.179   3.521   7.070  0.0913  0.4464  0.2243
  127OSM    H6F13641   3.109   3.455   7.013  0.4132  2.5159 -2.7026
  127OSM    H6G13642   3.192   3.603   6.996 -1.5957  0.9016  0.3957
  127OSM    C7F13643   3.102   3.571   7.194 -0.2340 -0.0872  0.3435
  127OSM    H7F13644   3.102   3.484   7.263 -1.0177 -0.1624  0.2538
  127OSM    H7G13645   2.997   3.582   7.159  0.3054  2.3299 -0.6259
  127OSM    C8F13646   3.168   3.693   7.261  0.1748 -0.8754  0.0199
  127OSM    H8F13647   3.167   3.780   7.192 -1.1224 -2.2386 -1.7330
  127OSM    H8G13648   3.276   3.669   7.268  0.2149 -0.4020  1.0697
  127OSM    C9F13649   3.118   3.725   7.399  0.1822 -0.6054  0.0704
  127OSM    H9F13650   3.019   3.774   7.400  0.0053 -0.9298 -0.8814
  127OSM   C10F13651   3.177   3.682   7.515  0.1338 -0.1249 -0.0957
  127OSM   H10F13652   3.129   3.708   7.610  0.7513 -1.8945  0.7332
  127OSM   C11F13653   3.303   3.604   7.542 -0.1393 -0.3954 -0.3278
  127OSM   H11F13654   3.378   3.624   7.463  2.2579 -0.4753  1.8609
  127OSM   H11G13655   3.271   3.498   7.551 -0.3833 -0.1240  2.2423
  127OSM   C12F13656   3.384   3.622   7.679 -0.1497 -0.5035 -0.0229
  127OSM   H12F13657   3.416   3.727   7.697 -0.8873 -0.3506  0.4328
  127OSM   H12G13658   3.480   3.566   7.677  0.1966  0.0014  1.7915
  127OSM   C13F13659   3.308   3.572   7.809  0.4611  0.5613  0.0717
  127OSM   H13F13660   3.294   3.463   7.790  1.7302  0.5725 -1.0110
  127OSM   H13G13661   3.209   3.620   7.825  0.0747  0.1994 -1.1675
  127OSM   C14F13662   3.384   3.595   7.942 -0.3158  0.1960  0.2018
  127OSM   H14F13663   3.319   3.546   8.017  1.9599 -0.3451  1.8656
  127OSM   H14G13664   3.398   3.704   7.956 -3.4503  0.8259 -1.1612
  127OSM   C15F13665   3.529   3.532   7.945  1.3887 -0.4796  0.4729
  127OSM   H15F13666   3.568   3.525   8.049  3.3290 -0.0410 -0.1962
  127OSM   H15G13667   3.600   3.590   7.882 -0.9565  0.3461 -1.4982
  127OSM   C16F13668   3.521   3.390   7.896 -0.4576  0.1160 -0.1237
  127OSM   H16F13669   3.507   3.391   7.786 -1.5104  0.5919  0.0017
  127OSM   H16G13670   3.429   3.349   7.943 -0.5308  0.3986 -0.0165
  127OSM   C17F13671   3.655   3.311   7.916  1.2717 -0.2057 -0.2161
  127OSM   H17F13672   3.630   3.203   7.910 -0.2797  0.1117  0.3565
  127OSM   H17G13673   3.685   3.336   8.020 -0.7735  0.4662  0.2366
  127OSM   C18F13674   3.762   3.344   7.821  0.5817  0.5438  0.3490
  127OSM   H18F13675   3.784   3.453   7.831  0.1834  0.6550  0.0185
  127OSM   H18G13676   3.723   3.333   7.717 -1.2919  0.4330  1.0632
  127OSM   H18H13677   3.855   3.283   7.821  1.5098  1.9367  0.3436
  128OSM      N13678   5.950   6.457   6.374  0.6885 -0.8360 -0.3150
  128OSM    C1513679   5.869   6.342   6.422 -0.8571  0.0971  0.0720
  128OSM   H15A13680   5.903   6.253   6.370 -1.8046 -0.0246 -0.3430
  128OSM   H15B13681   5.764   6.363   6.416 -0.5424  2.1462  1.5058
  128OSM   H15C13682   5.889   6.316   6.525  1.0080 -0.5111 -0.4076
  128OSM    C1413683   6.092   6.450   6.423  0.0933 -0.7690  0.2426
  128OSM   H14A13684   6.142   6.538   6.387 -0.9126 -0.1468  0.3485
  128OSM   H14B13685   6.142   6.362   6.385  2.4447  1.2781 -1.5495
  128OSM   H14C13686   6.115   6.468   6.527 -0.5342 -0.1083  0.2672
  128OSM    C1313687   5.957   6.447   6.222  0.4524 -0.7631  0.1648
  128OSM   H13A13688   6.033   6.377   6.192  0.4255 -1.2746  1.2679
  128OSM   H13B13689   5.980   6.546   6.185 -0.3561 -0.4900  0.3815
  128OSM   H13C13690   5.858   6.427   6.183  0.1950  0.5412  0.1256
  128OSM    C1213691   5.898   6.592   6.412  0.2847 -0.0345  0.2134
  128OSM   H12A13692   5.958   6.673   6.371  0.1019 -1.0861 -2.2401
  128OSM   H12B13693   5.897   6.596   6.520  0.4533 -2.2891  0.3247
  128OSM    C1113694   5.752   6.620   6.380  0.1253  0.1360 -0.2899
  128OSM   H11A13695   5.721   6.721   6.416  0.8710 -0.0842  1.0044
  128OSM   H11B13696   5.700   6.550   6.450  2.0684 -1.3205 -0.2839
  128OSM      P13697   5.589   6.533   6.205 -0.2607 -0.0977 -0.5182
  128OSM    O1313698   5.547   6.589   6.078  0.6949  0.5263  0.1423
  128OSM    O1413699   5.604   6.388   6.210 -0.4196 -0.0028 -0.1418
  128OSM    O1113700   5.497   6.574   6.328  0.0321 -0.5308  0.5626
  128OSM    O1213701   5.728   6.601   6.244  0.0967  0.1763  0.1286
  128OSM    C1S13702   5.408   6.488   6.401 -0.4405 -0.3403  0.2209
  128OSM    H1S13703   5.427   6.380   6.380 -0.0297  0.0024 -1.2847
  128OSM    H1T13704   5.302   6.510   6.375 -1.3683 -3.0294  1.5462
  128OSM     NF13705   5.335   6.391   6.627 -0.0231  0.0699  0.6413
  128OSM    HNF13706   5.253   6.410   6.680  1.3674  0.4435  2.7452
  128OSM    C2S13707   5.413   6.498   6.560 -0.0720 -0.1875  0.6494
  128OSM    H2S13708   5.518   6.501   6.594  0.1265  3.4923 -0.1445
  128OSM    C3S13709   5.362   6.642   6.596  0.2896  0.6367  0.6901
  128OSM    H3S13710   5.255   6.652   6.570  0.9863  1.7420 -1.8350
  128OSM     O313711   5.425   6.741   6.514 -0.0673 -0.1328  0.2158
  128OSM    HO313712   5.455   6.682   6.444 -1.4637 -2.5897  1.6165
  128OSM    C4S13713   5.375   6.660   6.745  0.6567 -0.0757  0.5501
  128OSM    H4S13714   5.281   6.634   6.796  0.2860  0.6879  0.2764
  128OSM    C5S13715   5.481   6.724   6.801 -0.4113 -0.3558  0.1518
  128OSM    H5S13716   5.558   6.765   6.733 -1.0230 -0.2211 -0.4668
  128OSM    C6S13717   5.518   6.748   6.941 -0.1537 -0.3020 -0.5183
  128OSM    H6S13718   5.562   6.847   6.966  1.1526 -0.9595 -0.1514
  128OSM    H6T13719   5.586   6.673   6.986 -0.4166 -0.4541 -0.3742
  128OSM    C7S13720   5.400   6.764   7.037 -0.2115  0.2085 -0.1433
  128OSM    H7S13721   5.380   6.657   7.059 -1.7257 -0.0170 -2.4730
  128OSM    H7T13722   5.318   6.825   6.993  0.9429  1.3330 -0.7782
  128OSM    C8S13723   5.447   6.825   7.171 -0.1768  0.3200  0.2645
  128OSM    H8S13724   5.451   6.935   7.158  0.0412  0.2094 -0.6154
  128OSM    H8T13725   5.547   6.782   7.196  0.2226  1.6384  0.9593
  128OSM    C9S13726   5.361   6.799   7.294 -0.3748 -0.3599  0.2377
  128OSM    H9S13727   5.356   6.692   7.322  0.1530 -0.8404 -1.4350
  128OSM    H9T13728   5.258   6.819   7.257  0.0637  1.6185  0.0526
  128OSM   C10S13729   5.385   6.887   7.418  0.3593 -0.2640  0.3421
  128OSM   H10S13730   5.362   6.991   7.387 -0.1885 -1.1555 -2.3581
  128OSM   H10T13731   5.491   6.890   7.451 -0.2397  2.0430  2.2799
  128OSM   C11S13732   5.292   6.850   7.535  0.5064  0.7423  0.1769
  128OSM   H11S13733   5.307   6.741   7.549 -0.7029  0.5912  0.2762
  128OSM   H11T13734   5.184   6.869   7.519  0.6194  1.8763  0.7298
  128OSM   C12S13735   5.333   6.925   7.660  0.5081  1.0290  0.3150
  128OSM   H12S13736   5.327   7.034   7.643  1.4882  0.9931 -0.2739
  128OSM   H12T13737   5.442   6.909   7.679  0.6281  0.9409 -0.4357
  128OSM   C13S13738   5.240   6.889   7.778  0.2336  0.5535  0.3614
  128OSM   H13S13739   5.241   6.781   7.803  1.8577  0.4023 -0.2979
  128OSM   H13T13740   5.136   6.916   7.751 -0.3026 -3.6706 -2.1208
  128OSM   C14S13741   5.277   6.953   7.912  0.1069 -0.4321 -0.5080
  128OSM   H14S13742   5.285   7.064   7.903  0.1993 -0.3364  0.6258
  128OSM   H14T13743   5.380   6.920   7.940 -0.1546 -1.2233 -0.4787
  128OSM   C15S13744   5.169   6.915   8.016 -0.8403  0.4421 -0.0864
  128OSM   H15S13745   5.156   6.805   8.023 -0.3282  0.5477  3.3300
  128OSM   H15T13746   5.068   6.937   7.976  0.1956  0.7525 -2.6240
  128OSM   C16S13747   5.195   6.975   8.159 -0.1927 -0.7262  0.8880
  128OSM   H16S13748   5.184   7.084   8.146  0.3533 -0.8829 -1.0612
  128OSM   H16T13749   5.300   6.960   8.190  1.1387  0.6493 -2.7428
  128OSM   C17S13750   5.100   6.906   8.263  0.5189 -0.3942  0.1427
  128OSM   H17S13751   5.104   6.795   8.260  1.7413 -0.3432 -0.6956
  128OSM   H17T13752   5.001   6.948   8.236 -0.0513 -2.8154 -1.6976
  128OSM   C18S13753   5.126   6.954   8.406  0.0244 -0.2876 -0.0776
  128OSM   H18S13754   5.106   7.062   8.425 -0.3490 -0.0232 -1.8756
  128OSM   H18T13755   5.233   6.938   8.434 -0.3326  0.5252  1.8304
  128OSM   H18U13756   5.062   6.896   8.475  0.5875  0.4867  1.1299
  128OSM    C1F13757   5.381   6.268   6.622  0.0370  0.2308  1.0657
  128OSM     OF13758   5.490   6.242   6.568  0.2434  0.3175 -0.1150
  128OSM    C2F13759   5.296   6.158   6.684 -0.4095  0.1179 -0.1360
  128OSM    H2F13760   5.310   6.060   6.634 -0.2347  0.8751 -1.5925
  128OSM    H2G13761   5.190   6.186   6.667 -0.0893  1.1723 -0.4417
  128OSM    C3F13762   5.325   6.150   6.838 -0.4830  0.5818  0.0808
  128OSM    H3F13763   5.305   6.247   6.888  4.2909  1.7026  0.0923
  128OSM    H3G13764   5.434   6.127   6.838 -0.6822 -0.4244  1.3169
  128OSM    C4F13765   5.246   6.034   6.897 -0.2837  0.1394  0.1016
  128OSM    H4F13766   5.240   5.942   6.835  0.7705 -0.6669  1.1608
  128OSM    H4G13767   5.140   6.058   6.916 -0.4206  1.2248 -1.9300
  128OSM    C5F13768   5.313   5.980   7.021  0.6852 -0.0037 -0.0789
  128OSM    H5F13769   5.421   5.970   6.996 -0.2081 -2.1029 -3.4710
  128OSM    H5G13770   5.282   5.876   7.048  0.8544 -0.2602 -0.8633
  128OSM    C6F13771   5.288   6.064   7.143  0.0394 -0.0436  0.3903
  128OSM    H6F13772   5.179   6.086   7.138 -0.2263 -1.7725 -3.6900
  128OSM    H6G13773   5.342   6.160   7.133 -0.6630  0.4841  1.5594
  128OSM    C7F13774   5.325   5.992   7.275  0.2948 -0.9556 -0.0901
  128OSM    H7F13775   5.432   5.963   7.289  0.3633  0.3030  2.1579
  128OSM    H7G13776   5.268   5.897   7.269 -2.1896  0.5721 -1.1274
  128OSM    C8F13777   5.277   6.069   7.396 -0.7874  0.4381  0.3257
  128OSM    H8F13778   5.181   6.120   7.372 -0.6166  0.8669  0.5388
  128OSM    H8G13779   5.341   6.160   7.405  1.2518 -1.0589  1.3609
  128OSM    C9F13780   5.285   5.980   7.520  0.8230  0.2117  0.6907
  128OSM    H9F13781   5.358   5.898   7.520  0.6185 -0.0055 -1.3084
  128OSM   C10F13782   5.231   5.993   7.643 -0.7076  0.7371  0.5975
  128OSM   H10F13783   5.262   5.925   7.723  0.3602  0.9489  0.3780
  128OSM   C11F13784   5.145   6.105   7.683 -0.6797  0.2142  0.1420
  128OSM   H11F13785   5.055   6.059   7.729 -1.5050  2.5187  0.9135
  128OSM   H11G13786   5.103   6.175   7.608 -4.2729 -1.6109  0.3748
  128OSM   C12F13787   5.228   6.177   7.794  0.0847 -0.0010 -0.3627
  128OSM   H12F13788   5.169   6.266   7.824  1.7468  0.9846  0.0798
  128OSM   H12G13789   5.332   6.203   7.764 -0.2683 -0.8227 -2.3740
  128OSM   C13F13790   5.250   6.105   7.930 -0.1086  0.3313  0.4603
  128OSM   H13F13791   5.314   6.176   7.986  1.4961 -1.5891  1.1445
  128OSM   H13G13792   5.305   6.010   7.911  0.3172  0.4496  1.0799
  128OSM   C14F13793   5.119   6.082   8.014 -0.6179  0.3118 -0.1444
  128OSM   H14F13794   5.149   6.023   8.102 -0.8900 -0.4031 -0.5294
  128OSM   H14G13795   5.056   6.014   7.952 -1.3331  0.8495 -0.0193
  128OSM   C15F13796   5.044   6.215   8.045 -0.1195  0.3129  0.1803
  128OSM   H15F13797   4.988   6.247   7.955 -0.5586  1.8519  0.9776
  128OSM   H15G13798   5.117   6.293   8.073 -0.7195  0.6407  0.8537
  128OSM   C16F13799   4.946   6.199   8.172 -0.0871 -0.5545  0.8351
  128OSM   H16F13800   4.882   6.114   8.141  0.3442 -0.7093  0.3594
  128OSM   H16G13801   4.886   6.292   8.174 -1.7367 -1.5579 -0.4199
  128OSM   C17F13802   5.014   6.186   8.304  1.1060 -0.4791  0.6296
  128OSM   H17F13803   5.046   6.289   8.334  2.4025 -0.7894  0.3761
  128OSM   H17G13804   5.104   6.122   8.292  1.0477 -0.2282 -1.1988
  128OSM   C18F13805   4.927   6.117   8.421 -0.3555 -0.8415 -0.5145
  128OSM   H18F13806   4.940   6.177   8.515 -3.2371  0.6361 -0.9983
  128OSM   H18G13807   4.955   6.011   8.436  1.8736 -0.3543 -0.9284
  128OSM   H18H13808   4.824   6.108   8.383  0.0813 -3.2617 -1.1791
  129OSM      N13809   2.537   3.368   6.356  0.0915  0.9395  0.4141
  129OSM    C1513810   2.401   3.366   6.286  0.1009  0.3385  0.0216
  129OSM   H15A13811   2.326   3.314   6.344  1.9700 -1.1375  1.2055
  129OSM   H15B13812   2.419   3.321   6.189 -1.2618  1.5673 -0.8137
  129OSM   H15C13813   2.368   3.468   6.272  1.3490  1.2295  3.0946
  129OSM    C1413814   2.629   3.428   6.263 -0.1960  0.6632 -0.6741
  129OSM   H14A13815   2.642   3.356   6.183  0.8585  1.5611 -1.3228
  129OSM   H14B13816   2.726   3.434   6.310  0.6944 -0.8629 -2.2560
  129OSM   H14C13817   2.598   3.518   6.211 -0.0189  1.7624  1.0911
  129OSM    C1313818   2.516   3.445   6.490 -0.6516  0.6136 -0.7113
  129OSM   H13A13819   2.431   3.408   6.547  0.2809 -0.9638 -0.2955
  129OSM   H13B13820   2.497   3.548   6.466 -1.3794  0.0508 -2.6081
  129OSM   H13C13821   2.601   3.423   6.553 -2.0986 -1.5406  0.5783
  129OSM    C1213822   2.576   3.223   6.383 -0.6625  0.1947 -0.1388
  129OSM   H12A13823   2.492   3.191   6.443 -0.3230 -0.5249 -0.0498
  129OSM   H12B13824   2.660   3.233   6.451 -1.2927  0.8328  0.5610
  129OSM    C1113825   2.606   3.127   6.270  0.1677 -0.3317  0.7184
  129OSM   H11A13826   2.526   3.129   6.192  0.9594  2.2247 -0.1047
  129OSM   H11B13827   2.592   3.023   6.304  1.1245 -1.0618 -1.0852
  129OSM      P13828   2.855   3.050   6.213  0.0252 -0.3191 -0.1910
  129OSM    O1313829   2.813   2.915   6.185  0.1235 -1.2210 -0.1231
  129OSM    O1413830   2.956   3.108   6.122 -0.0731  0.2925  0.4290
  129OSM    O1113831   2.900   3.053   6.363  0.4854  0.7389 -0.6767
  129OSM    O1213832   2.730   3.149   6.209  0.1520  0.2843 -0.3511
  129OSM    C1S13833   2.943   3.174   6.425 -1.0373 -0.0347  0.0918
  129OSM    H1S13834   2.858   3.245   6.426 -0.5066  0.5898  1.6995
  129OSM    H1T13835   3.032   3.217   6.373 -0.2987 -1.2007  0.3607
  129OSM     NF13836   2.992   3.287   6.642 -0.2904 -0.0688 -0.8942
  129OSM    HNF13837   3.081   3.332   6.651  1.6632 -4.0242  1.1909
  129OSM    C2S13838   2.995   3.151   6.576  0.6695  0.2473 -0.2762
  129OSM    H2S13839   2.921   3.082   6.621  0.2138  1.3639  0.7013
  129OSM    C3S13840   3.139   3.080   6.573 -0.2564  0.2438  0.3532
  129OSM    H3S13841   3.210   3.153   6.528 -0.7928 -0.3649 -1.5344
  129OSM     O313842   3.146   2.964   6.490 -0.3925  0.2094  0.5092
  129OSM    HO313843   3.054   2.961   6.463 -0.7946 -0.1632  1.9209
  129OSM    C4S13844   3.184   3.044   6.710 -0.0814 -0.5425  0.0790
  129OSM    H4S13845   3.233   3.128   6.761 -2.3458 -0.5810  2.4220
  129OSM    C5S13846   3.175   2.929   6.770  0.4017  0.1773  0.2071
  129OSM    H5S13847   3.124   2.847   6.717 -0.2190  0.3091  0.5904
  129OSM    C6S13848   3.210   2.903   6.922 -0.5744 -0.2765 -0.0919
  129OSM    H6S13849   3.303   2.845   6.937  0.0297  0.2084 -1.8732
  129OSM    H6T13850   3.123   2.845   6.961 -0.8857  0.4984  0.3671
  129OSM    C7S13851   3.244   3.026   7.011 -0.2631  0.0181  0.1920
  129OSM    H7S13852   3.164   3.103   6.998  1.0088  1.3888  0.4009
  129OSM    H7T13853   3.337   3.074   6.974  0.2460  0.0596  1.4985
  129OSM    C8S13854   3.269   2.969   7.156 -0.2508  0.0517 -0.3093
  129OSM    H8S13855   3.316   2.869   7.147 -0.1779 -0.0856  1.3134
  129OSM    H8T13856   3.169   2.958   7.203 -1.1295 -0.1880 -2.1985
  129OSM    C9S13857   3.362   3.060   7.240  0.7839  0.3552 -0.4396
  129OSM    H9S13858   3.321   3.163   7.233  0.4150  0.1940 -0.6878
  129OSM    H9T13859   3.463   3.058   7.195 -0.0931  1.9540 -2.5537
  129OSM   C10S13860   3.356   3.013   7.383 -0.0208  0.2811 -0.0291
  129OSM   H10S13861   3.360   2.902   7.396  0.2663  0.3008  0.0593
  129OSM   H10T13862   3.256   3.039   7.424  1.3389  0.9856  2.9821
  129OSM   C11S13863   3.439   3.103   7.483  0.6849 -0.0403  0.0714
  129OSM   H11S13864   3.420   3.207   7.449 -0.8579 -0.2206  0.3109
  129OSM   H11T13865   3.548   3.085   7.472  0.6451  0.2408 -0.7900
  129OSM   C12S13866   3.375   3.100   7.622 -0.1146  0.3241 -0.2682
  129OSM   H12S13867   3.264   3.090   7.630 -0.1069 -0.1557 -0.7376
  129OSM   H12T13868   3.412   3.189   7.677  3.3967 -1.3621  0.2340
  129OSM   C13S13869   3.432   2.991   7.716  0.5132  0.1465 -0.7728
  129OSM   H13S13870   3.543   2.996   7.716  0.5777 -0.7432  0.7625
  129OSM   H13T13871   3.421   2.888   7.676 -0.2539 -1.2118  2.7113
  129OSM   C14S13872   3.391   3.014   7.862 -0.1632 -0.4271 -0.2039
  129OSM   H14S13873   3.280   3.004   7.872 -0.0674 -1.3071  0.0364
  129OSM   H14T13874   3.415   3.119   7.887  1.7528 -1.4487  2.4045
  129OSM   C15S13875   3.455   2.914   7.958  0.8195  0.1223 -0.0692
  129OSM   H15S13876   3.565   2.920   7.941  1.0759  3.2031  2.0609
  129OSM   H15T13877   3.435   2.806   7.941 -2.0123  0.8882 -1.8887
  129OSM   C16S13878   3.417   2.950   8.105  0.0920 -0.1890 -0.3788
  129OSM   H16S13879   3.310   2.922   8.109  0.5396 -2.0049 -0.8490
  129OSM   H16T13880   3.421   3.061   8.108  1.5173 -0.1897 -1.4392
  129OSM   C17S13881   3.515   2.883   8.199 -0.2404  0.3882 -0.2244
  129OSM   H17S13882   3.489   2.929   8.297  2.3827  1.2687  0.0822
  129OSM   H17T13883   3.620   2.907   8.172  0.2096 -0.0551  1.0576
  129OSM   C18S13884   3.494   2.732   8.214  0.3873  0.7780  0.3896
  129OSM   H18S13885   3.390   2.700   8.236  0.5698 -1.2698 -1.5374
  129OSM   H18T13886   3.555   2.694   8.299  1.1758  0.2093 -0.4143
  129OSM   H18U13887   3.516   2.683   8.117 -1.1060  0.5280  0.1641
  129OSM    C1F13888   2.876   3.346   6.681  0.1707  0.3583  0.1276
  129OSM     OF13889   2.769   3.286   6.668  0.6017  0.0545 -0.6506
  129OSM    C2F13890   2.886   3.481   6.742  0.1081 -0.0498  0.7404
  129OSM    H2F13891   2.946   3.544   6.673 -1.1255  0.4035  0.0571
  129OSM    H2G13892   2.935   3.474   6.841 -2.9565  0.1383  2.3316
  129OSM    C3F13893   2.742   3.550   6.749  0.5844  0.4134 -0.0482
  129OSM    H3F13894   2.672   3.474   6.789 -0.5043  1.8432  0.8217
  129OSM    H3G13895   2.697   3.573   6.650 -1.5466  1.5563  1.1581
  129OSM    C4F13896   2.745   3.675   6.837  0.5074 -0.1675  0.3289
  129OSM    H4F13897   2.833   3.730   6.796 -0.7446  0.8030 -1.1508
  129OSM    H4G13898   2.761   3.654   6.945 -0.0413  1.5382  0.7726
  129OSM    C5F13899   2.614   3.761   6.819 -0.3839  0.0257 -0.7032
  129OSM    H5F13900   2.621   3.797   6.714  0.9679  3.8029  0.6025
  129OSM    H5G13901   2.609   3.843   6.894 -1.2287 -0.9612  0.3511
  129OSM    C6F13902   2.494   3.669   6.842 -0.3122 -0.0349 -0.8936
  129OSM    H6F13903   2.493   3.584   6.770 -1.3120 -1.2661  0.5380
  129OSM    H6G13904   2.404   3.733   6.825 -1.6401 -1.4889  0.4715
  129OSM    C7F13905   2.479   3.611   6.981  0.7179 -0.4784  0.0262
  129OSM    H7F13906   2.504   3.697   7.047 -1.4853 -0.9899  1.5607
  129OSM    H7G13907   2.563   3.540   6.997  2.4484  1.6578  0.6547
  129OSM    C8F13908   2.343   3.544   7.016 -0.1261  0.5812  0.2610
  129OSM    H8F13909   2.358   3.475   7.102  2.5556  0.7333 -0.0654
  129OSM    H8G13910   2.306   3.476   6.937 -0.0035  0.0108  0.6882
  129OSM    C9F13911   2.229   3.643   7.046 -0.0909 -0.2941  0.0769
  129OSM    H9F13912   2.190   3.694   6.956  0.5160 -0.3561 -0.2260
  129OSM   C10F13913   2.173   3.684   7.163  0.2630 -0.3665 -0.3815
  129OSM   H10F13914   2.094   3.759   7.149 -0.5078 -1.4734 -2.1502
  129OSM   C11F13915   2.212   3.654   7.303 -0.2867 -0.2408 -0.1472
  129OSM   H11F13916   2.292   3.577   7.292  1.5841  1.7683 -0.9399
  129OSM   H11G13917   2.138   3.598   7.364 -0.0279  0.4429  0.8042
  129OSM   C12F13918   2.260   3.773   7.394 -0.3882  0.2140  0.1977
  129OSM   H12F13919   2.326   3.839   7.333  1.9465 -1.6814  0.5976
  129OSM   H12G13920   2.332   3.732   7.467 -2.1686  2.6649  3.4803
  129OSM   C13F13921   2.161   3.854   7.469 -0.6740 -0.1802 -0.3386
  129OSM   H13F13922   2.143   3.801   7.565 -0.0086  3.6126  1.9684
  129OSM   H13G13923   2.075   3.883   7.405 -0.1952  2.5316  0.1858
  129OSM   C14F13924   2.225   3.987   7.505  0.1283  0.1738 -0.1946
  129OSM   H14F13925   2.272   4.029   7.413  1.3050 -3.1145 -1.1722
  129OSM   H14G13926   2.304   3.981   7.582  0.5260  0.0101 -0.6131
  129OSM   C15F13927   2.132   4.091   7.547 -0.6829 -0.1353  0.3424
  129OSM   H15F13928   2.060   4.109   7.464  1.5348  0.7316 -1.4548
  129OSM   H15G13929   2.190   4.183   7.570  0.5433 -0.3968 -1.5485
  129OSM   C16F13930   2.053   4.055   7.671  0.5454  0.0488 -0.1928
  129OSM   H16F13931   2.116   4.046   7.762 -1.0414 -1.3501  0.8136
  129OSM   H16G13932   2.006   3.955   7.658 -0.4101  0.1308  2.4149
  129OSM   C17F13933   1.939   4.147   7.699  0.0754 -0.2624  0.0174
  129OSM   H17F13934   1.882   4.151   7.604  0.9959 -1.9117 -0.6348
  129OSM   H17G13935   1.979   4.247   7.726  1.2689 -0.1004 -2.2219
  129OSM   C18F13936   1.854   4.098   7.811 -0.1059  0.2163  0.3056
  129OSM   H18F13937   1.785   4.179   7.843 -0.3223  0.1106  0.1098
  129OSM   H18G13938   1.916   4.075   7.901  0.7070 -0.0984 -0.3368
  129OSM   H18H13939   1.793   4.007   7.793  2.3035 -1.6374  1.2439
  130OSM      N13940   5.697   5.470   5.862  0.5840 -0.2024 -0.0819
  130OSM    C1513941   5.592   5.564   5.903  0.2826  0.2511  0.6204
  130OSM   H15A13942   5.550   5.609   5.814  0.9711 -0.7592 -0.2207
  130OSM   H15B13943   5.637   5.626   5.979  3.2792  0.2847 -1.1045
  130OSM   H15C13944   5.508   5.519   5.952  0.7497  0.3028  1.4784
  130OSM    C1413945   5.628   5.357   5.783 -0.6100  0.2528  0.1039
  130OSM   H14A13946   5.698   5.277   5.762 -0.9715  0.8097 -3.5293
  130OSM   H14B13947   5.583   5.394   5.692 -0.6683 -1.7942 -0.7409
  130OSM   H14C13948   5.539   5.325   5.835 -1.8444 -0.0319 -2.1048
  130OSM    C1313949   5.809   5.540   5.786  0.3224 -0.2020  0.0416
  130OSM   H13A13950   5.764   5.598   5.706  1.6360  0.1655 -0.4445
  130OSM   H13B13951   5.872   5.472   5.730 -1.1361 -0.9969 -0.6625
  130OSM   H13C13952   5.868   5.595   5.857 -1.5296  0.4605  1.0828
  130OSM    C1213953   5.750   5.404   5.993 -0.5908 -0.4251  0.6743
  130OSM   H12A13954   5.822   5.332   5.957 -2.9465 -2.5500  0.0680
  130OSM   H12B13955   5.673   5.349   6.044  0.0522 -3.0532 -1.0818
  130OSM    C1113956   5.822   5.498   6.094  0.5946 -0.2202 -0.2629
  130OSM   H11A13957   5.866   5.422   6.162 -1.7537 -1.9822 -0.6366
  130OSM   H11B13958   5.747   5.549   6.158  0.7367  0.6246 -0.7553
  130OSM      P13959   6.067   5.588   6.073 -0.1750 -0.2267 -0.2999
  130OSM    O1313960   6.131   5.473   6.007  0.4576  0.0981 -1.2304
  130OSM    O1413961   6.114   5.727   6.038  0.2860 -0.2773  0.2475
  130OSM    O1113962   6.074   5.578   6.229 -0.2924  0.4719 -0.1696
  130OSM    O1213963   5.910   5.597   6.043 -0.2651 -0.2177 -0.5514
  130OSM    C1S13964   6.013   5.677   6.311 -0.9653 -0.8231 -0.1248
  130OSM    H1S13965   5.910   5.705   6.282 -1.9396  1.5690  5.0391
  130OSM    H1T13966   6.074   5.770   6.308 -1.0106 -0.8265 -1.3205
  130OSM     NF13967   5.969   5.732   6.537 -0.3028  0.0046  0.1732
  130OSM    HNF13968   6.024   5.807   6.572 -0.6566 -0.3612  1.5666
  130OSM    C2S13969   6.026   5.628   6.457 -0.0842 -0.4842  0.1717
  130OSM    H2S13970   5.963   5.538   6.470  0.7072 -1.1874 -0.7307
  130OSM    C3S13971   6.172   5.598   6.493 -0.0405 -0.1910  0.3017
  130OSM    H3S13972   6.233   5.690   6.483  1.5686 -1.3832 -1.2304
  130OSM     O313973   6.235   5.496   6.417  0.4470  0.5593  0.6185
  130OSM    HO313974   6.176   5.481   6.343  0.5842 -2.5503  1.0889
  130OSM    C4S13975   6.178   5.555   6.638  0.3469 -0.1033  0.1111
  130OSM    H4S13976   6.124   5.462   6.662  3.7380 -2.3636 -0.6873
  130OSM    C5S13977   6.262   5.595   6.730 -0.0990 -0.2489  0.1360
  130OSM    H5S13978   6.332   5.676   6.704  1.4290 -1.9101 -0.9554
  130OSM    C6S13979   6.267   5.532   6.871  0.2275 -0.3043  0.2894
  130OSM    H6S13980   6.364   5.551   6.921  0.6432 -2.3104  0.2781
  130OSM    H6T13981   6.252   5.422   6.860 -0.4760 -0.0460 -1.3963
  130OSM    C7S13982   6.164   5.591   6.972 -0.2569 -0.1574 -0.2716
  130OSM    H7S13983   6.061   5.593   6.930  0.6320 -3.8142 -2.9280
  130OSM    H7T13984   6.189   5.698   6.990  0.7194 -0.3744 -0.3028
  130OSM    C8S13985   6.176   5.524   7.110 -0.1419  0.2995 -0.3776
  130OSM    H8S13986   6.278   5.481   7.123 -0.2039  0.1931 -0.2459
  130OSM    H8T13987   6.104   5.439   7.107  1.4709 -1.0935 -0.0170
  130OSM    C9S13988   6.137   5.621   7.219 -0.0820 -0.0550  0.6579
  130OSM    H9S13989   6.041   5.669   7.190 -0.7371 -2.3320 -1.1449
  130OSM    H9T13990   6.216   5.699   7.216 -1.4858  1.3497 -0.2309
  130OSM   C10S13991   6.129   5.560   7.346 -0.2525  0.0487 -0.1579
  130OSM   H10S13992   6.220   5.501   7.372  1.1222  1.6476 -1.1733
  130OSM   H10T13993   6.046   5.487   7.340  0.7502 -0.9617 -2.1436
  130OSM   C11S13994   6.082   5.649   7.464  0.3700 -0.1529 -0.8632
  130OSM   H11S13995   5.982   5.695   7.453 -0.4323 -1.3447  1.2868
  130OSM   H11T13996   6.160   5.724   7.488  0.0497  0.3316 -1.3399
  130OSM   C12S13997   6.071   5.558   7.586 -0.4345  0.1632 -0.6674
  130OSM   H12S13998   6.159   5.491   7.599 -0.9750 -0.1859  1.4375
  130OSM   H12T13999   5.984   5.489   7.578 -1.0827  0.9994 -0.8421
  130OSM   C13S14000   6.069   5.634   7.721 -0.1655  0.0261 -0.1494
  130OSM   H13S14001   5.993   5.715   7.719  2.4956  2.6414  0.5376
  130OSM   H13T14002   6.166   5.688   7.733  0.9919 -2.0686  0.2750
  130OSM   C14S14003   6.058   5.544   7.847  0.0584  0.3150  0.2636
  130OSM   H14S14004   6.147   5.497   7.894 -0.1557  0.6473  1.0122
  130OSM   H14T14005   5.979   5.471   7.818 -2.5176  2.7963  0.7975
  130OSM   C15S14006   6.001   5.626   7.969  0.2008  0.5005 -0.5704
  130OSM   H15S14007   5.984   5.551   8.049  0.9667  0.5740 -0.3379
  130OSM   H15T14008   5.909   5.684   7.944  0.6991  1.9956  0.9449
  130OSM   C16S14009   6.097   5.741   8.017  0.2042  0.6701  0.0232
  130OSM   H16S14010   6.083   5.835   7.959  1.5200  2.3463  2.3439
  130OSM   H16T14011   6.203   5.711   8.008 -0.2488 -0.9429 -0.1300
  130OSM   C17S14012   6.069   5.765   8.168 -0.4682  0.5437  0.6470
  130OSM   H17S14013   6.062   5.662   8.207  0.4362 -1.0347 -3.0799
  130OSM   H17T14014   5.971   5.815   8.181  0.2816  1.9722  0.8687
  130OSM   C18S14015   6.179   5.845   8.225 -0.8751  0.1110  0.1325
  130OSM   H18S14016   6.167   5.871   8.333  0.6421  0.4392  0.2249
  130OSM   H18T14017   6.207   5.937   8.170  0.3606  0.1118  0.7428
  130OSM   H18U14018   6.273   5.786   8.223  1.0489  2.9810  2.1915
  130OSM    C1F14019   5.836   5.746   6.560  0.1808  0.2741 -0.0283
  130OSM     OF14020   5.764   5.641   6.565  0.3274 -0.3304  0.1582
  130OSM    C2F14021   5.775   5.886   6.588  0.0315 -0.1883  0.5493
  130OSM    H2F14022   5.674   5.880   6.541 -0.4250  0.5550  1.4421
  130OSM    H2G14023   5.831   5.969   6.540  0.4046 -0.6483  0.1831
  130OSM    C3F14024   5.741   5.905   6.739  0.7975 -0.5423 -0.1306
  130OSM    H3F14025   5.695   6.006   6.738  2.2333  0.1270  0.4077
  130OSM    H3G14026   5.838   5.907   6.794  0.3611 -2.9211  0.7696
  130OSM    C4F14027   5.637   5.806   6.802  0.7577 -0.2537  0.3971
  130OSM    H4F14028   5.612   5.832   6.907 -1.6717  3.6475 -1.0230
  130OSM    H4G14029   5.687   5.707   6.806 -0.1160 -0.7312 -0.3125
  130OSM    C5F14030   5.497   5.792   6.735 -0.5437 -0.0473 -0.0506
  130OSM    H5F14031   5.515   5.750   6.633  0.3578 -2.4052  1.0328
  130OSM    H5G14032   5.446   5.889   6.717  0.6627  0.0714 -3.1242
  130OSM    C6F14033   5.419   5.697   6.821  1.0870  0.7647 -0.0846
  130OSM    H6F14034   5.407   5.747   6.919 -1.2293  2.8880 -1.4060
  130OSM    H6G14035   5.464   5.598   6.845 -0.3044  0.1933  0.2204
  130OSM    C7F14036   5.281   5.664   6.754 -0.0114  0.4347 -0.7491
  130OSM    H7F14037   5.308   5.602   6.666  1.7924  0.0418  0.0492
  130OSM    H7G14038   5.239   5.757   6.710 -1.5822 -0.2273 -0.6867
  130OSM    C8F14039   5.186   5.599   6.855  0.3794 -0.1827 -0.6426
  130OSM    H8F14040   5.089   5.565   6.813 -0.5163  0.0126  1.2102
  130OSM    H8G14041   5.156   5.675   6.931  0.2288 -0.9194  0.0407
  130OSM    C9F14042   5.237   5.475   6.918 -0.7243 -0.5022  0.1005
  130OSM    H9F14043   5.264   5.391   6.853 -0.7373 -0.0953 -0.4283
  130OSM   C10F14044   5.270   5.447   7.048  0.2715  0.5938  0.0168
  130OSM   H10F14045   5.298   5.342   7.065 -0.2025  1.1150  4.7091
  130OSM   C11F14046   5.257   5.540   7.168  0.3662 -0.0065  0.0500
  130OSM   H11F14047   5.221   5.641   7.139 -0.1946  0.2797  1.7115
  130OSM   H11G14048   5.358   5.538   7.214  0.0599  1.5641  0.8122
  130OSM   C12F14049   5.159   5.499   7.284  0.0503 -0.1821  0.9912
  130OSM   H12F14050   5.163   5.392   7.315 -2.1214 -0.6153 -0.1370
  130OSM   H12G14051   5.058   5.520   7.243  0.3110 -1.8832 -0.5971
  130OSM   C13F14052   5.179   5.590   7.411  0.5865  0.1249 -0.0337
  130OSM   H13F14053   5.139   5.690   7.384 -1.0410  0.0899  2.1131
  130OSM   H13G14054   5.286   5.608   7.433  0.5392 -1.5695  1.6829
  130OSM   C14F14055   5.108   5.533   7.536 -0.6369  0.1211  0.1093
  130OSM   H14F14056   5.170   5.450   7.574  2.0881  1.4363 -1.3435
  130OSM   H14G14057   5.005   5.495   7.515 -0.1003 -2.8818  2.6120
  130OSM   C15F14058   5.093   5.637   7.653 -0.1324  0.8729  0.1500
  130OSM   H15F14059   5.051   5.730   7.608  1.9377  1.6826 -0.1572
  130OSM   H15G14060   5.187   5.663   7.705  0.9093 -0.0895 -1.2006
  130OSM   C16F14061   5.001   5.588   7.763 -0.0919 -0.2982 -0.4872
  130OSM   H16F14062   5.021   5.478   7.769 -1.6226 -0.5728 -0.0507
  130OSM   H16G14063   4.900   5.594   7.717  0.2727  0.5201 -1.1799
  130OSM   C17F14064   5.023   5.641   7.909  0.2327 -0.0914  0.4076
  130OSM   H17F14065   4.939   5.598   7.968  1.0319 -2.6012 -0.2194
  130OSM   H17G14066   5.002   5.750   7.904 -0.3248 -0.2952 -1.8709
  130OSM   C18F14067   5.154   5.615   7.979 -0.3659  0.3901  0.2448
  130OSM   H18F14068   5.246   5.662   7.938 -0.3495 -0.5771 -0.8442
  130OSM   H18G14069   5.173   5.507   7.993 -0.1951  0.1960 -1.3739
  130OSM   H18H14070   5.134   5.659   8.079 -0.2437  3.2639 -0.9444
  131OSM      N14071   3.319   1.798   5.725 -0.1178  0.5151 -0.0675
  131OSM    C1514072   3.382   1.821   5.856 -0.7855  0.0457 -0.6270
  131OSM   H15A14073   3.365   1.922   5.889 -1.3215  0.7937 -3.0879
  131OSM   H15B14074   3.489   1.802   5.860 -1.3135 -2.9747  0.5044
  131OSM   H15C14075   3.333   1.754   5.924 -2.3864  0.9991 -0.8268
  131OSM    C1414076   3.364   1.900   5.625  0.2660  0.4342  1.0507
  131OSM   H14A14077   3.344   2.004   5.642 -1.5164  0.4779 -1.1045
  131OSM   H14B14078   3.332   1.876   5.524 -0.2628  1.5018  0.9595
  131OSM   H14C14079   3.471   1.912   5.615 -0.0355  1.0236 -2.0587
  131OSM    C1314080   3.354   1.657   5.685 -0.2732  0.3992 -0.1952
  131OSM   H13A14081   3.461   1.644   5.675 -0.0011  3.6746 -2.4942
  131OSM   H13B14082   3.310   1.640   5.588 -1.1668  0.4574  0.2047
  131OSM   H13C14083   3.313   1.580   5.748  0.5560  1.9050  2.2742
  131OSM    C1214084   3.167   1.808   5.730 -0.5983  0.0098 -0.1627
  131OSM   H12A14085   3.134   1.812   5.627 -2.6412  1.4282  0.5167
  131OSM   H12B14086   3.136   1.905   5.768 -0.5101  0.6472 -1.6697
  131OSM    C1114087   3.084   1.694   5.798  0.2204 -0.2448  0.2125
  131OSM   H11A14088   3.089   1.601   5.738  1.9780 -0.9695  1.4505
  131OSM   H11B14089   2.977   1.720   5.788  0.2792 -0.1411 -0.1454
  131OSM      P14090   3.173   1.526   5.984 -0.0992  0.2522  0.2315
  131OSM    O1314091   3.080   1.481   6.090 -0.3880 -0.5185 -0.1121
  131OSM    O1414092   3.190   1.427   5.873 -0.2327  0.2989  0.4418
  131OSM    O1114093   3.310   1.563   6.043 -0.3944 -0.0413 -0.0029
  131OSM    O1214094   3.117   1.670   5.937  0.0386 -0.6107 -0.4014
  131OSM    C1S14095   3.325   1.644   6.159  0.1306  0.0901 -0.9640
  131OSM    H1S14096   3.225   1.677   6.193 -0.2936 -1.1562 -0.9785
  131OSM    H1T14097   3.368   1.745   6.142 -0.4565  0.4805 -0.1639
  131OSM     NF14098   3.406   1.667   6.397 -1.0913  0.0918 -0.5575
  131OSM    HNF14099   3.495   1.707   6.417 -0.4937 -0.0317 -2.8578
  131OSM    C2S14100   3.404   1.574   6.281  0.3326  0.3827  0.0675
  131OSM    H2S14101   3.344   1.485   6.310  0.0180  0.4877 -0.2554
  131OSM    C3S14102   3.549   1.531   6.234 -0.2318  0.2785 -0.1464
  131OSM    H3S14103   3.615   1.620   6.235  1.1780 -0.7643  1.2440
  131OSM     O314104   3.555   1.486   6.100 -0.3849  0.6388  0.2099
  131OSM    HO314105   3.468   1.515   6.072  0.0241  0.0839 -1.7235
  131OSM    C4S14106   3.602   1.435   6.333 -0.7444  0.0796 -0.0242
  131OSM    H4S14107   3.658   1.484   6.413  2.3536 -2.1027 -0.7242
  131OSM    C5S14108   3.596   1.299   6.335 -0.3139 -0.0589 -0.5366
  131OSM    H5S14109   3.561   1.234   6.254 -0.0270 -2.4322  1.1926
  131OSM    C6S14110   3.650   1.211   6.443 -0.2605 -0.2192 -0.2029
  131OSM    H6S14111   3.743   1.153   6.427 -0.4287 -0.7764  0.7958
  131OSM    H6T14112   3.578   1.131   6.472  0.8549 -0.9173  0.6578
  131OSM    C7S14113   3.690   1.286   6.572  0.5634  0.3792 -0.0528
  131OSM    H7S14114   3.607   1.356   6.597  0.0366  0.2800 -1.4596
  131OSM    H7T14115   3.777   1.351   6.550  2.4040 -3.0703 -3.5346
  131OSM    C8S14116   3.729   1.189   6.681  0.5769  0.1338 -0.1511
  131OSM    H8S14117   3.830   1.148   6.659  0.8726  1.5581 -1.4984
  131OSM    H8T14118   3.667   1.096   6.678  3.0260 -1.5056 -1.5602
  131OSM    C9S14119   3.711   1.250   6.817  0.8516 -0.5225  0.4536
  131OSM    H9S14120   3.606   1.285   6.824  1.1825  0.4406  0.8240
  131OSM    H9T14121   3.774   1.341   6.832  0.5727 -0.2822  0.1545
  131OSM   C10S14122   3.749   1.166   6.934  0.2050 -0.5695  0.3931
  131OSM   H10S14123   3.856   1.138   6.925  0.2934  0.1869 -1.0410
  131OSM   H10T14124   3.695   1.068   6.929  0.5993 -0.8407  1.3208
  131OSM   C11S14125   3.724   1.232   7.071 -0.3052 -0.1721 -0.7666
  131OSM   H11S14126   3.615   1.228   7.091  0.0856  0.5162  1.5929
  131OSM   H11T14127   3.757   1.337   7.061 -0.1581  0.0510  1.7939
  131OSM   C12S14128   3.785   1.165   7.189  1.0763  0.0066  0.0726
  131OSM   H12S14129   3.767   1.227   7.279  0.5630  2.9177 -1.9551
  131OSM   H12T14130   3.896   1.176   7.182  1.1324  0.4032  1.4179
  131OSM   C13S14131   3.753   1.012   7.208 -0.5020 -0.8612  0.4480
  131OSM   H13S14132   3.835   0.962   7.265 -0.5609  0.6848  1.9098
  131OSM   H13T14133   3.770   0.959   7.111  0.9389  1.8657 -0.8362
  131OSM   C14S14134   3.607   0.979   7.252 -0.2319 -0.1384 -0.9381
  131OSM   H14S14135   3.597   0.870   7.231  0.6376 -0.3066 -0.5113
  131OSM   H14T14136   3.544   1.045   7.189 -2.4087 -0.5101  0.7851
  131OSM   C15S14137   3.567   1.017   7.395  0.3412 -0.6650  0.1686
  131OSM   H15S14138   3.590   1.125   7.407 -0.1449 -0.5901  0.4285
  131OSM   H15T14139   3.626   0.960   7.470 -0.9534 -0.1704  1.5787
  131OSM   C16S14140   3.412   1.019   7.431  0.2428 -0.3573  0.2650
  131OSM   H16S14141   3.382   0.913   7.439  0.4836 -0.7605 -3.2072
  131OSM   H16T14142   3.357   1.060   7.344  1.1956  2.7476  1.0563
  131OSM   C17S14143   3.381   1.091   7.562  0.3944 -0.2903  0.3562
  131OSM   H17S14144   3.393   1.198   7.533 -1.0368  0.0030  0.7773
  131OSM   H17T14145   3.458   1.073   7.639  2.2425  0.2305 -1.3223
  131OSM   C18S14146   3.251   1.064   7.624 -0.2038 -0.5720 -0.0986
  131OSM   H18S14147   3.165   1.099   7.563 -1.4353 -0.4316  1.6626
  131OSM   H18T14148   3.247   1.113   7.724  0.2952  0.2162 -0.4597
  131OSM   H18U14149   3.234   0.955   7.631  1.5925 -0.7782  1.4223
  131OSM    C1F14150   3.294   1.709   6.458 -0.1139 -0.0254  0.3397
  131OSM     OF14151   3.185   1.663   6.422 -0.1267  0.2735 -0.2797
  131OSM    C2F14152   3.315   1.811   6.562  0.3600 -0.2617 -0.4414
  131OSM    H2F14153   3.363   1.894   6.506  0.4711  0.0394  0.0960
  131OSM    H2G14154   3.388   1.771   6.635 -1.3809 -0.3896  1.2908
  131OSM    C3F14155   3.195   1.853   6.646 -0.7285  0.1360 -0.0063
  131OSM    H3F14156   3.107   1.872   6.581 -0.5626  0.6420 -0.0898
  131OSM    H3G14157   3.220   1.941   6.709  1.5809  0.3347 -1.1438
  131OSM    C4F14158   3.155   1.742   6.746  0.9674  0.2385 -0.7959
  131OSM    H4F14159   3.221   1.736   6.835  0.8346  0.9930 -0.6444
  131OSM    H4G14160   3.168   1.642   6.699 -2.1009 -0.8761  0.5584
  131OSM    C5F14161   3.007   1.754   6.802  0.6484  0.6535  0.6310
  131OSM    H5F14162   2.995   1.860   6.834 -1.0747  0.0723  1.9719
  131OSM    H5G14163   3.003   1.675   6.879 -2.3410 -0.2217 -0.3423
  131OSM    C6F14164   2.900   1.719   6.697 -0.1540 -0.1782  0.4327
  131OSM    H6F14165   2.915   1.614   6.666  1.6613 -0.1383  1.1462
  131OSM    H6G14166   2.901   1.792   6.614  0.7083 -1.4648 -0.7075
  131OSM    C7F14167   2.755   1.716   6.755  0.5993  0.1744  0.4331
  131OSM    H7F14168   2.691   1.689   6.668 -1.4530  2.7508  1.0669
  131OSM    H7G14169   2.731   1.815   6.802 -1.4609 -0.4555  0.7513
  131OSM    C8F14170   2.734   1.608   6.857 -0.1916  0.0031 -0.1091
  131OSM    H8F14171   2.813   1.620   6.935 -1.0942  0.0004  0.8072
  131OSM    H8G14172   2.750   1.509   6.809 -1.2856 -0.0319 -0.3986
  131OSM    C9F14173   2.603   1.605   6.905 -0.6164 -0.0353  0.6442
  131OSM    H9F14174   2.524   1.605   6.828  0.7218  0.2865 -0.7613
  131OSM   C10F14175   2.565   1.614   7.032 -0.2690  0.3645 -0.3325
  131OSM   H10F14176   2.459   1.605   7.060 -0.5440 -2.9862 -2.1837
  131OSM   C11F14177   2.651   1.631   7.160 -0.0931  0.1044 -0.2484
  131OSM   H11F14178   2.752   1.666   7.128 -0.5578  1.8518  0.1192
  131OSM   H11G14179   2.678   1.531   7.199  0.7760  0.1914 -0.6230
  131OSM   C12F14180   2.584   1.716   7.265 -0.0193 -0.1502 -0.3765
  131OSM   H12F14181   2.478   1.683   7.269  0.8585 -2.9242  1.5369
  131OSM   H12G14182   2.588   1.824   7.239 -1.9346  0.3853  1.4302
  131OSM   C13F14183   2.640   1.697   7.402 -0.5973  0.2158  0.4507
  131OSM   H13F14184   2.750   1.711   7.394 -0.4979 -0.6526  0.3308
  131OSM   H13G14185   2.626   1.591   7.431  1.5268 -0.6077 -1.3875
  131OSM   C14F14186   2.586   1.796   7.509  0.0337  0.3881  0.5216
  131OSM   H14F14187   2.489   1.770   7.559 -1.6275  1.2521 -2.1684
  131OSM   H14G14188   2.570   1.898   7.468  3.0485  1.2315  1.2865
  131OSM   C15F14189   2.703   1.821   7.621 -0.6047 -1.0042  0.6556
  131OSM   H15F14190   2.785   1.858   7.556 -2.7030 -0.3519 -1.7074
  131OSM   H15G14191   2.728   1.724   7.670 -4.2242 -2.6561 -0.5931
  131OSM   C16F14192   2.681   1.932   7.725 -0.0268  0.2936 -0.0952
  131OSM   H16F14193   2.582   1.934   7.776  0.3156  0.1708  0.5880
  131OSM   H16G14194   2.697   2.030   7.675 -0.9463 -0.9076 -2.8112
  131OSM   C17F14195   2.797   1.921   7.833 -0.2660  0.0112 -0.3072
  131OSM   H17F14196   2.892   1.921   7.775 -0.2819  0.6374 -0.3363
  131OSM   H17G14197   2.788   1.823   7.884 -0.3256 -0.5430 -1.3698
  131OSM   C18F14198   2.811   2.020   7.943 -0.8383 -0.1875 -0.0955
  131OSM   H18F14199   2.881   1.978   8.018 -3.8415 -1.5375  2.0279
  131OSM   H18G14200   2.718   2.034   8.001 -0.5534  1.9797 -0.0990
  131OSM   H18H14201   2.852   2.121   7.921 -0.0274  0.0925  2.5380
  132OSM      N14202   5.143   2.904   6.366 -0.4174  0.4708  0.8518
  132OSM    C1514203   5.209   2.982   6.470  0.1861 -0.9148 -0.2218
  132OSM   H15A14204   5.272   2.921   6.533 -0.2304 -3.9953 -2.7217
  132OSM   H15B14205   5.137   3.020   6.541  0.6324 -1.2579  0.4236
  132OSM   H15C14206   5.261   3.071   6.438 -0.3561 -0.2862  0.6202
  132OSM    C1414207   5.059   3.003   6.298  0.6342 -0.5802 -0.6509
  132OSM   H14A14208   4.988   3.050   6.365  0.7338 -0.6618 -0.4873
  132OSM   H14B14209   5.005   2.966   6.212  1.1480 -3.1015  0.0742
  132OSM   H14C14210   5.121   3.083   6.262  0.0756 -0.3909 -1.1998
  132OSM    C1314211   5.243   2.854   6.270 -0.6928 -0.4724  0.5151
  132OSM   H13A14212   5.321   2.810   6.330  1.5357  2.7432  0.1052
  132OSM   H13B14213   5.279   2.942   6.217  1.8559 -1.1828  0.9740
  132OSM   H13C14214   5.207   2.784   6.195 -0.2045  1.2504 -1.3745
  132OSM    C1214215   5.055   2.785   6.419 -0.1993 -0.4653  0.0524
  132OSM   H12A14216   4.977   2.821   6.485 -1.6589 -1.5090 -1.0806
  132OSM   H12B14217   5.120   2.729   6.485  0.3493 -0.2894 -0.3331
  132OSM    C1114218   5.009   2.677   6.314  0.6951 -0.6877 -0.0512
  132OSM   H11A14219   4.979   2.743   6.230  1.6559 -0.0335  0.1151
  132OSM   H11B14220   4.923   2.615   6.349  0.6416 -2.4365 -3.0639
  132OSM      P14221   5.165   2.473   6.375 -0.2839 -0.3375  0.9053
  132OSM    O1314222   5.065   2.367   6.382  0.3100 -0.6730 -0.0012
  132OSM    O1414223   5.293   2.436   6.312  0.2563  0.7503  0.0619
  132OSM    O1114224   5.186   2.546   6.509 -0.0927  0.5751 -0.1846
  132OSM    O1214225   5.112   2.585   6.276 -0.2222  0.6999 -0.3035
  132OSM    C1S14226   5.191   2.473   6.630 -0.0540  0.6906 -0.4396
  132OSM    H1S14227   5.217   2.365   6.621  0.2924  0.8552 -1.5315
  132OSM    H1T14228   5.095   2.470   6.685 -0.4209  0.9962 -1.0592
  132OSM     NF14229   5.251   2.460   6.867 -0.1139 -0.5239  0.3583
  132OSM    HNF14230   5.182   2.513   6.916 -1.1105  1.5731 -3.0854
  132OSM    C2S14231   5.290   2.525   6.742 -0.3362 -0.5509  0.0359
  132OSM    H2S14232   5.395   2.498   6.721 -0.3990 -0.4490 -0.4297
  132OSM    C3S14233   5.280   2.689   6.736 -0.1937 -0.2756  0.0483
  132OSM    H3S14234   5.173   2.714   6.719 -0.0613 -0.8447 -1.7381
  132OSM     O314235   5.356   2.750   6.629 -0.2740 -0.4055  0.0619
  132OSM    HO314236   5.368   2.681   6.562 -0.0247  0.9555 -1.3172
  132OSM    C4S14237   5.316   2.765   6.864 -0.0014  0.7707 -0.4283
  132OSM    H4S14238   5.231   2.755   6.934  0.3615 -1.6129 -0.2648
  132OSM    C5S14239   5.429   2.822   6.904  0.3454  0.0492 -0.4232
  132OSM    H5S14240   5.518   2.813   6.840  0.2048 -0.7532 -0.5074
  132OSM    C6S14241   5.455   2.889   7.031 -0.5662  0.2208 -0.2919
  132OSM    H6S14242   5.394   2.983   7.029 -0.0982  0.5205 -0.6190
  132OSM    H6T14243   5.562   2.918   7.030 -1.3604  3.5672  1.7138
  132OSM    C7S14244   5.434   2.809   7.163  0.1191 -0.4986 -0.2085
  132OSM    H7S14245   5.512   2.730   7.157  0.9587  0.4581 -2.3264
  132OSM    H7T14246   5.340   2.751   7.172 -2.0156  2.7622 -0.5939
  132OSM    C8S14247   5.448   2.882   7.288 -0.0957 -0.2885 -0.1354
  132OSM    H8S14248   5.349   2.930   7.302 -0.5383 -1.3989  0.6052
  132OSM    H8T14249   5.516   2.970   7.287  0.9325 -1.0798 -1.4030
  132OSM    C9S14250   5.461   2.790   7.406  0.2427  0.6851  0.4625
  132OSM    H9S14251   5.541   2.716   7.388 -1.4820 -0.9516 -0.5720
  132OSM    H9T14252   5.374   2.721   7.412  0.0289  0.6276 -2.7797
  132OSM   C10S14253   5.501   2.840   7.542  0.3108 -0.7103 -0.1422
  132OSM   H10S14254   5.425   2.920   7.556  1.1885  0.3878 -1.5413
  132OSM   H10T14255   5.602   2.885   7.539  1.0970 -2.5216 -2.1419
  132OSM   C11S14256   5.496   2.727   7.647 -0.3308 -0.0461  0.3143
  132OSM   H11S14257   5.553   2.637   7.617 -0.8028  0.3369 -1.7908
  132OSM   H11T14258   5.391   2.696   7.665 -1.5100  2.6160 -1.5900
  132OSM   C12S14259   5.556   2.770   7.782 -0.0399 -0.2019  0.9449
  132OSM   H12S14260   5.535   2.875   7.811  1.6519  0.8300 -1.3231
  132OSM   H12T14261   5.667   2.764   7.773 -0.1502 -1.4287  0.2111
  132OSM   C13S14262   5.510   2.691   7.902  0.0455 -0.3464 -1.3036
  132OSM   H13S14263   5.404   2.719   7.916  0.6179  1.2047  0.1029
  132OSM   H13T14264   5.559   2.728   7.995  1.2303  0.1809 -2.1208
  132OSM   C14S14265   5.519   2.539   7.899 -0.0413  0.1161  0.5000
  132OSM   H14S14266   5.625   2.505   7.893 -0.1146 -0.0918  0.3796
  132OSM   H14T14267   5.462   2.500   7.812  0.6755 -0.5234  0.3126
  132OSM   C15S14268   5.456   2.474   8.025  0.2070 -0.1842  0.7473
  132OSM   H15S14269   5.345   2.476   8.022  0.1546 -0.0391  2.3230
  132OSM   H15T14270   5.476   2.538   8.113 -0.1840  0.1699  0.5791
  132OSM   C16S14271   5.507   2.328   8.037  0.3119  0.0463  0.3557
  132OSM   H16S14272   5.614   2.336   8.067  0.1086  0.0425  1.0756
  132OSM   H16T14273   5.515   2.282   7.936  0.7398 -0.5618  0.6622
  132OSM   C17S14274   5.421   2.252   8.140  0.6343  0.0971 -0.3743
  132OSM   H17S14275   5.394   2.320   8.224 -0.6869 -0.0372 -0.6775
  132OSM   H17T14276   5.478   2.163   8.172  0.2045 -0.3827 -0.9354
  132OSM   C18S14277   5.289   2.200   8.089  0.2676 -0.1860  0.4127
  132OSM   H18S14278   5.207   2.273   8.074  0.9561  0.4347 -0.3701
  132OSM   H18T14279   5.245   2.121   8.153  0.7281 -0.8241 -0.0585
  132OSM   H18U14280   5.308   2.173   7.983 -0.9425  2.5479 -0.5652
  132OSM    C1F14281   5.264   2.332   6.906 -0.9177 -0.1453 -0.3919
  132OSM     OF14282   5.312   2.253   6.824 -0.1512  0.2117 -0.0795
  132OSM    C2F14283   5.206   2.294   7.035 -0.5098 -0.0757 -0.4421
  132OSM    H2F14284   5.109   2.244   7.015 -0.7714 -0.6458  2.0170
  132OSM    H2G14285   5.194   2.387   7.095 -1.4037 -0.7482  0.4467
  132OSM    C3F14286   5.299   2.186   7.114  0.4025 -0.2883  0.1393
  132OSM    H3F14287   5.406   2.214   7.108  0.2665  0.5108  1.2186
  132OSM    H3G14288   5.293   2.092   7.055 -0.1637  0.8423 -1.6282
  132OSM    C4F14289   5.245   2.153   7.245  0.1150 -0.9561  0.0437
  132OSM    H4F14290   5.308   2.085   7.305  0.3954  0.2617  1.1564
  132OSM    H4G14291   5.137   2.126   7.241 -0.4707  1.3163 -0.3942
  132OSM    C5F14292   5.243   2.280   7.334 -0.0774  0.1121 -0.2067
  132OSM    H5F14293   5.174   2.358   7.295  1.0891  1.0129 -0.5049
  132OSM    H5G14294   5.333   2.345   7.337  0.7373 -1.0177 -0.2709
  132OSM    C6F14295   5.198   2.244   7.475 -0.5780  0.0075  0.7152
  132OSM    H6F14296   5.263   2.161   7.510  1.5967  0.9667 -0.9476
  132OSM    H6G14297   5.098   2.199   7.456  0.1397 -2.0133  1.6271
  132OSM    C7F14298   5.192   2.362   7.562  0.2164  0.4345 -0.4821
  132OSM    H7F14299   5.110   2.428   7.526 -0.9085 -0.5871  0.1746
  132OSM    H7G14300   5.271   2.438   7.544  2.7193 -1.5073  1.8381
  132OSM    C8F14301   5.181   2.334   7.713 -0.4142  0.3685 -0.2333
  132OSM    H8F14302   5.163   2.432   7.761 -2.1239  0.4489 -0.9909
  132OSM    H8G14303   5.281   2.301   7.750 -0.7182  0.0357  0.2919
  132OSM    C9F14304   5.076   2.228   7.754 -0.1371 -0.0808  0.2023
  132OSM    H9F14305   5.106   2.127   7.720 -0.7278 -0.0154 -0.5126
  132OSM   C10F14306   4.958   2.249   7.822  0.5343 -0.4044  0.0036
  132OSM   H10F14307   4.891   2.162   7.830 -0.1510  0.2348  1.2814
  132OSM   C11F14308   4.904   2.385   7.864  0.2646 -0.2787 -0.0672
  132OSM   H11F14309   4.874   2.445   7.775  1.8978 -1.9639 -1.7809
  132OSM   H11G14310   4.959   2.448   7.937 -0.2587 -0.0428  0.1348
  132OSM   C12F14311   4.759   2.360   7.927  0.0776  0.5630 -0.0447
  132OSM   H12F14312   4.718   2.276   7.866  0.0288  1.2753 -0.9939
  132OSM   H12G14313   4.702   2.455   7.922  1.6616  1.5091 -0.5226
  132OSM   C13F14314   4.766   2.310   8.075  1.0620  0.1818  0.1206
  132OSM   H13F14315   4.820   2.386   8.134 -0.4172  0.6271  0.9339
  132OSM   H13G14316   4.832   2.222   8.063  1.8132  0.7231  0.2630
  132OSM   C14F14317   4.625   2.282   8.124  0.0576  0.8054 -0.2662
  132OSM   H14F14318   4.584   2.200   8.061  1.2125  0.5054 -0.6280
  132OSM   H14G14319   4.567   2.376   8.110  1.4318  1.8541  0.9875
  132OSM   C15F14320   4.614   2.252   8.274 -0.5676  0.2916  0.2858
  132OSM   H15F14321   4.656   2.154   8.306 -1.0071  1.8199  6.1204
  132OSM   H15G14322   4.505   2.241   8.293 -0.5118  1.7368  1.5347
  132OSM   C16F14323   4.677   2.363   8.360  0.2455  0.4005  1.0188
  132OSM   H16F14324   4.640   2.465   8.336  1.7105  0.2901 -1.9097
  132OSM   H16G14325   4.787   2.368   8.345  0.2940  0.4884  1.3893
  132OSM   C17F14326   4.641   2.333   8.514 -0.1883 -0.7066 -0.0383
  132OSM   H17F14327   4.662   2.229   8.545 -2.1707 -0.4019  2.4967
  132OSM   H17G14328   4.535   2.357   8.534 -0.3689  0.3271 -2.0588
  132OSM   C18F14329   4.717   2.436   8.608  0.0387 -0.6681  0.4952
  132OSM   H18F14330   4.826   2.426   8.587  0.3879  0.6465  1.6111
  132OSM   H18G14331   4.704   2.397   8.711 -1.7942 -0.6818  0.2608
  132OSM   H18H14332   4.689   2.542   8.594  1.1609  0.0716  3.5381
  133OSM      N14333   6.092   3.342   6.270  0.6372 -0.4011 -0.3760
  133OSM    C1514334   5.947   3.320   6.309  0.2407 -0.5841 -0.1108
  133OSM   H15A14335   5.952   3.295   6.414  2.3161 -1.0109 -0.2862
  133OSM   H15B14336   5.898   3.256   6.237 -0.6391  0.5174 -0.5144
  133OSM   H15C14337   5.888   3.411   6.305 -0.0054 -0.7328  0.1347
  133OSM    C1414338   6.105   3.374   6.129  0.3160 -0.7568 -0.0666
  133OSM   H14A14339   6.057   3.293   6.076 -1.7121 -0.3213  1.0767
  133OSM   H14B14340   6.211   3.382   6.107  0.1477 -2.4593 -1.6810
  133OSM   H14C14341   6.044   3.459   6.105  1.4470 -0.5725 -2.5608
  133OSM    C1314342   6.141   3.452   6.357 -0.5997  0.4150  0.6541
  133OSM   H13A14343   6.244   3.476   6.334 -0.8812  0.0589 -1.0242
  133OSM   H13B14344   6.126   3.428   6.461  0.3671  1.3521  1.0167
  133OSM   H13C14345   6.094   3.545   6.329  1.4842  0.9968 -1.0237
  133OSM    C1214346   6.169   3.217   6.296 -0.5731 -0.3528  0.1322
  133OSM   H12A14347   6.274   3.240   6.280 -0.1501 -0.5979  2.3111
  133OSM   H12B14348   6.133   3.151   6.220 -3.2965 -0.4999  1.4828
  133OSM    C1114349   6.168   3.146   6.433 -0.3136  0.3731 -0.6251
  133OSM   H11A14350   6.184   3.226   6.510  0.3188  0.2258 -0.6030
  133OSM   H11B14351   6.250   3.072   6.442  0.7062  1.7540  2.1471
  133OSM      P14352   5.991   2.959   6.382  0.1487 -0.1235 -0.1208
  133OSM    O1314353   5.844   2.965   6.367 -0.1450  0.4162  0.2278
  133OSM    O1414354   6.066   2.938   6.256 -0.0656 -0.4301 -0.6319
  133OSM    O1114355   6.013   2.835   6.482  0.1500  0.0080  0.5154
  133OSM    O1214356   6.043   3.082   6.453 -0.0772  0.1973  0.3947
  133OSM    C1S14357   6.127   2.819   6.569  0.8820 -0.1974 -0.2681
  133OSM    H1S14358   6.194   2.907   6.572  0.4281  0.1132  1.0018
  133OSM    H1T14359   6.166   2.719   6.539 -2.5115 -1.7063  0.0778
  133OSM     NF14360   6.193   2.755   6.796  0.0605  0.5622 -0.2724
  133OSM    HNF14361   6.185   2.660   6.825  3.0935  0.7170  1.3476
  133OSM    C2S14362   6.083   2.802   6.716  0.7200 -0.7586  0.2526
  133OSM    H2S14363   6.059   2.903   6.755 -0.0602 -0.3067 -1.3315
  133OSM    C3S14364   5.953   2.724   6.738 -0.7421 -0.3342 -0.1586
  133OSM    H3S14365   5.969   2.619   6.706  1.6742 -0.5741  1.7228
  133OSM     O314366   5.842   2.760   6.653 -0.5224  0.1393 -0.3577
  133OSM    HO314367   5.875   2.821   6.587  2.7529 -0.0339  1.0481
  133OSM    C4S14368   5.916   2.715   6.879 -0.0625 -0.0507 -0.6411
  133OSM    H4S14369   5.940   2.621   6.931  1.5267  0.4424 -0.4649
  133OSM    C5S14370   5.849   2.814   6.948  0.6589  0.5252 -0.4200
  133OSM    H5S14371   5.815   2.906   6.898 -0.0787  0.3874 -0.1863
  133OSM    C6S14372   5.818   2.808   7.099  0.2899 -0.4077  0.2799
  133OSM    H6S14373   5.760   2.717   7.123 -1.2692  0.6673  0.6617
  133OSM    H6T14374   5.754   2.892   7.135 -0.0563 -0.0066 -1.2083
  133OSM    C7S14375   5.939   2.800   7.197 -0.2287 -0.0247 -0.2123
  133OSM    H7S14376   5.987   2.897   7.171  0.7536 -0.9160 -1.7466
  133OSM    H7T14377   6.011   2.719   7.171  0.1009  0.5273 -1.0521
  133OSM    C8S14378   5.900   2.798   7.345 -0.1204  0.3974 -0.7380
  133OSM    H8S14379   5.879   2.695   7.379  1.5390 -0.6975 -2.9046
  133OSM    H8T14380   5.814   2.863   7.373  0.3047  0.0990  1.3249
  133OSM    C9S14381   6.025   2.831   7.429  0.0683  0.6757 -0.1538
  133OSM    H9S14382   6.057   2.934   7.399 -0.6940  0.5057 -1.6002
  133OSM    H9T14383   6.116   2.774   7.400 -0.5707 -0.4398  0.0425
  133OSM   C10S14384   5.997   2.824   7.583  0.2277 -0.1853  0.3037
  133OSM   H10S14385   5.910   2.889   7.604 -0.3867 -0.7396 -0.4740
  133OSM   H10T14386   6.079   2.867   7.643  0.5483 -0.0696 -0.2168
  133OSM   C11S14387   5.989   2.675   7.631  0.0231 -0.8119  0.3277
  133OSM   H11S14388   6.075   2.616   7.594  0.0475 -0.5024 -0.1053
  133OSM   H11T14389   5.896   2.633   7.586  0.8017 -0.0195 -2.0922
  133OSM   C12S14390   5.991   2.664   7.790 -0.3526  0.1039  0.4367
  133OSM   H12S14391   5.902   2.724   7.821  1.5819  2.3952  1.7320
  133OSM   H12T14392   6.080   2.722   7.820 -0.3433  0.7800 -0.8341
  133OSM   C13S14393   5.998   2.519   7.843 -0.3015  0.0780 -0.1750
  133OSM   H13S14394   6.107   2.498   7.840 -0.2875  0.2300 -0.7944
  133OSM   H13T14395   5.939   2.446   7.782 -0.8768 -0.8404  1.4518
  133OSM   C14S14396   5.941   2.499   7.985 -0.4142 -0.1568 -0.7768
  133OSM   H14S14397   5.904   2.397   8.007 -2.3195  1.0536  1.9794
  133OSM   H14T14398   5.852   2.564   8.003 -0.5967 -1.1458  2.0906
  133OSM   C15S14399   6.044   2.523   8.096 -0.4025 -0.7401  0.0085
  133OSM   H15S14400   6.070   2.630   8.105 -2.1661 -0.3196  0.3007
  133OSM   H15T14401   6.138   2.474   8.062 -0.1879  0.4016 -1.0569
  133OSM   C16S14402   5.991   2.484   8.236 -0.5118 -0.2456 -0.7770
  133OSM   H16S14403   5.984   2.375   8.252 -1.7062  0.0049  0.4536
  133OSM   H16T14404   5.891   2.532   8.239 -0.0298  0.7719 -0.1990
  133OSM   C17S14405   6.088   2.526   8.348  0.0693 -0.0406 -0.5630
  133OSM   H17S14406   6.109   2.635   8.337  1.3363 -0.0319  1.6045
  133OSM   H17T14407   6.186   2.473   8.338  1.0373  0.9779  2.7504
  133OSM   C18S14408   6.038   2.497   8.491 -0.5381 -0.0472  0.2795
  133OSM   H18S14409   6.053   2.394   8.529  0.1490 -0.2468 -0.5168
  133OSM   H18T14410   5.929   2.519   8.492 -1.0398 -2.3813 -0.5474
  133OSM   H18U14411   6.090   2.560   8.567  0.5865 -1.2776  0.5618
  133OSM    C1F14412   6.307   2.812   6.818 -0.0959 -0.3520 -0.1350
  133OSM     OF14413   6.318   2.931   6.795 -0.2009  0.0782 -0.0258
  133OSM    C2F14414   6.419   2.738   6.874 -0.9808  0.4039  0.1186
  133OSM    H2F14415   6.497   2.719   6.798  0.2000  1.6810  0.9916
  133OSM    H2G14416   6.376   2.637   6.892 -0.7744  0.3173  0.1348
  133OSM    C3F14417   6.482   2.807   6.998  0.6539  0.7404 -0.2340
  133OSM    H3F14418   6.512   2.907   6.960  0.1691  1.2860  0.7935
  133OSM    H3G14419   6.577   2.758   7.029  0.9915  1.1504 -0.6242
  133OSM    C4F14420   6.388   2.795   7.114  0.1452 -0.5497 -0.0424
  133OSM    H4F14421   6.295   2.854   7.101  1.4680  1.4686 -0.6041
  133OSM    H4G14422   6.453   2.840   7.193  1.2266 -0.3446 -1.0413
  133OSM    C5F14423   6.356   2.653   7.167 -0.5248  0.6450 -0.3896
  133OSM    H5F14424   6.274   2.612   7.104  1.1348 -1.6633 -1.1191
  133OSM    H5G14425   6.310   2.671   7.266 -2.6714  0.7366 -1.3725
  133OSM    C6F14426   6.476   2.551   7.182  0.1457  0.0293 -0.4451
  133OSM    H6F14427   6.531   2.539   7.087 -0.1880 -1.8474 -0.4050
  133OSM    H6G14428   6.417   2.459   7.202  0.0737  0.3107  0.7178
  133OSM    C7F14429   6.571   2.599   7.290  0.9791  0.0270  0.1257
  133OSM    H7F14430   6.590   2.707   7.280  1.4283 -0.1114 -0.5067
  133OSM    H7G14431   6.670   2.548   7.285  1.8077  1.4307  1.6922
  133OSM    C8F14432   6.511   2.577   7.437  0.0046 -0.0007  0.1088
  133OSM    H8F14433   6.489   2.468   7.447 -0.0560 -0.1274 -1.2223
  133OSM    H8G14434   6.413   2.628   7.449  0.8953  1.8510 -0.3146
  133OSM    C9F14435   6.615   2.619   7.542 -0.1128 -0.1938 -0.6508
  133OSM    H9F14436   6.708   2.659   7.500  1.1435 -0.5877  1.6368
  133OSM   C10F14437   6.596   2.623   7.676 -0.3885 -0.1236 -1.3183
  133OSM   H10F14438   6.676   2.644   7.748 -2.2248  0.4623  0.6123
  133OSM   C11F14439   6.452   2.588   7.725 -0.0705 -0.3205 -0.0972
  133OSM   H11F14440   6.417   2.499   7.667  2.5342 -0.9070 -0.8691
  133OSM   H11G14441   6.381   2.669   7.698 -0.8768 -0.7566  0.7129
  133OSM   C12F14442   6.450   2.543   7.871 -0.0286 -0.8258 -0.4794
  133OSM   H12F14443   6.523   2.460   7.882  0.1596 -0.8317 -1.6879
  133OSM   H12G14444   6.355   2.500   7.910 -0.0549  1.5972  2.1954
  133OSM   C13F14445   6.497   2.660   7.965  0.6118 -0.0900 -0.5494
  133OSM   H13F14446   6.440   2.753   7.945 -1.5005 -1.8674 -3.1520
  133OSM   H13G14447   6.605   2.684   7.950  0.5589  0.0123 -0.7724
  133OSM   C14F14448   6.476   2.616   8.112  0.3948  0.5310 -0.1220
  133OSM   H14F14449   6.537   2.523   8.116  0.3967  0.5804  1.0700
  133OSM   H14G14450   6.373   2.576   8.105  0.9651 -1.2702  1.3128
  133OSM   C15F14451   6.500   2.720   8.215 -0.8534  0.5797 -0.0524
  133OSM   H15F14452   6.434   2.806   8.192  1.9826  2.8055 -0.1942
  133OSM   H15G14453   6.598   2.772   8.213 -1.3236  1.5196  0.7047
  133OSM   C16F14454   6.462   2.668   8.354 -0.3503 -0.7943  0.1477
  133OSM   H16F14455   6.542   2.599   8.388  0.4750  0.2504  0.3577
  133OSM   H16G14456   6.373   2.603   8.341 -0.1796 -0.5255 -2.5307
  133OSM   C17F14457   6.442   2.768   8.465  0.1055 -0.4869  0.3306
  133OSM   H17F14458   6.399   2.735   8.562  1.8641 -2.2414  0.5394
  133OSM   H17G14459   6.365   2.839   8.428  1.9500  1.4558  0.1122
  133OSM   C18F14460   6.562   2.851   8.500 -0.2098 -0.4997 -0.7361
  133OSM   H18F14461   6.632   2.888   8.422  1.7627 -1.9320  0.3084
  133OSM   H18G14462   6.629   2.778   8.551 -0.0582  0.8934  1.1213
  133OSM   H18H14463   6.548   2.940   8.565 -1.3698  0.4645 -2.2816
  134OSM      N14464   0.284   6.378   6.285  0.4828 -0.0286  0.6017
  134OSM    C1514465   0.377   6.495   6.258  0.1021  0.7105 -0.1204
  134OSM   H15A14466   0.481   6.475   6.279  0.5704  3.7140  0.6720
  134OSM   H15B14467   0.346   6.579   6.319 -1.2527 -0.4113  0.7669
  134OSM   H15C14468   0.361   6.519   6.154 -0.9128 -1.7164 -0.5461
  134OSM    C1414469   0.346   6.252   6.234 -0.0565  0.8717 -0.0372
  134OSM   H14A14470   0.287   6.162   6.248  0.4193  0.4258 -0.8303
  134OSM   H14B14471   0.438   6.232   6.287 -0.8348 -2.8240  0.0351
  134OSM   H14C14472   0.385   6.274   6.136 -2.4854  1.7861 -0.8515
  134OSM    C1314473   0.267   6.361   6.435  0.7654 -0.5078  0.6876
  134OSM   H13A14474   0.219   6.267   6.458  0.3781 -0.5572 -0.3340
  134OSM   H13B14475   0.193   6.431   6.471  1.1935 -0.2278  1.0396
  134OSM   H13C14476   0.363   6.364   6.486  1.9153  0.7755 -1.4878
  134OSM    C1214477   0.151   6.400   6.216  0.3391  0.0563 -0.0696
  134OSM   H12A14478   0.105   6.302   6.209  0.4324  0.0658 -0.8816
  134OSM   H12B14479   0.169   6.427   6.113 -0.7195 -2.8439 -1.0590
  134OSM    C1114480   0.056   6.507   6.280  0.1217 -0.3899 -0.4310
  134OSM   H11A14481  -0.023   6.547   6.211 -0.3734 -2.2570 -0.9707
  134OSM   H11B14482   0.121   6.596   6.293 -0.7393  0.6448 -2.7343
  134OSM      P14483  -0.131   6.382   6.397  0.2407  0.4452  0.2878
  134OSM    O1314484  -0.240   6.468   6.445 -0.7927  0.1565  0.9075
  134OSM    O1414485  -0.150   6.335   6.261  0.0788 -0.0759 -0.1406
  134OSM    O1114486  -0.102   6.257   6.491 -0.2121 -0.1804  0.3615
  134OSM    O1214487   0.003   6.467   6.409 -0.2618 -0.0340  0.3892
  134OSM    C1S14488  -0.090   6.287   6.634 -0.2387 -0.2736 -0.2702
  134OSM    H1S14489  -0.191   6.308   6.676  0.0546  2.2462 -0.7659
  134OSM    H1T14490  -0.018   6.370   6.650  1.4600 -1.8039  0.1080
  134OSM     NF14491  -0.023   6.197   6.845  0.4147  0.3261 -0.5352
  134OSM    HNF14492   0.069   6.212   6.883 -0.2314 -1.3919  1.8654
  134OSM    C2S14493  -0.034   6.158   6.708 -0.3277 -1.2745 -1.0443
  134OSM    H2S14494  -0.110   6.078   6.702 -1.3015 -0.6305  2.0502
  134OSM    C3S14495   0.100   6.108   6.649  0.1091 -0.3579  0.1189
  134OSM    H3S14496   0.179   6.185   6.664 -1.2740  0.8307  1.4446
  134OSM     O314497   0.098   6.091   6.509  0.0417  0.3381  0.2372
  134OSM    HO314498   0.021   6.144   6.486  0.2061  0.1938 -0.7000
  134OSM    C4S14499   0.146   5.983   6.723 -0.6659  0.0158  0.5034
  134OSM    H4S14500   0.070   5.905   6.740 -0.3091 -0.8627 -1.7894
  134OSM    C5S14501   0.267   5.957   6.773  0.3087 -0.2417 -0.4083
  134OSM    H5S14502   0.344   6.034   6.761 -1.0656  1.0960 -0.8347
  134OSM    C6S14503   0.295   5.827   6.843  0.0916 -0.4063  0.4783
  134OSM    H6S14504   0.400   5.803   6.814  0.6796  1.3189  1.0675
  134OSM    H6T14505   0.226   5.750   6.803  1.0310 -0.1967 -1.6406
  134OSM    C7S14506   0.295   5.826   7.003  0.1629 -0.6317  0.0450
  134OSM    H7S14507   0.302   5.719   7.032  2.7104 -0.5167 -0.0460
  134OSM    H7T14508   0.196   5.862   7.039 -0.7609 -0.6540 -2.3777
  134OSM    C8S14509   0.406   5.917   7.056 -0.4649  0.1718 -0.0201
  134OSM    H8S14510   0.384   6.023   7.031  1.5890 -0.2033 -3.8245
  134OSM    H8T14511   0.507   5.897   7.016 -0.6367  0.6014 -0.6846
  134OSM    C9S14512   0.406   5.917   7.215 -0.2255 -0.5898 -0.2493
  134OSM    H9S14513   0.496   5.976   7.244 -0.3901 -0.1970 -0.5258
  134OSM    H9T14514   0.427   5.813   7.245 -1.7494 -1.7390 -2.9589
  134OSM   C10S14515   0.274   5.967   7.284  0.2807  0.2466 -0.2303
  134OSM   H10S14516   0.187   5.922   7.232 -0.2054  0.7173  0.1735
  134OSM   H10T14517   0.263   6.075   7.263 -2.1135 -0.3174 -2.0181
  134OSM   C11S14518   0.270   5.940   7.440 -0.3599  0.2781  0.0778
  134OSM   H11S14519   0.266   5.830   7.460 -2.0081 -0.0715 -1.9468
  134OSM   H11T14520   0.172   5.975   7.480 -1.4353 -0.2714 -1.9775
  134OSM   C12S14521   0.386   6.006   7.519  0.4324  0.6595  0.2833
  134OSM   H12S14522   0.398   6.110   7.483  0.9802 -0.4800 -3.0184
  134OSM   H12T14523   0.475   5.951   7.483 -1.2481 -0.8289 -1.7295
  134OSM   C13S14524   0.382   6.001   7.678 -0.2017 -0.5018 -0.2272
  134OSM   H13S14525   0.287   6.041   7.719  1.3011  0.7804  2.1951
  134OSM   H13T14526   0.461   6.077   7.701  0.7165 -0.8856 -2.0189
  134OSM   C14S14527   0.418   5.861   7.722 -0.6793 -0.3001 -0.0755
  134OSM   H14S14528   0.465   5.870   7.823  1.5491 -0.7103 -1.0497
  134OSM   H14T14529   0.500   5.818   7.660 -1.7804 -2.1174 -0.2950
  134OSM   C15S14530   0.298   5.763   7.732 -0.2311  0.6144  0.5291
  134OSM   H15S14531   0.332   5.658   7.735  0.3459  0.7721 -0.3026
  134OSM   H15T14532   0.242   5.778   7.638 -2.4124  0.6320  1.7975
  134OSM   C16S14533   0.207   5.788   7.856  0.6088 -0.2925  0.0078
  134OSM   H16S14534   0.127   5.711   7.850 -0.0943  0.3832  0.5449
  134OSM   H16T14535   0.156   5.885   7.839  2.2146  0.6826  0.6562
  134OSM   C17S14536   0.284   5.776   7.987  0.3985  0.2293 -0.0825
  134OSM   H17S14537   0.363   5.853   8.001  1.5483 -0.7819 -0.8539
  134OSM   H17T14538   0.335   5.677   7.990 -0.0345 -0.0965 -2.9267
  134OSM   C18S14539   0.182   5.769   8.108  0.0941 -0.0992 -0.4650
  134OSM   H18S14540   0.237   5.794   8.202 -1.5732  0.8178  0.2862
  134OSM   H18T14541   0.138   5.667   8.107  0.0746 -0.1155  0.9803
  134OSM   H18U14542   0.093   5.833   8.094 -0.7246 -1.1670 -0.2212
  134OSM    C1F14543  -0.125   6.210   6.934  0.2554 -0.2422 -0.9445
  134OSM     OF14544  -0.240   6.182   6.905  0.3155 -0.0450 -0.6023
  134OSM    C2F14545  -0.077   6.251   7.069 -0.2008  0.0452 -0.8053
  134OSM    H2F14546  -0.061   6.358   7.047  3.3602 -0.2766  0.0235
  134OSM    H2G14547   0.021   6.201   7.083  0.7587  1.9437 -0.6313
  134OSM    C3F14548  -0.170   6.220   7.189  0.1829 -0.7690  0.4105
  134OSM    H3F14549  -0.208   6.118   7.164 -0.7235 -0.0948 -1.0434
  134OSM    H3G14550  -0.255   6.291   7.191 -0.1258 -0.9801 -2.7512
  134OSM    C4F14551  -0.090   6.221   7.318  0.0419 -0.4235  1.0660
  134OSM    H4F14552  -0.047   6.323   7.328  0.1353 -0.4502  0.9245
  134OSM    H4G14553   0.001   6.157   7.310 -0.8839 -2.0803  3.2211
  134OSM    C5F14554  -0.175   6.200   7.437  0.4319  0.2958 -0.4882
  134OSM    H5F14555  -0.221   6.099   7.431  0.6252  0.1793 -0.0358
  134OSM    H5G14556  -0.250   6.281   7.449  1.4340  1.3935 -1.5075
  134OSM    C6F14557  -0.076   6.201   7.561 -0.3746  0.0792 -0.1018
  134OSM    H6F14558  -0.062   6.311   7.567  0.1466  0.0993 -1.5089
  134OSM    H6G14559   0.017   6.142   7.545  0.7692  2.4413 -2.6458
  134OSM    C7F14560  -0.151   6.147   7.682 -0.4754  0.7107 -0.1783
  134OSM    H7F14561  -0.090   6.065   7.726 -2.0946  0.2667  1.2946
  134OSM    H7G14562  -0.238   6.095   7.636  0.5841 -0.9712 -0.3252
  134OSM    C8F14563  -0.194   6.247   7.793  0.9250  0.8216  0.0157
  134OSM    H8F14564  -0.253   6.313   7.726  0.2913 -0.1396 -0.3926
  134OSM    H8G14565  -0.118   6.319   7.829  0.9474  0.9310 -0.2497
  134OSM    C9F14566  -0.273   6.198   7.911  0.2851 -0.4144 -0.3406
  134OSM    H9F14567  -0.364   6.147   7.875  0.5740 -2.6211  1.9654
  134OSM   C10F14568  -0.233   6.192   8.038 -0.1584 -0.0260  0.0061
  134OSM   H10F14569  -0.307   6.151   8.109 -1.0032  0.5013 -0.5660
  134OSM   C11F14570  -0.102   6.244   8.101  0.1555 -0.4558 -0.1495
  134OSM   H11F14571  -0.111   6.341   8.154 -1.8654 -0.4462 -0.4376
  134OSM   H11G14572  -0.040   6.280   8.017  1.9535 -2.5258  0.2682
  134OSM   C12F14573  -0.027   6.136   8.184  0.3160 -0.7732 -0.0548
  134OSM   H12F14574   0.072   6.181   8.206 -0.0495  0.1837 -0.3320
  134OSM   H12G14575  -0.008   6.039   8.134  0.7234 -0.1657 -1.1002
  134OSM   C13F14576  -0.110   6.104   8.310  0.0890  0.1910  0.2868
  134OSM   H13F14577  -0.215   6.075   8.292  0.2084  0.4788 -0.8894
  134OSM   H13G14578  -0.121   6.191   8.378  0.2008  0.8933 -0.5879
  134OSM   C14F14579  -0.047   5.988   8.395  0.5402  0.5541 -0.0246
  134OSM   H14F14580  -0.073   5.896   8.339 -0.6454  1.8440 -1.6556
  134OSM   H14G14581  -0.097   5.992   8.494 -0.9925  0.0779 -0.7599
  134OSM   C15F14582   0.106   5.992   8.432  0.0751 -0.3819 -0.0896
  134OSM   H15F14583   0.138   6.086   8.481  0.5827 -0.8621  0.5147
  134OSM   H15G14584   0.153   5.982   8.332  0.0164 -0.9485 -0.0667
  134OSM   C16F14585   0.139   5.880   8.530 -0.4943 -0.1009 -0.4070
  134OSM   H16F14586   0.140   5.782   8.478 -0.5834 -0.2075 -0.2096
  134OSM   H16G14587   0.056   5.874   8.604  0.2401 -1.6271  0.3208
  134OSM   C17F14588   0.276   5.904   8.599 -0.4370 -0.0978 -0.8360
  134OSM   H17F14589   0.312   5.807   8.640  1.0436  0.1981 -1.4071
  134OSM   H17G14590   0.273   5.991   8.666 -0.4992 -1.7988  1.4204
  134OSM   C18F14591   0.379   5.939   8.487  0.5879 -0.3966  0.3589
  134OSM   H18F14592   0.485   5.934   8.522  0.2377  0.3432  1.5749
  134OSM   H18G14593   0.360   6.042   8.451  0.7907 -0.6997 -0.6125
  134OSM   H18H14594   0.373   5.880   8.394 -0.3050  0.4373 -0.1163
  135OSM      N14595   6.501   5.823   6.134 -0.3949  0.0890  0.8276
  135OSM    C1514596   6.385   5.742   6.162 -0.3352  0.2544  0.1090
  135OSM   H15A14597   6.300   5.808   6.159  1.0177  1.9754 -1.2799
  135OSM   H15B14598   6.390   5.696   6.260 -1.0192  1.7534  0.8658
  135OSM   H15C14599   6.365   5.667   6.087 -0.1877  0.8326 -0.5079
  135OSM    C1414600   6.620   5.735   6.121 -0.1395 -0.0697 -0.2785
  135OSM   H14A14601   6.712   5.783   6.092 -0.0507  0.2063  0.4545
  135OSM   H14B14602   6.598   5.669   6.038 -0.6732 -0.4343  0.1421
  135OSM   H14C14603   6.639   5.669   6.204 -2.2185 -0.7001 -0.2739
  135OSM    C1314604   6.481   5.887   5.998 -0.2478  0.9165  0.3460
  135OSM   H13A14605   6.471   5.814   5.919  2.0536  1.3495 -0.3661
  135OSM   H13B14606   6.567   5.947   5.975  0.9957  0.2322  3.0014
  135OSM   H13C14607   6.392   5.949   6.001 -0.3889  0.8022 -1.2341
  135OSM    C1214608   6.525   5.940   6.237  0.6527 -0.3240 -0.9661
  135OSM   H12A14609   6.610   6.000   6.207  1.6390 -2.2286 -2.0398
  135OSM   H12B14610   6.540   5.890   6.332 -0.0468 -1.1010 -1.2611
  135OSM    C1114611   6.407   6.046   6.246 -0.0444  0.2704  0.0373
  135OSM   H11A14612   6.385   6.087   6.146  0.3522 -0.4884 -0.3635
  135OSM   H11B14613   6.454   6.125   6.309 -0.7327  2.5807 -2.3178
  135OSM      P14614   6.165   6.089   6.326 -0.2857  0.3832 -0.3102
  135OSM    O1314615   6.198   6.220   6.263 -0.1039  0.0761  0.1250
  135OSM    O1414616   6.042   6.018   6.284 -0.6314 -0.1254  0.4674
  135OSM    O1114617   6.165   6.122   6.481 -0.1642 -0.5903  0.3029
  135OSM    O1214618   6.289   5.996   6.309  0.6774 -0.4147  0.3067
  135OSM    C1S14619   6.273   6.182   6.551  0.6643 -0.6909  0.3212
  135OSM    H1S14620   6.291   6.289   6.528  0.0871 -0.4966  0.7739
  135OSM    H1T14621   6.372   6.137   6.525 -0.4325 -2.6054 -0.6879
  135OSM     NF14622   6.308   6.265   6.780 -1.0563  0.7098  0.1902
  135OSM    HNF14623   6.390   6.235   6.828 -1.1243 -1.0453 -0.7392
  135OSM    C2S14624   6.233   6.166   6.697 -0.2753 -0.2264 -0.5607
  135OSM    H2S14625   6.129   6.203   6.710 -0.3664 -0.6211 -0.1682
  135OSM    C3S14626   6.239   6.022   6.744 -0.1073 -0.3001  0.1465
  135OSM    H3S14627   6.341   5.980   6.755 -0.9926 -2.3419  0.9141
  135OSM     O314628   6.170   5.927   6.664  0.5302 -0.0504  0.2104
  135OSM    HO314629   6.138   5.988   6.595  0.4102  0.0439  0.3482
  135OSM    C4S14630   6.177   6.010   6.881  0.4832  0.3087 -0.7784
  135OSM    H4S14631   6.070   6.035   6.878 -0.2188 -2.2054  1.6969
  135OSM    C5S14632   6.239   5.992   6.997  0.7854 -0.7294 -0.2177
  135OSM    H5S14633   6.348   5.972   6.995  1.2940  1.2957  2.8795
  135OSM    C6S14634   6.173   5.991   7.134  0.5096  0.2136 -0.2614
  135OSM    H6S14635   6.208   5.899   7.188 -0.2382 -0.8389 -1.5388
  135OSM    H6T14636   6.062   5.991   7.124  0.7490 -1.2878 -3.5314
  135OSM    C7S14637   6.202   6.123   7.209  1.3370 -0.7776  0.4490
  135OSM    H7S14638   6.182   6.209   7.142  0.6429  0.3811  2.1035
  135OSM    H7T14639   6.307   6.120   7.245  0.8382 -0.3556  1.9757
  135OSM    C8S14640   6.123   6.131   7.336 -0.2846  1.0298 -0.2535
  135OSM    H8S14641   6.015   6.110   7.320 -0.1442  0.0504  0.0096
  135OSM    H8T14642   6.150   6.233   7.371  0.7927  0.6657  0.0070
  135OSM    C9S14643   6.164   6.038   7.456  0.1204 -0.0225 -0.1304
  135OSM    H9S14644   6.273   6.056   7.464 -0.1202  2.2851 -1.5712
  135OSM    H9T14645   6.144   5.930   7.441  1.5265 -0.1646 -1.0567
  135OSM   C10S14646   6.098   6.081   7.582 -1.2437  0.6818  0.2068
  135OSM   H10S14647   6.086   6.191   7.574  0.2291  1.1325  3.5165
  135OSM   H10T14648   6.164   6.078   7.671 -0.0835  1.1386 -0.6327
  135OSM   C11S14649   5.959   6.016   7.611  0.5701  0.4316 -0.3852
  135OSM   H11S14650   5.977   5.908   7.593 -3.0479 -0.2737 -0.2242
  135OSM   H11T14651   5.899   6.055   7.525  0.8767 -0.1950 -0.8865
  135OSM   C12S14652   5.906   6.069   7.744 -0.0842 -0.2753 -0.1887
  135OSM   H12S14653   5.915   6.180   7.746 -0.0858 -0.2460 -1.4288
  135OSM   H12T14654   5.974   6.037   7.826  0.5440 -1.1332 -1.0375
  135OSM   C13S14655   5.763   6.033   7.788 -0.0056 -0.0839 -0.6059
  135OSM   H13S14656   5.683   6.073   7.722 -1.3117  2.1084  2.2142
  135OSM   H13T14657   5.742   6.083   7.885  0.4968 -1.3706  0.1751
  135OSM   C14S14658   5.752   5.881   7.821 -0.2004 -0.3297 -0.0909
  135OSM   H14S14659   5.834   5.867   7.895 -0.6277 -1.5532  0.1691
  135OSM   H14T14660   5.775   5.822   7.730  2.2756 -0.8457  0.8523
  135OSM   C15S14661   5.622   5.839   7.890 -0.1896  0.6492  0.2782
  135OSM   H15S14662   5.641   5.740   7.937 -1.0481 -1.2892 -3.2863
  135OSM   H15T14663   5.539   5.830   7.816 -0.1304 -0.8236  0.3743
  135OSM   C16S14664   5.576   5.927   8.011 -0.8122 -0.3094  0.7537
  135OSM   H16S14665   5.543   6.025   7.971  1.9569 -0.2339 -1.4915
  135OSM   H16T14666   5.665   5.942   8.077  0.4373 -0.8806 -0.7748
  135OSM   C17S14667   5.456   5.867   8.082  0.6073 -0.2135 -1.2853
  135OSM   H17S14668   5.375   5.850   8.007 -0.1073  0.4235 -0.6616
  135OSM   H17T14669   5.418   5.947   8.149 -0.6133 -1.6615 -0.2182
  135OSM   C18S14670   5.485   5.745   8.172  0.5325 -0.2402  0.2222
  135OSM   H18S14671   5.516   5.658   8.110 -1.4609 -0.2038 -0.8825
  135OSM   H18T14672   5.385   5.709   8.205  2.8835 -2.4106  5.5132
  135OSM   H18U14673   5.555   5.754   8.257  0.9806  1.1400 -0.2939
  135OSM    C1F14674   6.288   6.398   6.767  0.2836 -0.1284  0.0212
  135OSM     OF14675   6.193   6.454   6.712  0.4328 -0.0036  1.0438
  135OSM    C2F14676   6.405   6.474   6.822  0.1388 -0.0561  0.1198
  135OSM    H2F14677   6.458   6.533   6.743 -0.4513 -1.4159 -1.3278
  135OSM    H2G14678   6.483   6.402   6.856 -0.9302 -1.2458  0.0859
  135OSM    C3F14679   6.353   6.566   6.932 -0.6228 -0.4455  0.0479
  135OSM    H3F14680   6.270   6.631   6.898 -0.0978  0.3470  0.2677
  135OSM    H3G14681   6.437   6.637   6.947  2.0622 -3.7980  1.5342
  135OSM    C4F14682   6.301   6.510   7.071  0.6311  0.2387  0.0418
  135OSM    H4F14683   6.380   6.446   7.115  2.2305  0.5328 -2.3311
  135OSM    H4G14684   6.223   6.438   7.035  3.3921 -1.8267 -2.0229
  135OSM    C5F14685   6.249   6.610   7.178 -0.3690 -0.0579  0.2382
  135OSM    H5F14686   6.158   6.665   7.145 -1.5791 -0.7880  2.3148
  135OSM    H5G14687   6.322   6.691   7.203 -1.8920  0.2721  3.9248
  135OSM    C6F14688   6.225   6.535   7.306 -0.1945 -0.5630  0.2014
  135OSM    H6F14689   6.313   6.471   7.328  0.1613 -0.3195 -0.5125
  135OSM    H6G14690   6.134   6.477   7.281 -1.7789  2.0739 -0.4476
  135OSM    C7F14691   6.185   6.625   7.421  0.3177  0.1038  0.3871
  135OSM    H7F14692   6.100   6.692   7.393 -1.1039 -2.2778 -1.1710
  135OSM    H7G14693   6.273   6.687   7.450  0.0615 -0.4470  2.4138
  135OSM    C8F14694   6.133   6.536   7.534 -0.0612  0.0513 -0.3392
  135OSM    H8F14695   6.050   6.475   7.492 -0.0237 -0.7368  0.7212
  135OSM    H8G14696   6.080   6.601   7.607  2.4892  1.7964  0.0184
  135OSM    C9F14697   6.234   6.439   7.599  0.3048 -0.0034 -0.1951
  135OSM    H9F14698   6.296   6.381   7.529  0.1515 -3.4562  2.4080
  135OSM   C10F14699   6.247   6.406   7.726 -0.3254 -0.2794  0.1022
  135OSM   H10F14700   6.336   6.353   7.762 -0.1286 -0.8095 -1.1377
  135OSM   C11F14701   6.171   6.469   7.846 -0.0759 -0.7682 -0.1426
  135OSM   H11F14702   6.074   6.511   7.811 -0.7078 -0.1364  2.2717
  135OSM   H11G14703   6.219   6.558   7.890 -0.0288 -1.1492  0.5773
  135OSM   C12F14704   6.145   6.370   7.961 -0.1805 -0.5788  0.7438
  135OSM   H12F14705   6.157   6.266   7.924 -0.2337 -0.0399 -0.8454
  135OSM   H12G14706   6.037   6.366   7.990 -0.5678 -1.3666 -0.7446
  135OSM   C13F14707   6.227   6.394   8.091 -0.2733  0.3996  0.2024
  135OSM   H13F14708   6.224   6.502   8.115  0.1084  0.9331 -2.0782
  135OSM   H13G14709   6.334   6.379   8.068 -0.7426 -1.0203 -1.1980
  135OSM   C14F14710   6.184   6.316   8.213  0.6652  0.8254 -0.2953
  135OSM   H14F14711   6.195   6.208   8.188 -0.6772  0.7579 -0.5879
  135OSM   H14G14712   6.082   6.354   8.229  0.5519  0.8537 -1.0685
  135OSM   C15F14713   6.281   6.351   8.322 -1.0412 -0.0481 -0.4526
  135OSM   H15F14714   6.291   6.462   8.324  1.5338 -0.2550  0.6657
  135OSM   H15G14715   6.384   6.319   8.296 -0.7316  0.7876 -0.2838
  135OSM   C16F14716   6.223   6.298   8.456 -0.3487  0.7903  0.0841
  135OSM   H16F14717   6.220   6.188   8.447  3.5293  0.7061 -0.6733
  135OSM   H16G14718   6.121   6.342   8.467 -1.3661 -1.1242 -1.4412
  135OSM   C17F14719   6.314   6.314   8.581 -0.5104 -0.0968 -0.2306
  135OSM   H17F14720   6.403   6.248   8.566  1.2554  2.3305 -0.6237
  135OSM   H17G14721   6.261   6.266   8.666 -1.6608  1.3991 -0.0996
  135OSM   C18F14722   6.368   6.456   8.602 -0.1770 -0.2709 -0.3223
  135OSM   H18F14723   6.429   6.466   8.695  2.5655  1.8516 -2.2636
  135OSM   H18G14724   6.293   6.538   8.603  3.0120  2.7523 -0.9372
  135OSM   H18H14725   6.433   6.468   8.513 -0.3633  0.8692 -0.3116
  136OSM      N14726   4.565   0.540   5.741  0.0207  0.2294 -0.1854
  136OSM    C1514727   4.603   0.512   5.602  0.3038  0.0606 -0.4966
  136OSM   H15A14728   4.533   0.447   5.553  1.6060 -1.6378 -0.1744
  136OSM   H15B14729   4.699   0.462   5.599  0.8289  1.0777 -1.5656
  136OSM   H15C14730   4.613   0.597   5.536 -1.0929  1.7317  1.3973
  136OSM    C1414731   4.444   0.625   5.734  0.1273 -0.2430  0.0954
  136OSM   H14A14732   4.425   0.676   5.827  2.3776  0.8743 -0.0300
  136OSM   H14B14733   4.356   0.571   5.704 -0.2873 -0.0658  0.9617
  136OSM   H14C14734   4.459   0.706   5.665 -1.4997  0.3762  0.4535
  136OSM    C1314735   4.521   0.412   5.807 -0.6408  1.2221 -0.2545
  136OSM   H13A14736   4.531   0.418   5.915 -0.0153  2.2853 -0.3624
  136OSM   H13B14737   4.590   0.334   5.779 -2.3505 -0.5729  0.4279
  136OSM   H13C14738   4.426   0.385   5.765 -0.5302  0.2470  0.1041
  136OSM    C1214739   4.678   0.598   5.824 -0.1955  0.5331  0.4661
  136OSM   H12A14740   4.715   0.685   5.771 -1.1628  1.9416  2.0558
  136OSM   H12B14741   4.750   0.518   5.822 -0.5586  0.1564  1.9875
  136OSM    C1114742   4.666   0.635   5.977 -0.1481  0.6820 -1.0577
  136OSM   H11A14743   4.589   0.715   5.983  0.4386  1.0891  1.8092
  136OSM   H11B14744   4.764   0.674   6.010  0.4884 -1.3069 -0.5196
  136OSM      P14745   4.716   0.400   6.100  0.5302  0.3458 -0.4734
  136OSM    O1314746   4.642   0.285   6.145  0.7251 -0.0127  0.1101
  136OSM    O1414747   4.807   0.370   5.983  0.2662 -0.0930  0.6272
  136OSM    O1114748   4.799   0.458   6.220 -0.1599 -0.2157  0.1973
  136OSM    O1214749   4.618   0.521   6.059 -0.2312  0.0100  0.4212
  136OSM    C1S14750   4.739   0.482   6.341 -0.4225  1.3386 -0.6954
  136OSM    H1S14751   4.700   0.389   6.389  1.5294  1.5561  1.4109
  136OSM    H1T14752   4.662   0.562   6.332 -2.5146 -0.5834 -0.4643
  136OSM     NF14753   4.774   0.524   6.576 -0.3153  0.5605  0.1050
  136OSM    HNF14754   4.749   0.614   6.610 -0.6835  0.0051  1.3058
  136OSM    C2S14755   4.843   0.529   6.451 -0.3328 -0.4229 -0.2815
  136OSM    H2S14756   4.922   0.451   6.451 -0.0786 -0.1616  0.4062
  136OSM    C3S14757   4.904   0.656   6.404  0.0844  0.5649 -0.4012
  136OSM    H3S14758   4.821   0.725   6.380  1.3032  2.9878  2.1521
  136OSM     O314759   4.978   0.647   6.289 -0.0228 -0.3234  0.5897
  136OSM    HO314760   4.946   0.580   6.230  1.5157 -1.0968  0.6055
  136OSM    C4S14761   4.993   0.719   6.510  0.0947  0.0759  0.2937
  136OSM    H4S14762   5.065   0.650   6.558 -0.8647 -0.0820  1.5376
  136OSM    C5S14763   4.989   0.844   6.553  0.1004  0.3264  0.4631
  136OSM    H5S14764   4.905   0.903   6.514  0.3800 -0.9882 -2.2196
  136OSM    C6S14765   5.074   0.904   6.659  0.4569  0.1221 -0.5470
  136OSM    H6S14766   5.090   1.012   6.639  2.9077 -0.2040 -0.5398
  136OSM    H6T14767   5.178   0.864   6.664 -0.2749 -1.5474  3.5217
  136OSM    C7S14768   5.022   0.864   6.801 -0.3930 -0.1278  1.0877
  136OSM    H7S14769   4.925   0.909   6.832 -0.0205  0.7900  0.9371
  136OSM    H7T14770   5.092   0.919   6.867  0.0895  1.9771 -1.1175
  136OSM    C8S14771   5.042   0.716   6.845  0.8583 -0.4130 -0.5997
  136OSM    H8S14772   5.151   0.696   6.838  1.3149  1.9890 -0.6256
  136OSM    H8T14773   4.978   0.653   6.779  0.3238  0.0295 -0.5065
  136OSM    C9S14774   5.018   0.701   6.997 -0.4601 -0.2099  0.0790
  136OSM    H9S14775   5.071   0.789   7.038  0.8097 -0.1683 -1.5865
  136OSM    H9T14776   5.063   0.612   7.046  0.6450  1.2199  1.7033
  136OSM   C10S14777   4.871   0.705   7.041 -0.3113 -0.4601  0.3319
  136OSM   H10S14778   4.827   0.604   7.026  0.3853 -0.4591 -1.9520
  136OSM   H10T14779   4.810   0.778   6.984 -1.6818 -1.8468 -0.0224
  136OSM   C11S14780   4.854   0.748   7.188  0.3030 -0.4378  0.6596
  136OSM   H11S14781   4.746   0.757   7.213 -0.1767 -3.4468 -0.1314
  136OSM   H11T14782   4.885   0.855   7.191  0.9538 -0.4842 -2.5252
  136OSM   C12S14783   4.916   0.658   7.293  0.2170  0.5079  0.7203
  136OSM   H12S14784   5.020   0.646   7.256  0.1518 -0.1895  0.7634
  136OSM   H12T14785   4.858   0.564   7.293 -0.1100  0.6757 -1.2158
  136OSM   C13S14786   4.924   0.720   7.433  0.4750  0.5994  0.5819
  136OSM   H13S14787   4.984   0.813   7.440  1.4443  0.1435 -1.3282
  136OSM   H13T14788   4.971   0.639   7.492 -1.0202  1.1706  2.6285
  136OSM   C14S14789   4.786   0.748   7.497 -0.0579 -0.2489  0.2492
  136OSM   H14S14790   4.725   0.655   7.486 -0.5506  0.1000  0.0353
  136OSM   H14T14791   4.723   0.827   7.451 -1.6266 -0.7595  1.4827
  136OSM   C15S14792   4.808   0.787   7.643 -0.4100  0.3481 -0.3286
  136OSM   H15S14793   4.853   0.889   7.641 -1.1839  0.7252  0.6758
  136OSM   H15T14794   4.886   0.728   7.693 -1.5754 -0.2708  0.7779
  136OSM   C16S14795   4.684   0.766   7.731 -0.0798  0.2632  0.1558
  136OSM   H16S14796   4.654   0.660   7.722  0.4441  0.2805 -2.2964
  136OSM   H16T14797   4.596   0.825   7.700 -0.9586 -1.8830 -1.5650
  136OSM   C17S14798   4.715   0.795   7.874  0.4000 -0.6371 -0.7351
  136OSM   H17S14799   4.752   0.900   7.876  1.0312 -0.8741  0.2699
  136OSM   H17T14800   4.793   0.726   7.913 -0.6290 -1.1278  0.4910
  136OSM   C18S14801   4.594   0.802   7.968  0.2136  0.0779  0.5459
  136OSM   H18S14802   4.511   0.865   7.928  1.4221  2.4667  1.7228
  136OSM   H18T14803   4.605   0.845   8.069 -1.9473  2.7476 -0.2755
  136OSM   H18U14804   4.553   0.700   7.982  1.2065 -0.2365  1.1667
  136OSM    C1F14805   4.725   0.418   6.638 -1.0619  0.1189 -0.4419
  136OSM     OF14806   4.750   0.304   6.602  0.6288 -0.6347 -0.2751
  136OSM    C2F14807   4.621   0.459   6.744 -0.3134 -0.4433  0.2242
  136OSM    H2F14808   4.526   0.464   6.685 -1.0367 -0.3288  1.3874
  136OSM    H2G14809   4.646   0.557   6.789 -0.6175 -0.6486  0.8483
  136OSM    C3F14810   4.616   0.353   6.857  0.9093  0.0039  0.3888
  136OSM    H3F14811   4.716   0.345   6.904  0.9893 -2.5124 -0.1444
  136OSM    H3G14812   4.593   0.251   6.819 -0.0242  0.1888  0.4494
  136OSM    C4F14813   4.510   0.384   6.969  0.4066 -1.0522  0.2839
  136OSM    H4F14814   4.503   0.287   7.022 -1.0336 -1.0522  0.1304
  136OSM    H4G14815   4.414   0.419   6.925  1.1625  2.2731  1.1262
  136OSM    C5F14816   4.553   0.490   7.065  0.0322  0.0603  0.3487
  136OSM    H5F14817   4.585   0.583   7.014 -0.4533 -0.5760 -1.1208
  136OSM    H5G14818   4.642   0.453   7.121  1.8997  0.2738 -2.3886
  136OSM    C6F14819   4.453   0.518   7.178 -0.4155 -0.0977 -0.4113
  136OSM    H6F14820   4.418   0.428   7.233  0.1568  0.9591  1.7762
  136OSM    H6G14821   4.366   0.568   7.130 -0.7174 -0.4530 -0.2386
  136OSM    C7F14822   4.494   0.625   7.278 -0.0195  0.6359  0.3096
  136OSM    H7F14823   4.539   0.711   7.223  1.5143 -0.0155  0.5401
  136OSM    H7G14824   4.566   0.604   7.360  1.4957  0.9898 -0.9003
  136OSM    C8F14825   4.369   0.695   7.340 -0.7602  0.0448  0.2302
  136OSM    H8F14826   4.327   0.613   7.403 -2.0824  0.6799  0.1917
  136OSM    H8G14827   4.294   0.719   7.262  1.0163  1.7456 -0.9741
  136OSM    C9F14828   4.397   0.815   7.417 -0.3851 -0.2225  0.7164
  136OSM    H9F14829   4.493   0.866   7.405 -0.7708  0.4198  0.2880
  136OSM   C10F14830   4.307   0.887   7.483 -0.2546 -0.2674  0.2381
  136OSM   H10F14831   4.343   0.975   7.539  1.2971  0.5265 -1.9734
  136OSM   C11F14832   4.162   0.854   7.508  1.4607  0.0585  0.0720
  136OSM   H11F14833   4.144   0.878   7.615  0.7459 -0.6107  0.1054
  136OSM   H11G14834   4.147   0.745   7.500  1.8572 -0.0787  1.1048
  136OSM   C12F14835   4.063   0.938   7.417 -0.4917 -0.2185  0.4058
  136OSM   H12F14836   3.954   0.923   7.429 -0.0912 -3.0729  0.8101
  136OSM   H12G14837   4.093   0.906   7.315  0.5906 -1.3045  1.0437
  136OSM   C13F14838   4.081   1.096   7.433  0.3595 -0.2394 -0.3708
  136OSM   H13F14839   4.020   1.143   7.353 -0.1933  1.5331  1.0686
  136OSM   H13G14840   4.184   1.126   7.402  0.1164 -0.4479 -1.4143
  136OSM   C14F14841   4.034   1.169   7.562 -0.5320  0.1576 -0.7473
  136OSM   H14F14842   4.008   1.271   7.526 -0.9606  0.7052  1.0578
  136OSM   H14G14843   4.116   1.167   7.638 -1.0731  0.7988 -0.1340
  136OSM   C15F14844   3.908   1.104   7.622 -0.4729 -0.5081 -0.4333
  136OSM   H15F14845   3.939   1.000   7.646  0.5136 -0.0415  0.3738
  136OSM   H15G14846   3.841   1.099   7.534 -2.8919  0.3791  1.3110
  136OSM   C16F14847   3.855   1.171   7.751  0.0682 -0.0464  0.2493
  136OSM   H16F14848   3.838   1.278   7.728 -1.5980 -0.4456 -0.4047
  136OSM   H16G14849   3.927   1.166   7.836  1.6479  0.5662 -1.0168
  136OSM   C17F14850   3.720   1.112   7.804 -0.1635 -0.0205  0.1171
  136OSM   H17F14851   3.737   1.005   7.828  0.0790  0.0738  0.3738
  136OSM   H17G14852   3.661   1.098   7.711 -0.4548 -2.8388  0.7031
  136OSM   C18F14853   3.650   1.191   7.915  0.4831 -0.3030 -0.0064
  136OSM   H18F14854   3.613   1.290   7.880 -1.2530 -1.2172 -0.8298
  136OSM   H18G14855   3.718   1.206   8.001  0.6037 -1.8050  0.1762
  136OSM   H18H14856   3.567   1.130   7.957 -0.1059  0.4960 -0.0056
  137OSM      N14857   1.277   5.896   6.255  0.3066  0.3979 -0.0261
  137OSM    C1514858   1.350   6.018   6.234 -0.0351  0.5646 -0.4259
  137OSM   H15A14859   1.400   6.008   6.139 -1.5663  0.6963 -1.2516
  137OSM   H15B14860   1.425   6.040   6.309  1.7219  0.1731 -2.0174
  137OSM   H15C14861   1.286   6.105   6.232 -1.1670 -0.1994  1.4123
  137OSM    C1414862   1.238   5.882   6.398 -0.7310 -0.3931 -0.3370
  137OSM   H14A14863   1.319   5.909   6.463 -1.0171  1.4972 -0.7400
  137OSM   H14B14864   1.213   5.778   6.414 -0.9640 -0.8760 -3.4804
  137OSM   H14C14865   1.163   5.956   6.423  0.3606 -0.0260  1.9540
  137OSM    C1314866   1.156   5.887   6.171  0.3438  1.3131  0.3494
  137OSM   H13A14867   1.100   5.802   6.208  1.5163 -0.0121 -0.8522
  137OSM   H13B14868   1.174   5.881   6.064 -1.3634 -1.6195  0.1723
  137OSM   H13C14869   1.091   5.973   6.177 -1.9618 -0.2586 -1.2821
  137OSM    C1214870   1.380   5.786   6.232 -0.5706  0.2095 -0.2486
  137OSM   H12A14871   1.464   5.794   6.300 -0.4235  1.2741 -0.5557
  137OSM   H12B14872   1.408   5.803   6.130 -0.5732 -0.3575 -0.3467
  137OSM    C1114873   1.327   5.637   6.238  0.1916  0.5453  0.5985
  137OSM   H11A14874   1.396   5.577   6.175 -0.8034  0.7211 -0.6683
  137OSM   H11B14875   1.232   5.643   6.180 -0.8119 -0.2888  2.1222
  137OSM      P14876   1.194   5.477   6.390  0.3706 -0.5355 -0.0694
  137OSM    O1314877   1.058   5.534   6.399  0.2290  0.1479 -0.7743
  137OSM    O1414878   1.203   5.362   6.290 -0.2257 -0.2061  0.1680
  137OSM    O1114879   1.238   5.412   6.526  0.1672  0.6273 -0.0909
  137OSM    O1214880   1.308   5.584   6.367  0.7879 -0.2998 -0.0287
  137OSM    C1S14881   1.248   5.483   6.648 -0.4952 -0.8939 -0.3877
  137OSM    H1S14882   1.244   5.593   6.634  1.7310 -0.7052  0.2460
  137OSM    H1T14883   1.349   5.455   6.686  0.9724  0.4606 -3.1285
  137OSM     NF14884   1.156   5.527   6.868 -0.3546 -0.0024  0.4222
  137OSM    HNF14885   1.210   5.483   6.939  0.3516 -2.0468 -1.3341
  137OSM    C2S14886   1.144   5.444   6.751  0.2438 -0.3181  0.0285
  137OSM    H2S14887   1.044   5.466   6.710  1.1788  1.4429 -1.3966
  137OSM    C3S14888   1.153   5.294   6.792  0.0304  1.1058  0.2609
  137OSM    H3S14889   1.253   5.273   6.837  0.6262 -2.7837 -2.6101
  137OSM     O314890   1.132   5.213   6.677 -0.4408 -0.1700  0.7770
  137OSM    HO314891   1.140   5.284   6.613 -0.0707  0.3257  1.3658
  137OSM    C4S14892   1.049   5.254   6.895  0.3181  0.1738 -0.3215
  137OSM    H4S14893   1.078   5.289   6.995  1.8614  4.1532 -2.0534
  137OSM    C5S14894   0.932   5.187   6.875 -0.3394  0.0299 -0.1932
  137OSM    H5S14895   0.916   5.135   6.779 -1.7499 -1.7477  0.9751
  137OSM    C6S14896   0.828   5.137   6.977 -0.3687  0.0497  0.0942
  137OSM    H6S14897   0.823   5.027   6.988 -0.7828  0.1103  0.5222
  137OSM    H6T14898   0.722   5.154   6.946 -1.1548  0.5417  2.9002
  137OSM    C7S14899   0.852   5.187   7.120  0.0981  0.2749 -0.1038
  137OSM    H7S14900   0.833   5.295   7.133  1.5582  0.4858  0.3935
  137OSM    H7T14901   0.958   5.166   7.148  0.0506  0.4098  0.1667
  137OSM    C8S14902   0.768   5.114   7.225  0.5808  0.1417  0.0808
  137OSM    H8S14903   0.820   5.017   7.242 -1.0279 -0.9481 -0.9710
  137OSM    H8T14904   0.673   5.079   7.179  1.6267  0.7357 -2.6117
  137OSM    C9S14905   0.749   5.204   7.347  0.1990 -0.7479 -0.4194
  137OSM    H9S14906   0.688   5.294   7.325 -1.0943 -1.4063  0.3822
  137OSM    H9T14907   0.851   5.243   7.365  1.0267 -2.0772 -2.1427
  137OSM   C10S14908   0.683   5.134   7.464  0.7120 -0.2361 -0.2471
  137OSM   H10S14909   0.598   5.071   7.432  0.5605 -0.2595  0.1993
  137OSM   H10T14910   0.650   5.205   7.542 -0.1774  0.1531 -0.9723
  137OSM   C11S14911   0.779   5.030   7.537 -1.1945 -0.0332 -0.3060
  137OSM   H11S14912   0.850   5.100   7.585  0.6293 -1.0606 -1.4656
  137OSM   H11T14913   0.841   4.982   7.458  0.7434 -1.7127  2.1621
  137OSM   C12S14914   0.716   4.937   7.646  0.3471 -0.3455 -0.0535
  137OSM   H12S14915   0.792   4.881   7.704  1.6164  0.3520 -1.0274
  137OSM   H12T14916   0.649   4.867   7.592 -0.9034  1.3742 -0.7923
  137OSM   C13S14917   0.626   5.029   7.745 -0.5038 -0.0676 -0.1787
  137OSM   H13S14918   0.526   5.049   7.700 -0.3029  1.5204  0.0789
  137OSM   H13T14919   0.682   5.124   7.746  1.8140 -1.4020  1.0038
  137OSM   C14S14920   0.620   4.969   7.887 -0.3613 -0.3316  0.0485
  137OSM   H14S14921   0.580   4.866   7.882  0.6242 -0.7546  0.7008
  137OSM   H14T14922   0.552   5.041   7.938  0.2605  0.7144 -0.5758
  137OSM   C15S14923   0.752   4.974   7.965  0.4438  0.1255  0.0631
  137OSM   H15S14924   0.808   5.070   7.965  0.8520 -0.1075 -1.7508
  137OSM   H15T14925   0.824   4.902   7.921  0.3236 -0.9498  1.5660
  137OSM   C16S14926   0.737   4.925   8.109 -1.1737 -0.1786 -0.6420
  137OSM   H16S14927   0.715   4.816   8.114  0.1897 -0.4543 -0.4578
  137OSM   H16T14928   0.665   4.988   8.165 -0.2021  1.5744 -1.3596
  137OSM   C17S14929   0.876   4.917   8.168  0.6222  0.2012  0.2617
  137OSM   H17S14930   0.922   5.018   8.173 -0.7729  0.7568  3.9145
  137OSM   H17T14931   0.933   4.850   8.101 -0.8158 -2.0444  1.2251
  137OSM   C18S14932   0.868   4.860   8.306 -0.5476 -0.4367  0.0037
  137OSM   H18S14933   0.833   4.754   8.302  0.5285 -0.8809  1.8201
  137OSM   H18T14934   0.793   4.919   8.363  0.2354 -0.5526  1.1665
  137OSM   H18U14935   0.966   4.866   8.357 -0.2535 -0.8203 -0.5059
  137OSM    C1F14936   1.120   5.657   6.879  0.2763  0.0937  0.2791
  137OSM     OF14937   1.078   5.729   6.789  0.1492 -1.0660 -0.0543
  137OSM    C2F14938   1.144   5.718   7.023 -0.2262 -1.1299 -0.3559
  137OSM    H2F14939   1.243   5.679   7.053 -0.6259 -1.3792  0.6729
  137OSM    H2G14940   1.071   5.680   7.098 -1.1964 -0.4150 -0.9239
  137OSM    C3F14941   1.138   5.869   7.032 -0.6391 -0.4084 -0.3009
  137OSM    H3F14942   1.038   5.910   7.003 -0.7506 -0.1291  0.4572
  137OSM    H3G14943   1.226   5.902   6.973 -0.2152  1.8013  1.5268
  137OSM    C4F14944   1.157   5.923   7.167 -0.3572 -0.2816  0.1946
  137OSM    H4F14945   1.081   5.883   7.238 -1.5894  0.7333 -0.5490
  137OSM    H4G14946   1.141   6.033   7.165  0.4067 -0.1584  0.4730
  137OSM    C5F14947   1.302   5.900   7.228 -0.0191  0.1709  0.4596
  137OSM    H5F14948   1.372   5.981   7.196  2.4206 -2.0614  0.0290
  137OSM    H5G14949   1.345   5.804   7.192 -3.3052 -1.1793 -0.0521
  137OSM    C6F14950   1.291   5.885   7.379 -0.2087  0.5607 -0.3674
  137OSM    H6F14951   1.214   5.806   7.391  2.4516 -1.8797  1.4188
  137OSM    H6G14952   1.258   5.979   7.427 -0.2098 -0.2642  1.2687
  137OSM    C7F14953   1.420   5.833   7.444 -0.2817  1.2733 -0.6915
  137OSM    H7F14954   1.499   5.908   7.424  1.1053  0.9282  3.1124
  137OSM    H7G14955   1.456   5.742   7.390 -0.3042  0.3788  0.7827
  137OSM    C8F14956   1.394   5.797   7.595 -0.5198  0.1948  0.7690
  137OSM    H8F14957   1.485   5.740   7.623 -0.8631 -0.5656  0.3506
  137OSM    H8G14958   1.305   5.731   7.604 -1.6518  1.6575  0.6519
  137OSM    C9F14959   1.393   5.918   7.685 -0.1161 -0.4101 -0.2793
  137OSM    H9F14960   1.448   6.009   7.658 -1.5674  0.3458 -0.7859
  137OSM   C10F14961   1.311   5.920   7.800 -0.0257 -0.1369 -0.1108
  137OSM   H10F14962   1.331   6.005   7.867  1.5282  0.8326 -1.7428
  137OSM   C11F14963   1.219   5.818   7.856 -0.1807  0.2704 -0.4484
  137OSM   H11F14964   1.232   5.720   7.804 -1.7377 -0.0192 -0.2951
  137OSM   H11G14965   1.113   5.849   7.842  0.0137  1.5286  0.7654
  137OSM   C12F14966   1.224   5.794   8.007 -0.5954  0.6733  1.5199
  137OSM   H12F14967   1.329   5.767   8.031  0.2008  1.1181 -1.2858
  137OSM   H12G14968   1.163   5.704   8.029  1.3128 -1.0159  0.0948
  137OSM   C13F14969   1.167   5.910   8.094  0.2032  0.0228  0.3567
  137OSM   H13F14970   1.071   5.942   8.049 -0.2736  0.2342  1.5096
  137OSM   H13G14971   1.244   5.991   8.087  0.4120 -0.0730  1.4876
  137OSM   C14F14972   1.124   5.877   8.235  0.3963 -0.8703  0.2727
  137OSM   H14F14973   1.054   5.791   8.225 -1.9672  0.7021  2.4000
  137OSM   H14G14974   1.069   5.964   8.276  0.5007  0.1067 -1.6424
  137OSM   C15F14975   1.227   5.835   8.332  0.2798 -0.0665 -0.5720
  137OSM   H15F14976   1.307   5.777   8.280 -0.0405 -0.9264 -0.1179
  137OSM   H15G14977   1.174   5.759   8.394 -0.8412  2.2732  1.4165
  137OSM   C16F14978   1.283   5.948   8.425  0.5157 -0.0503  0.5722
  137OSM   H16F14979   1.191   5.995   8.468  0.5675 -1.5516  2.3765
  137OSM   H16G14980   1.328   6.024   8.357  1.4776 -1.7360 -0.7040
  137OSM   C17F14981   1.373   5.903   8.537  0.0593 -0.1237 -0.3529
  137OSM   H17F14982   1.473   5.871   8.501  0.5403  1.0975 -0.1300
  137OSM   H17G14983   1.324   5.812   8.578  1.1340 -0.0406  1.1525
  137OSM   C18F14984   1.381   6.012   8.649 -0.6541 -0.0028  0.4300
  137OSM   H18F14985   1.425   6.108   8.612 -0.3129 -0.3765 -0.1323
  137OSM   H18G14986   1.444   5.986   8.736  0.4333  1.7692  0.2138
  137OSM   H18H14987   1.278   6.025   8.687 -1.6667  0.1135 -2.2276
  138OSM      N14988   1.936   0.961   6.023 -0.0458  0.3828  0.2431
  138OSM    C1514989   2.033   0.927   6.131 -0.4211 -0.4444  0.2508
  138OSM   H15A14990   2.032   0.821   6.153 -2.4279 -1.0189 -2.3567
  138OSM   H15B14991   1.991   0.985   6.212  1.3747  0.0371  0.8744
  138OSM   H15C14992   2.133   0.965   6.114 -0.0209 -1.4497  0.2710
  138OSM    C1414993   1.905   1.102   6.029 -0.2025 -0.5471 -0.1565
  138OSM   H14A14994   1.828   1.116   6.103  0.4734  1.6111  0.1799
  138OSM   H14B14995   1.871   1.141   5.934  1.9191  1.1837 -0.2389
  138OSM   H14C14996   1.991   1.163   6.051 -2.1252  1.3320  2.4610
  138OSM    C1314997   2.013   0.923   5.900  0.3508 -0.2005  0.0328
  138OSM   H13A14998   2.046   0.821   5.911  3.4692  0.5231 -2.0817
  138OSM   H13B14999   2.106   0.977   5.897  0.5359 -0.5650 -0.9416
  138OSM   H13C15000   1.962   0.941   5.806  0.3711 -0.8104 -0.0915
  138OSM    C1215001   1.813   0.875   6.024 -0.0235  0.0307 -0.0314
  138OSM   H12A15002   1.844   0.773   6.007 -2.2984 -0.5374 -0.9340
  138OSM   H12B15003   1.741   0.898   5.946  0.6836 -1.8007 -1.2680
  138OSM    C1115004   1.734   0.870   6.162 -0.6084  0.6967  0.0422
  138OSM   H11A15005   1.793   0.816   6.238 -1.5359  0.8684  0.8894
  138OSM   H11B15006   1.651   0.797   6.148  0.5292 -0.5287 -0.4484
  138OSM      P15007   1.571   1.079   6.160 -0.4532 -0.0247 -0.1282
  138OSM    O1315008   1.540   1.192   6.250  0.2956 -0.7725 -0.1874
  138OSM    O1415009   1.597   1.119   6.018 -0.3537  0.5439  0.7046
  138OSM    O1115010   1.442   0.980   6.164 -0.1539  0.3535  0.6019
  138OSM    O1215011   1.687   0.996   6.221  0.3337  0.4933  0.6090
  138OSM    C1S15012   1.388   0.910   6.276  0.4127  0.1853 -0.1442
  138OSM    H1S15013   1.463   0.875   6.350  1.5365 -0.9883 -1.8125
  138OSM    H1T15014   1.334   0.822   6.236 -1.2187  2.0391 -2.1769
  138OSM     NF15015   1.253   0.934   6.481  0.0352  0.0186  0.1172
  138OSM    HNF15016   1.174   0.874   6.484  1.2230 -1.5563  0.3302
  138OSM    C2S15017   1.288   1.001   6.355  0.4056 -0.2902 -0.4009
  138OSM    H2S15018   1.344   1.091   6.388  0.4472 -0.7285  0.7355
  138OSM    C3S15019   1.170   1.032   6.262  0.2818 -0.4964 -0.4306
  138OSM    H3S15020   1.123   0.934   6.238  1.7394 -1.1511 -0.6720
  138OSM     O315021   1.199   1.089   6.131  0.0680  0.7941 -0.0187
  138OSM    HO315022   1.289   1.122   6.136 -0.1174  1.5179 -1.1329
  138OSM    C4S15023   1.074   1.114   6.346 -0.4287 -0.1789 -0.1429
  138OSM    H4S15024   1.013   1.054   6.415  1.2588 -1.2970  0.4135
  138OSM    C5S15025   1.058   1.247   6.348 -0.2459 -0.0383  0.2058
  138OSM    H5S15026   1.113   1.311   6.277 -1.1192 -0.6716 -1.0681
  138OSM    C6S15027   0.967   1.320   6.443  0.2081 -0.1161  0.7925
  138OSM    H6S15028   0.895   1.246   6.484 -1.2563  1.3705  1.0045
  138OSM    H6T15029   0.907   1.390   6.380  0.5711 -0.3906  0.1399
  138OSM    C7S15030   1.053   1.388   6.557  0.1445 -1.1308  0.2605
  138OSM    H7S15031   0.985   1.466   6.596 -0.4985 -0.3530 -2.3265
  138OSM    H7T15032   1.131   1.452   6.510 -0.2919 -0.4227  0.5047
  138OSM    C8S15033   1.109   1.291   6.661 -0.3819  0.0043  0.3193
  138OSM    H8S15034   1.154   1.202   6.612 -0.7294  0.0189 -0.0307
  138OSM    H8T15035   1.021   1.259   6.720  0.0104 -3.9000 -1.0531
  138OSM    C9S15036   1.216   1.363   6.747  0.2226  0.1423  0.2750
  138OSM    H9S15037   1.169   1.442   6.810 -0.4324  0.0947 -0.1404
  138OSM    H9T15038   1.293   1.403   6.678 -0.5909 -1.3391 -1.5510
  138OSM   C10S15039   1.299   1.273   6.848 -0.4908  0.3234 -0.4473
  138OSM   H10S15040   1.379   1.327   6.904  0.0411 -0.1807 -0.7099
  138OSM   H10T15041   1.347   1.193   6.787  2.6376  3.1004 -1.8170
  138OSM   C11S15042   1.207   1.198   6.939 -0.4045 -0.2428 -0.2139
  138OSM   H11S15043   1.160   1.120   6.875 -1.4365 -0.5112  0.8417
  138OSM   H11T15044   1.119   1.260   6.967 -1.4216 -1.9865  0.5296
  138OSM   C12S15045   1.279   1.145   7.063  0.5500  0.3740  0.5763
  138OSM   H12S15046   1.371   1.103   7.018  0.7905 -0.0165  1.4285
  138OSM   H12T15047   1.228   1.059   7.110 -1.2247  1.4494  0.6893
  138OSM   C13S15048   1.311   1.250   7.166 -0.2181 -0.6387 -0.4304
  138OSM   H13S15049   1.370   1.340   7.138  0.6935 -1.6142 -1.7053
  138OSM   H13T15050   1.371   1.208   7.249 -1.6251  0.0378  0.9551
  138OSM   C14S15051   1.182   1.318   7.221  0.4230  0.1920  0.5247
  138OSM   H14S15052   1.109   1.235   7.232  0.2337  0.3052  0.1327
  138OSM   H14T15053   1.160   1.395   7.144 -1.0225 -3.5964 -3.0275
  138OSM   C15S15054   1.200   1.370   7.364  0.5131  0.2780 -0.1480
  138OSM   H15S15055   1.104   1.403   7.409  0.6410 -1.7837  1.6971
  138OSM   H15T15056   1.268   1.457   7.357  3.0558 -1.5451  1.0222
  138OSM   C16S15057   1.243   1.265   7.475  0.2463 -0.1733  0.1724
  138OSM   H16S15058   1.351   1.248   7.457  0.4736  1.1596  0.2615
  138OSM   H16T15059   1.189   1.172   7.449 -1.7298  0.9794  0.0355
  138OSM   C17S15060   1.207   1.317   7.617  0.3810  0.2936  0.5782
  138OSM   H17S15061   1.108   1.364   7.599 -1.4017 -2.5819  2.5877
  138OSM   H17T15062   1.284   1.389   7.654 -1.8464  2.1536  1.7153
  138OSM   C18S15063   1.209   1.214   7.723  0.2463 -0.3659 -0.3741
  138OSM   H18S15064   1.178   1.247   7.825  1.3828  1.8852 -0.7263
  138OSM   H18T15065   1.311   1.175   7.744  0.4161  2.1018  4.0312
  138OSM   H18U15066   1.141   1.130   7.698 -0.4181 -0.0317  0.2749
  138OSM    C1F15067   1.333   0.938   6.585  0.1815 -0.0894 -0.4153
  138OSM     OF15068   1.441   0.999   6.577  0.5443 -0.1008  0.3790
  138OSM    C2F15069   1.300   0.855   6.706 -1.0322 -0.2228  0.0870
  138OSM    H2F15070   1.286   0.751   6.671  2.0523 -0.6629  0.0434
  138OSM    H2G15071   1.200   0.892   6.736 -0.0313  0.1325  3.1100
  138OSM    C3F15072   1.407   0.874   6.820  0.0626 -0.1769 -0.9096
  138OSM    H3F15073   1.407   0.984   6.833 -0.3445 -0.2156 -0.5548
  138OSM    H3G15074   1.508   0.841   6.789  0.6455 -1.9044  2.5680
  138OSM    C4F15075   1.366   0.808   6.943  0.1405  0.0053 -0.1878
  138OSM    H4F15076   1.353   0.701   6.916  0.1524 -0.2553  0.7993
  138OSM    H4G15077   1.268   0.847   6.976  0.7271  0.1573  1.4549
  138OSM    C5F15078   1.466   0.822   7.046  0.0708 -0.5094 -0.6773
  138OSM    H5F15079   1.464   0.929   7.077 -2.1748 -0.8358  0.3511
  138OSM    H5G15080   1.570   0.797   7.015 -0.1584  0.3372 -2.2027
  138OSM    C6F15081   1.429   0.753   7.178  1.1248  0.4621 -0.9966
  138OSM    H6F15082   1.508   0.777   7.252 -0.3362  0.9048  0.4538
  138OSM    H6G15083   1.443   0.646   7.151  0.5072  0.1384 -0.0495
  138OSM    C7F15084   1.287   0.797   7.235 -0.0359 -0.1926 -0.4690
  138OSM    H7F15085   1.202   0.775   7.168  0.8068  1.4132 -2.1513
  138OSM    H7G15086   1.290   0.908   7.231 -2.0297 -0.1570 -1.2355
  138OSM    C8F15087   1.260   0.743   7.380  0.8676 -0.6038 -0.5976
  138OSM    H8F15088   1.320   0.650   7.387 -0.6137 -1.6125 -1.1351
  138OSM    H8G15089   1.154   0.714   7.393  0.0325  2.9784  1.3975
  138OSM    C9F15090   1.290   0.835   7.492 -0.0947  0.2708 -0.5494
  138OSM    H9F15091   1.231   0.928   7.483 -1.0365 -0.0606  1.8370
  138OSM   C10F15092   1.386   0.835   7.583  0.7352  0.5093 -0.3338
  138OSM   H10F15093   1.390   0.916   7.657  1.3181 -1.5341  1.9311
  138OSM   C11F15094   1.489   0.734   7.617  0.0166 -0.2893 -0.8289
  138OSM   H11F15095   1.595   0.764   7.607 -0.1351  0.2531 -0.7821
  138OSM   H11G15096   1.479   0.657   7.538  1.1366  2.4404 -3.7246
  138OSM   C12F15097   1.458   0.678   7.759  0.6924 -0.2839 -0.2059
  138OSM   H12F15098   1.368   0.615   7.741 -0.1277  0.7173  0.3460
  138OSM   H12G15099   1.444   0.755   7.837 -0.0884  0.8428 -1.4418
  138OSM   C13F15100   1.564   0.582   7.814  0.0663 -0.0748  0.0574
  138OSM   H13F15101   1.653   0.643   7.838 -0.5902  0.9373 -0.0689
  138OSM   H13G15102   1.592   0.499   7.746 -0.2402  1.1227 -1.5494
  138OSM   C14F15103   1.512   0.522   7.944 -0.1758  0.0198  0.0963
  138OSM   H14F15104   1.420   0.467   7.918 -0.6084  0.7140  0.1402
  138OSM   H14G15105   1.485   0.606   8.012 -1.1326  1.0453 -1.5137
  138OSM   C15F15106   1.614   0.438   8.017  0.2958  0.5847 -0.4716
  138OSM   H15F15107   1.709   0.491   8.040 -0.5377  1.7304  0.3746
  138OSM   H15G15108   1.645   0.349   7.958  0.2359  0.9310 -1.0237
  138OSM   C16F15109   1.559   0.366   8.140 -0.4049 -0.5245  1.0156
  138OSM   H16F15110   1.647   0.311   8.180  0.0911  1.3107  2.5314
  138OSM   H16G15111   1.476   0.298   8.110 -0.9459  0.3804  0.4620
  138OSM   C17F15112   1.491   0.457   8.244  0.0288  0.6056 -0.4308
  138OSM   H17F15113   1.415   0.521   8.194 -1.6966  0.0114  1.3522
  138OSM   H17G15114   1.574   0.525   8.275  1.3145 -0.2804 -1.8633
  138OSM   C18F15115   1.438   0.386   8.375  0.1342  0.2274 -0.1782
  138OSM   H18F15116   1.363   0.306   8.358  1.2046 -0.8403  0.1428
  138OSM   H18G15117   1.400   0.466   8.443 -2.2436 -1.7692  0.8998
  138OSM   H18H15118   1.515   0.326   8.427 -1.2512  0.0236  1.6952
  139OSM      N15119   0.257   1.885   5.833  0.0119  0.2002 -0.0408
  139OSM    C1515120   0.306   2.019   5.870  0.0303  0.0439  0.0386
  139OSM   H15A15121   0.256   2.054   5.959 -1.8963  0.2524 -1.1050
  139OSM   H15B15122   0.310   2.087   5.785  0.5589  0.2019  0.1846
  139OSM   H15C15123   0.409   2.012   5.900  0.0858  0.3870 -0.0677
  139OSM    C1415124   0.143   1.901   5.735 -0.5333 -0.0921 -0.1687
  139OSM   H14A15125   0.092   1.806   5.726 -0.7412 -0.0449  0.5240
  139OSM   H14B15126   0.178   1.924   5.635  0.9866 -0.2447  0.3205
  139OSM   H14C15127   0.065   1.969   5.765 -0.5566  0.6426 -1.8353
  139OSM    C1315128   0.367   1.809   5.765 -0.2559 -0.5093 -0.2145
  139OSM   H13A15129   0.334   1.716   5.721  0.7189 -1.0113  0.1052
  139OSM   H13B15130   0.442   1.774   5.834 -0.4974 -0.2690  0.1750
  139OSM   H13C15131   0.400   1.868   5.680  0.3322 -0.7878 -0.1820
  139OSM    C1215132   0.209   1.807   5.961 -0.0973  0.3476  0.4062
  139OSM   H12A15133   0.175   1.708   5.937  2.3083 -0.0401 -1.6443
  139OSM   H12B15134   0.125   1.860   6.004  0.0505 -0.9865  2.4245
  139OSM    C1115135   0.308   1.779   6.080 -0.1951  0.1391 -0.4776
  139OSM   H11A15136   0.249   1.747   6.170 -0.6775 -0.5842 -1.0459
  139OSM   H11B15137   0.366   1.867   6.113 -0.8676  0.4334 -0.0663
  139OSM      P15138   0.367   1.529   6.052 -0.0653 -0.3571  0.4549
  139OSM    O1315139   0.251   1.497   5.976  0.4238 -0.6414  0.0483
  139OSM    O1415140   0.496   1.450   6.035  0.4292  0.2141 -0.3689
  139OSM    O1115141   0.329   1.522   6.199  0.7565  0.2490 -0.0722
  139OSM    O1215142   0.404   1.690   6.041  0.1523 -0.3183  0.4415
  139OSM    C1S15143   0.424   1.563   6.304  0.3142 -0.9546 -0.0431
  139OSM    H1S15144   0.420   1.674   6.306  3.3795 -0.8220  0.5342
  139OSM    H1T15145   0.527   1.532   6.278  0.7394  0.1447  0.2847
  139OSM     NF15146   0.446   1.582   6.553 -1.0059  0.1174  0.4877
  139OSM    HNF15147   0.493   1.529   6.624  1.0340  2.4078  0.9454
  139OSM    C2S15148   0.386   1.515   6.446  0.3954 -0.3341 -0.5625
  139OSM    H2S15149   0.276   1.528   6.451  0.4220 -0.3792  0.4045
  139OSM    C3S15150   0.422   1.365   6.447 -0.2707 -0.4653 -0.4576
  139OSM    H3S15151   0.532   1.362   6.454 -0.2681  1.6319  0.7400
  139OSM     O315152   0.391   1.294   6.331  0.4548 -0.2964  0.2080
  139OSM    HO315153   0.372   1.366   6.272 -0.8655 -0.1753  0.7613
  139OSM    C4S15154   0.363   1.296   6.563  0.2490 -0.9618 -0.3335
  139OSM    H4S15155   0.253   1.291   6.558  0.1988  0.3580 -0.7450
  139OSM    C5S15156   0.427   1.226   6.653 -0.1568  0.3125  0.1252
  139OSM    H5S15157   0.536   1.216   6.643 -0.4870 -3.0590 -0.5405
  139OSM    C6S15158   0.353   1.150   6.759  0.3785 -0.5628 -0.1034
  139OSM    H6S15159   0.418   1.112   6.841 -2.2547  1.8190  3.2290
  139OSM    H6T15160   0.300   1.062   6.717  0.3187 -0.4432 -0.2787
  139OSM    C7S15161   0.263   1.243   6.838 -0.5793 -0.2496 -0.0498
  139OSM    H7S15162   0.176   1.268   6.775  0.2999 -1.4200 -1.7696
  139OSM    H7T15163   0.310   1.338   6.871  0.9462 -0.4663 -1.5349
  139OSM    C8S15164   0.204   1.174   6.971  0.2473 -0.1711  0.5719
  139OSM    H8S15165   0.298   1.160   7.029  1.3822 -1.6084 -1.5321
  139OSM    H8T15166   0.167   1.075   6.937  0.8483  0.0385 -0.7308
  139OSM    C9S15167   0.097   1.246   7.049 -0.3676 -1.3185  0.1259
  139OSM    H9S15168   0.016   1.182   7.088  0.4884 -1.1030  2.3330
  139OSM    H9T15169   0.041   1.320   6.989  3.2311  1.2783 -0.2486
  139OSM   C10S15170   0.153   1.316   7.173 -0.3996  0.4536  0.6246
  139OSM   H10S15171   0.072   1.386   7.203  0.1736  1.5313 -0.2833
  139OSM   H10T15172   0.252   1.363   7.154 -0.6741  1.2469  1.1184
  139OSM   C11S15173   0.169   1.227   7.298 -0.1705  0.0003  0.3913
  139OSM   H11S15174   0.230   1.281   7.373  1.2082  1.4389 -1.7315
  139OSM   H11T15175   0.222   1.132   7.274  0.0568 -0.4496  2.5767
  139OSM   C12S15176   0.031   1.202   7.360 -0.3018 -0.0884 -0.4535
  139OSM   H12S15177   0.056   1.108   7.414 -1.2237  0.6448  1.2893
  139OSM   H12T15178  -0.055   1.188   7.292 -0.2384  0.3577 -0.6261
  139OSM   C13S15179  -0.015   1.303   7.465  0.1156 -0.9359  0.4523
  139OSM   H13S15180  -0.040   1.406   7.432  2.4249 -0.4389  0.2052
  139OSM   H13T15181   0.072   1.317   7.533  0.3111 -1.0895  0.2365
  139OSM   C14S15182  -0.130   1.246   7.543  0.4490 -0.1361  0.0226
  139OSM   H14S15183  -0.104   1.142   7.572  2.9503  0.5219  0.2254
  139OSM   H14T15184  -0.228   1.236   7.491  1.1892 -0.5122 -1.3205
  139OSM   C15S15185  -0.150   1.312   7.683 -0.1023  1.1077  0.3390
  139OSM   H15S15186  -0.197   1.410   7.661  1.8606  2.1678  0.7038
  139OSM   H15T15187  -0.053   1.331   7.735 -0.1060  0.1940  0.6999
  139OSM   C16S15188  -0.235   1.228   7.777 -0.0358 -0.7856 -0.5828
  139OSM   H16S15189  -0.176   1.138   7.802 -0.9333 -2.3513 -3.8051
  139OSM   H16T15190  -0.317   1.196   7.710 -0.0039 -0.7020 -0.6642
  139OSM   C17S15191  -0.276   1.289   7.919 -0.4405 -0.0340 -0.4902
  139OSM   H17S15192  -0.369   1.348   7.901 -0.6615 -0.0719  0.5179
  139OSM   H17T15193  -0.194   1.360   7.942  1.0326 -1.6222 -0.7557
  139OSM   C18S15194  -0.299   1.176   8.021  0.2526 -0.1744 -0.6062
  139OSM   H18S15195  -0.373   1.104   7.980  0.0149  0.6189 -1.5795
  139OSM   H18T15196  -0.347   1.216   8.113 -0.4808  0.9005 -1.4427
  139OSM   H18U15197  -0.196   1.135   8.034  0.5822  0.5914 -0.8003
  139OSM    C1F15198   0.420   1.715   6.586 -0.9861  0.2420  0.2886
  139OSM     OF15199   0.352   1.788   6.517 -0.0618 -0.3049  0.5913
  139OSM    C2F15200   0.469   1.756   6.716  0.2012 -0.0948  0.6892
  139OSM    H2F15201   0.579   1.772   6.714 -0.0130  1.4841  0.1703
  139OSM    H2G15202   0.454   1.672   6.786 -1.8405  0.8405  1.4160
  139OSM    C3F15203   0.402   1.884   6.774 -0.4779 -0.7768  0.0262
  139OSM    H3F15204   0.294   1.860   6.782 -0.1779 -1.9992  0.4822
  139OSM    H3G15205   0.424   1.963   6.699 -0.5441 -1.3035 -0.5555
  139OSM    C4F15206   0.456   1.918   6.915  0.4541  0.4024  0.1443
  139OSM    H4F15207   0.561   1.954   6.919  0.9305 -0.8555 -0.6539
  139OSM    H4G15208   0.459   1.822   6.970 -0.2693 -2.3018 -4.2824
  139OSM    C5F15209   0.371   2.018   6.987 -0.4470 -0.6584 -0.1465
  139OSM    H5F15210   0.264   1.995   7.008 -1.5673  1.7421 -2.8516
  139OSM    H5G15211   0.368   2.117   6.937  0.6144 -0.9201 -0.7484
  139OSM    C6F15212   0.445   2.060   7.120  0.1989  0.8949 -0.7227
  139OSM    H6F15213   0.536   2.119   7.096  1.6464  0.0129  2.3274
  139OSM    H6G15214   0.477   1.963   7.166  0.6015  1.0647 -0.6361
  139OSM    C7F15215   0.370   2.142   7.226  0.2659  0.7023  0.5626
  139OSM    H7F15216   0.265   2.109   7.240 -0.2158  2.4777  1.2353
  139OSM    H7G15217   0.363   2.245   7.186  1.1553  0.3097 -0.6558
  139OSM    C8F15218   0.428   2.154   7.371 -0.6140 -0.2175 -0.0694
  139OSM    H8F15219   0.446   2.058   7.425 -1.4112 -0.8309 -0.8949
  139OSM    H8G15220   0.349   2.196   7.437 -0.6340 -0.7833  0.2745
  139OSM    C9F15221   0.552   2.243   7.369 -0.3878 -0.1274 -0.2617
  139OSM    H9F15222   0.537   2.323   7.295 -1.9127 -1.4002 -1.3562
  139OSM   C10F15223   0.664   2.224   7.442  0.2181 -0.5093 -0.1587
  139OSM   H10F15224   0.746   2.296   7.437  0.0955 -0.5157 -3.6004
  139OSM   C11F15225   0.683   2.118   7.553  0.1851  0.2326  0.6291
  139OSM   H11F15226   0.735   2.025   7.521 -0.5348 -0.2588  0.8669
  139OSM   H11G15227   0.585   2.077   7.585 -0.4236  1.2741  0.0922
  139OSM   C12F15228   0.766   2.167   7.667 -0.1432  0.1864 -0.0180
  139OSM   H12F15229   0.867   2.203   7.637  0.4805 -1.4716  0.0593
  139OSM   H12G15230   0.779   2.077   7.731 -1.9057  1.0993  1.6688
  139OSM   C13F15231   0.705   2.279   7.756 -0.1839 -1.0613 -0.8187
  139OSM   H13F15232   0.602   2.243   7.773 -0.2611  0.2596  1.8772
  139OSM   H13G15233   0.698   2.376   7.703 -0.0449  0.0223  1.0754
  139OSM   C14F15234   0.788   2.310   7.883  0.4595 -0.3146  0.4057
  139OSM   H14F15235   0.722   2.370   7.950 -2.0369 -2.0034 -0.4772
  139OSM   H14G15236   0.869   2.381   7.857  0.7824 -0.4663  0.9883
  139OSM   C15F15237   0.842   2.187   7.961 -0.1465  0.4640 -0.1914
  139OSM   H15F15238   0.892   2.222   8.053  1.4292  0.9874 -1.2260
  139OSM   H15G15239   0.918   2.134   7.901 -1.0903 -0.1771 -0.8418
  139OSM   C16F15240   0.728   2.083   7.996 -0.1551  0.0286  0.3348
  139OSM   H16F15241   0.769   1.982   7.971 -1.9353 -0.0902 -2.3769
  139OSM   H16G15242   0.643   2.102   7.927 -1.3065 -1.5579  1.2749
  139OSM   C17F15243   0.681   2.077   8.140 -0.3013  0.2786 -0.0846
  139OSM   H17F15244   0.586   2.019   8.140  0.1348 -0.4570 -0.6648
  139OSM   H17G15245   0.658   2.181   8.168 -1.1396 -0.2210  1.1039
  139OSM   C18F15246   0.778   2.018   8.244  0.2888 -0.2545  1.4470
  139OSM   H18F15247   0.742   2.040   8.347 -1.6367 -0.9803  0.9451
  139OSM   H18G15248   0.878   2.066   8.241 -0.1974  0.6597 -0.6455
  139OSM   H18H15249   0.795   1.909   8.230 -0.5482 -0.4003  1.5478
  140OSM      N15250   1.121   4.192   6.384  0.8965 -0.1635  0.1545
  140OSM    C1515251   1.042   4.070   6.354 -0.0965  0.2146 -0.2815
  140OSM   H15A15252   1.029   4.017   6.447  1.4060  1.1529  0.4813
  140OSM   H15B15253   1.104   4.003   6.297 -0.8896 -1.6487  1.0209
  140OSM   H15C15254   0.950   4.093   6.301  0.8535 -1.2369 -2.5972
  140OSM    C1415255   1.155   4.270   6.255 -0.1740 -0.0375 -0.6786
  140OSM   H14A15256   1.180   4.372   6.281  0.2842  0.3753 -2.6992
  140OSM   H14B15257   1.070   4.266   6.188  0.3234 -2.6747 -1.2283
  140OSM   H14C15258   1.245   4.233   6.208 -1.0020 -1.5940 -1.0743
  140OSM    C1315259   1.021   4.277   6.465  0.2012  0.1737  0.0915
  140OSM   H13A15260   1.072   4.359   6.512  1.8520 -0.4281 -0.6081
  140OSM   H13B15261   0.988   4.208   6.541  0.5402 -0.5010 -0.3673
  140OSM   H13C15262   0.939   4.327   6.415 -0.2356  0.8480  1.4473
  140OSM    C1215263   1.245   4.164   6.468  0.7155  0.4693 -0.6207
  140OSM   H12A15264   1.219   4.113   6.559  2.2360  2.0189  0.7346
  140OSM   H12B15265   1.288   4.256   6.506 -0.1178  0.0277  1.4294
  140OSM    C1115266   1.361   4.084   6.394 -0.7249  0.4203 -0.5002
  140OSM   H11A15267   1.444   4.062   6.463  1.1190  1.8697 -2.1977
  140OSM   H11B15268   1.402   4.149   6.313 -0.5433  3.2369  1.7663
  140OSM      P15269   1.311   3.823   6.387  0.2476  0.4012 -0.0926
  140OSM    O1315270   1.226   3.749   6.295  0.0882  0.4323  0.1357
  140OSM    O1415271   1.445   3.771   6.398  0.0925  0.3618 -0.7859
  140OSM    O1115272   1.248   3.838   6.535  0.0148 -0.0052  0.8730
  140OSM    O1215273   1.312   3.971   6.332  0.6366 -0.1815  0.2549
  140OSM    C1S15274   1.192   3.725   6.600  0.2217  0.8557 -0.6721
  140OSM    H1S15275   1.259   3.636   6.592 -1.4467 -0.6133  1.3212
  140OSM    H1T15276   1.091   3.708   6.559  0.4355 -0.5629 -0.6233
  140OSM     NF15277   1.108   3.614   6.804 -0.3451  0.2131  0.2072
  140OSM    HNF15278   1.012   3.616   6.833 -1.5587  0.7575 -3.5158
  140OSM    C2S15279   1.169   3.737   6.755  0.1632  0.5057  0.0738
  140OSM    H2S15280   1.273   3.745   6.796  0.0873  1.7080  0.0548
  140OSM    C3S15281   1.096   3.870   6.781  0.8240 -0.3036  0.0946
  140OSM    H3S15282   1.006   3.867   6.716  1.2947 -1.0025 -0.5358
  140OSM     O315283   1.171   3.986   6.733 -0.0245  0.5070  0.2926
  140OSM    HO315284   1.225   3.946   6.665 -1.4287  0.2285 -0.6688
  140OSM    C4S15285   1.058   3.884   6.922 -0.1280  0.9000  0.2528
  140OSM    H4S15286   0.994   3.800   6.953 -0.5140  0.1035 -2.5570
  140OSM    C5S15287   1.098   3.969   7.020 -0.1277 -0.7036 -0.3449
  140OSM    H5S15288   1.170   4.049   6.996 -1.8640 -0.1306 -3.9041
  140OSM    C6S15289   1.059   3.948   7.162 -0.6647  0.2756 -0.8603
  140OSM    H6S15290   0.988   4.021   7.205  0.4886 -0.4845  2.4468
  140OSM    H6T15291   1.149   3.957   7.227 -0.8215  1.5674 -0.8145
  140OSM    C7S15292   1.001   3.808   7.200 -0.4805 -0.7285 -0.0957
  140OSM    H7S15293   1.074   3.728   7.176  0.2964 -0.2432  0.6430
  140OSM    H7T15294   0.901   3.780   7.161 -0.9022  1.9053 -1.0137
  140OSM    C8S15295   0.980   3.797   7.355  0.3189 -0.5375  0.5567
  140OSM    H8S15296   0.932   3.886   7.401 -0.4847  1.2311 -3.4908
  140OSM    H8T15297   1.078   3.770   7.399 -0.5023 -0.5572  2.4219
  140OSM    C9S15298   0.898   3.671   7.396  0.0166 -0.4986  0.1533
  140OSM    H9S15299   0.941   3.573   7.368 -1.0569 -0.7712 -0.5791
  140OSM    H9T15300   0.802   3.682   7.342 -0.1855  1.2916  0.8138
  140OSM   C10S15301   0.872   3.680   7.549  0.1591 -0.3230 -0.2719
  140OSM   H10S15302   0.765   3.708   7.557  0.2272 -0.9069  3.5003
  140OSM   H10T15303   0.919   3.770   7.596 -1.3579 -0.8267  2.2481
  140OSM   C11S15304   0.908   3.551   7.621  0.9730  0.4804 -0.4106
  140OSM   H11S15305   1.017   3.529   7.617  1.2029  1.8025 -2.5886
  140OSM   H11T15306   0.869   3.455   7.580  2.5396 -1.4474  2.4273
  140OSM   C12S15307   0.869   3.549   7.769  0.3229 -0.0882  0.2157
  140OSM   H12S15308   0.918   3.633   7.822 -0.6655 -0.1258  1.1974
  140OSM   H12T15309   0.916   3.454   7.802  3.0879  0.9017 -0.7199
  140OSM   C13S15310   0.713   3.545   7.797  0.3692  0.0544  0.6075
  140OSM   H13S15311   0.688   3.450   7.746  4.4300 -0.2480 -1.0194
  140OSM   H13T15312   0.667   3.634   7.749  1.8197 -0.1192 -1.1569
  140OSM   C14S15313   0.691   3.545   7.949 -0.3073  0.1628  0.0132
  140OSM   H14S15314   0.584   3.566   7.971 -0.1820  0.4073  0.4021
  140OSM   H14T15315   0.757   3.622   7.996  2.1771 -1.3324 -0.9092
  140OSM   C15S15316   0.715   3.409   8.015 -0.4051  0.0224 -0.5074
  140OSM   H15S15317   0.823   3.397   8.037 -0.8942  0.2046  2.2457
  140OSM   H15T15318   0.666   3.324   7.962 -1.9500 -0.3920  1.5033
  140OSM   C16S15319   0.650   3.405   8.158 -0.2499 -0.6969  0.7179
  140OSM   H16S15320   0.630   3.303   8.198 -2.1656 -0.4944  0.3464
  140OSM   H16T15321   0.555   3.461   8.146  0.4302 -0.1807 -2.6826
  140OSM   C17S15322   0.721   3.483   8.265 -1.5371 -1.3383  0.3559
  140OSM   H17S15323   0.750   3.583   8.225 -2.3099  0.2188  3.5504
  140OSM   H17T15324   0.814   3.430   8.294 -0.8253 -0.0994  0.4066
  140OSM   C18S15325   0.639   3.491   8.391 -0.4055 -0.2395  0.3215
  140OSM   H18S15326   0.601   3.391   8.420 -1.1193  0.5838  2.3098
  140OSM   H18T15327   0.556   3.564   8.381  1.2702  1.5677 -1.0560
  140OSM   H18U15328   0.709   3.533   8.466 -2.1755  1.1289  1.2471
  140OSM    C1F15329   1.177   3.503   6.830 -0.0378 -0.0835  0.5966
  140OSM     OF15330   1.298   3.491   6.803  0.6751 -0.0563 -0.1528
  140OSM    C2F15331   1.105   3.399   6.902 -0.4578 -0.3584 -0.6387
  140OSM    H2F15332   1.077   3.318   6.831 -1.2179 -1.3581  0.7627
  140OSM    H2G15333   1.007   3.442   6.928  0.5938  0.2996  2.4701
  140OSM    C3F15334   1.166   3.345   7.042  0.4390 -0.2362  0.1412
  140OSM    H3F15335   1.264   3.302   7.013 -1.3900 -3.6557 -1.1989
  140OSM    H3G15336   1.111   3.253   7.073  0.0961 -0.1336 -0.1489
  140OSM    C4F15337   1.192   3.463   7.139 -0.0711  0.0184 -0.3381
  140OSM    H4F15338   1.097   3.517   7.160  0.3202  0.4580  0.3078
  140OSM    H4G15339   1.266   3.530   7.091  0.2672 -0.4776 -0.5156
  140OSM    C5F15340   1.259   3.403   7.262  0.4777  0.0135 -0.3505
  140OSM    H5F15341   1.357   3.354   7.241  1.1464  1.6998 -1.3113
  140OSM    H5G15342   1.195   3.324   7.305 -0.5973  1.6107  1.0566
  140OSM    C6F15343   1.267   3.508   7.373 -0.4778  0.4232 -0.2759
  140OSM    H6F15344   1.167   3.549   7.395 -1.0744 -0.3555 -1.4138
  140OSM    H6G15345   1.332   3.596   7.355 -0.7550  1.0206  1.6075
  140OSM    C7F15346   1.314   3.442   7.509  0.1338  0.1941 -0.5253
  140OSM    H7F15347   1.390   3.364   7.489 -2.9407 -2.4580 -2.4712
  140OSM    H7G15348   1.236   3.370   7.542 -1.4780  1.8582 -0.6225
  140OSM    C8F15349   1.361   3.543   7.607 -0.4778 -0.1552  0.0664
  140OSM    H8F15350   1.432   3.610   7.554 -0.5960 -1.6658 -2.0472
  140OSM    H8G15351   1.427   3.492   7.681 -2.3318 -0.8874  1.2595
  140OSM    C9F15352   1.251   3.618   7.678  0.4364 -0.2826 -0.0684
  140OSM    H9F15353   1.177   3.669   7.615  1.0995 -0.1055 -0.7193
  140OSM   C10F15354   1.255   3.649   7.810 -0.2300  0.2596  1.1858
  140OSM   H10F15355   1.170   3.704   7.854 -0.9732  2.1679 -2.4379
  140OSM   C11F15356   1.358   3.620   7.915  0.1591 -0.1147 -0.0273
  140OSM   H11F15357   1.448   3.568   7.876  1.4339  1.7847  0.3089
  140OSM   H11G15358   1.315   3.558   7.997  0.5093 -1.8625 -1.1384
  140OSM   C12F15359   1.403   3.757   7.982  0.4415  0.2678 -0.0923
  140OSM   H12F15360   1.329   3.794   8.056  0.0136 -1.8729  0.6033
  140OSM   H12G15361   1.412   3.824   7.894 -2.8941 -0.2635 -0.9155
  140OSM   C13F15362   1.543   3.755   8.056 -0.8857 -0.5928  0.1820
  140OSM   H13F15363   1.557   3.860   8.086 -1.9444 -0.4768  0.3079
  140OSM   H13G15364   1.618   3.726   7.980 -0.2818  1.5248 -0.0427
  140OSM   C14F15365   1.542   3.651   8.173 -0.1749  0.1144  0.0616
  140OSM   H14F15366   1.641   3.600   8.173  0.2622  0.8163 -3.8342
  140OSM   H14G15367   1.471   3.571   8.143  0.7629 -0.4783 -0.6147
  140OSM   C15F15368   1.512   3.718   8.309  0.4239 -0.5442  0.1978
  140OSM   H15F15369   1.503   3.635   8.384 -0.3206 -0.5642  0.0914
  140OSM   H15G15370   1.412   3.767   8.312  1.0406  0.7170  0.0611
  140OSM   C16F15371   1.625   3.809   8.368  0.6722  0.0496  0.4101
  140OSM   H16F15372   1.630   3.909   8.321 -0.6762 -1.1896 -2.5186
  140OSM   H16G15373   1.719   3.755   8.344  0.4783  0.4742 -1.3503
  140OSM   C17F15374   1.602   3.826   8.519  0.0423 -0.3221 -0.5664
  140OSM   H17F15375   1.702   3.857   8.557 -0.7240 -0.6042  1.7259
  140OSM   H17G15376   1.594   3.730   8.574 -3.6848 -0.4156 -1.1755
  140OSM   C18F15377   1.485   3.915   8.567 -0.2411  0.6775 -0.5589
  140OSM   H18F15378   1.462   3.906   8.675 -1.0565  1.9375 -0.6065
  140OSM   H18G15379   1.393   3.870   8.526  0.0016 -0.3026 -0.0386
  140OSM   H18H15380   1.493   4.025   8.551  1.0914  0.8419  1.0589
  141OSM      N15381   0.468   5.637   6.185  0.2168 -0.1837  0.1090
  141OSM    C1515382   0.392   5.713   6.292  0.5898  0.6929  0.1700
  141OSM   H15A15383   0.455   5.794   6.325  2.6701 -1.4877  1.7754
  141OSM   H15B15384   0.376   5.643   6.373 -0.3124  0.6832 -0.0085
  141OSM   H15C15385   0.298   5.757   6.262 -0.6553 -0.1276  2.7256
  141OSM    C1415386   0.473   5.732   6.068  0.2442 -0.3541  0.3754
  141OSM   H14A15387   0.493   5.832   6.103 -1.2271 -0.5958  2.0050
  141OSM   H14B15388   0.385   5.728   6.006  0.7869  3.6782 -0.7705
  141OSM   H14C15389   0.552   5.706   5.999  1.0750  0.7241  0.9080
  141OSM    C1315390   0.599   5.606   6.243  0.7430 -0.4033 -0.3614
  141OSM   H13A15391   0.585   5.560   6.339 -2.2168 -0.1114 -0.5974
  141OSM   H13B15392   0.643   5.704   6.255 -0.4899  0.4359 -2.4148
  141OSM   H13C15393   0.659   5.550   6.173 -1.7320 -1.4258 -1.7200
  141OSM    C1215394   0.387   5.516   6.152 -0.3424  0.5977 -0.6840
  141OSM   H12A15395   0.290   5.541   6.110 -1.1311 -0.4321  0.4974
  141OSM   H12B15396   0.367   5.462   6.243  2.3353 -0.7543 -0.8811
  141OSM    C1115397   0.447   5.420   6.047 -0.3679 -0.2597 -0.0489
  141OSM   H11A15398   0.490   5.485   5.968  0.0384 -0.8638 -0.3333
  141OSM   H11B15399   0.369   5.358   5.997 -2.2645  1.4332  0.7860
  141OSM      P15400   0.510   5.209   6.188 -0.1337  0.1378 -0.1374
  141OSM    O1315401   0.422   5.118   6.112  0.2622 -0.2478  0.5264
  141OSM    O1415402   0.626   5.144   6.254 -0.0190 -0.3426 -0.3258
  141OSM    O1115403   0.420   5.268   6.306 -0.2092  0.2308  0.1382
  141OSM    O1215404   0.552   5.338   6.105 -0.3558 -0.4707 -0.1163
  141OSM    C1S15405   0.485   5.321   6.433  0.1969  0.1134 -0.2052
  141OSM    H1S15406   0.560   5.401   6.413 -0.5244  0.5204 -1.3650
  141OSM    H1T15407   0.524   5.231   6.484 -1.3284 -0.4463  0.0024
  141OSM     NF15408   0.446   5.425   6.665 -0.9054 -0.1970  0.1185
  141OSM    HNF15409   0.408   5.376   6.743 -0.1537  1.1995  1.3838
  141OSM    C2S15410   0.384   5.393   6.533 -0.4498  0.0180  0.0749
  141OSM    H2S15411   0.352   5.486   6.482  1.7979  0.7316 -0.1005
  141OSM    C3S15412   0.254   5.309   6.549 -0.0935 -0.1737  0.3149
  141OSM    H3S15413   0.293   5.222   6.605 -0.4004 -0.0214  0.7728
  141OSM     O315414   0.201   5.251   6.433  0.1062 -0.1861  0.3336
  141OSM    HO315415   0.277   5.241   6.375 -1.6409 -0.8509 -1.9349
  141OSM    C4S15416   0.145   5.384   6.614 -0.7849  0.2169 -0.1432
  141OSM    H4S15417   0.114   5.467   6.549 -0.0679  1.2308  0.8033
  141OSM    C5S15418   0.082   5.357   6.733 -0.2523 -0.2648 -0.2745
  141OSM    H5S15419   0.104   5.272   6.798 -1.5982 -0.1348  0.3672
  141OSM    C6S15420  -0.017   5.461   6.785  0.3324  0.7493  0.3199
  141OSM    H6S15421  -0.120   5.430   6.761  1.1377 -0.0444 -2.2752
  141OSM    H6T15422  -0.014   5.558   6.730 -0.6697  0.0836 -0.9230
  141OSM    C7S15423  -0.003   5.491   6.933 -0.3791  1.0843 -0.1883
  141OSM    H7S15424   0.101   5.523   6.957 -0.1984  0.8974 -0.7167
  141OSM    H7T15425  -0.023   5.401   6.995  0.5838 -0.2789 -1.8014
  141OSM    C8S15426  -0.106   5.594   6.986  0.1002  0.1838  0.4311
  141OSM    H8S15427  -0.204   5.569   6.938  1.8465 -3.3185 -1.4834
  141OSM    H8T15428  -0.082   5.696   6.950  0.5692 -0.3253 -0.7402
  141OSM    C9S15429  -0.094   5.597   7.141 -0.1261 -0.3071 -0.0773
  141OSM    H9S15430  -0.002   5.646   7.178  1.1191 -0.8829 -2.3588
  141OSM    H9T15431  -0.094   5.496   7.187  2.6760 -0.5450 -0.5364
  141OSM   C10S15432  -0.202   5.676   7.205  0.7364 -0.4166 -0.7754
  141OSM   H10S15433  -0.302   5.634   7.180  0.7663 -1.5568  0.9808
  141OSM   H10T15434  -0.203   5.778   7.160 -2.0507 -0.1796 -0.2684
  141OSM   C11S15435  -0.180   5.696   7.354 -0.3045  0.5893 -0.3094
  141OSM   H11S15436  -0.084   5.750   7.371  1.4191 -1.6004 -2.5784
  141OSM   H11T15437  -0.182   5.599   7.409  4.3468 -1.4168 -3.3739
  141OSM   C12S15438  -0.299   5.776   7.414  0.1957  0.2056 -0.3110
  141OSM   H12S15439  -0.399   5.738   7.387 -0.6510  1.7556  0.5365
  141OSM   H12T15440  -0.295   5.869   7.354 -0.3372 -0.5888 -1.5842
  141OSM   C13S15441  -0.314   5.815   7.560  0.3284 -0.2072  0.0019
  141OSM   H13S15442  -0.399   5.887   7.572  0.4718  0.1776 -1.1924
  141OSM   H13T15443  -0.226   5.877   7.586 -0.5886  0.5703  1.3240
  141OSM   C14S15444  -0.292   5.697   7.662 -0.0290 -0.3318  0.4425
  141OSM   H14S15445  -0.186   5.664   7.661  0.6035  1.6108  1.0940
  141OSM   H14T15446  -0.346   5.604   7.633 -0.2736 -0.4249  1.1836
  141OSM   C15S15447  -0.323   5.719   7.813  0.3929  0.1309  0.2259
  141OSM   H15S15448  -0.431   5.724   7.839  0.6947  0.5714  1.4062
  141OSM   H15T15449  -0.280   5.816   7.844 -0.5147  0.7280 -0.3442
  141OSM   C16S15450  -0.271   5.607   7.905 -0.2422  0.5016  0.9386
  141OSM   H16S15451  -0.165   5.591   7.874 -0.3547  1.6339 -0.1080
  141OSM   H16T15452  -0.330   5.515   7.887 -0.3812  0.4405  1.7029
  141OSM   C17S15453  -0.254   5.644   8.053  0.1912  0.5119 -0.4639
  141OSM   H17S15454  -0.357   5.653   8.094  1.4030  0.9316  2.6230
  141OSM   H17T15455  -0.203   5.741   8.068  1.3488 -0.1939  0.1959
  141OSM   C18S15456  -0.174   5.546   8.128  0.5842  0.2103 -0.1365
  141OSM   H18S15457  -0.184   5.536   8.238 -0.7307 -0.2781 -0.2902
  141OSM   H18T15458  -0.067   5.562   8.102  0.5833  1.1959  0.4111
  141OSM   H18U15459  -0.195   5.443   8.091  0.5004  0.1206  0.1605
  141OSM    C1F15460   0.553   5.501   6.671 -0.5719 -0.0888 -0.5395
  141OSM     OF15461   0.594   5.567   6.577 -0.0524 -0.1740 -0.5906
  141OSM    C2F15462   0.613   5.517   6.809 -0.0916  0.3604 -0.2334
  141OSM    H2F15463   0.677   5.426   6.813  0.0494  0.4570 -0.3317
  141OSM    H2G15464   0.531   5.504   6.884 -1.0931  1.3687 -1.1341
  141OSM    C3F15465   0.711   5.628   6.835 -0.2915 -0.3965  0.9981
  141OSM    H3F15466   0.645   5.717   6.834  0.0335 -0.1509  0.2888
  141OSM    H3G15467   0.791   5.641   6.759 -0.8896  0.0957  0.4380
  141OSM    C4F15468   0.782   5.629   6.969 -0.7248  0.3204 -0.6278
  141OSM    H4F15469   0.855   5.712   6.974  1.0659 -1.3037  1.1577
  141OSM    H4G15470   0.842   5.536   6.979  0.0562  0.8702 -0.1321
  141OSM    C5F15471   0.689   5.619   7.090  0.0840  0.5158 -0.2918
  141OSM    H5F15472   0.638   5.521   7.091 -0.0239  0.5573 -1.1404
  141OSM    H5G15473   0.616   5.702   7.080 -1.9217 -1.1409  0.3072
  141OSM    C6F15474   0.762   5.632   7.224  0.7825 -0.1142  0.4495
  141OSM    H6F15475   0.838   5.713   7.225  0.7032 -0.0402  0.6924
  141OSM    H6G15476   0.827   5.545   7.244  2.0835  0.1149 -2.5314
  141OSM    C7F15477   0.660   5.662   7.336  0.3665 -0.3125  0.4804
  141OSM    H7F15478   0.580   5.586   7.320  1.7335 -1.3432 -1.6637
  141OSM    H7G15479   0.624   5.766   7.317 -2.0391 -0.5592  3.2344
  141OSM    C8F15480   0.714   5.653   7.480 -0.6249 -0.1243  0.1939
  141OSM    H8F15481   0.624   5.671   7.542 -1.3580 -0.2443 -0.8335
  141OSM    H8G15482   0.771   5.741   7.516 -0.3661 -0.7065  1.2377
  141OSM    C9F15483   0.786   5.521   7.504  0.2237 -0.4426 -0.1836
  141OSM    H9F15484   0.886   5.509   7.460  0.4052  0.2125  0.0453
  141OSM   C10F15485   0.751   5.440   7.602 -0.1180 -0.0011 -0.0800
  141OSM   H10F15486   0.789   5.338   7.616  0.5218  0.3217  0.5596
  141OSM   C11F15487   0.640   5.458   7.709 -0.2550 -0.4069  0.0414
  141OSM   H11F15488   0.604   5.359   7.745  2.1793 -1.4058 -0.1671
  141OSM   H11G15489   0.552   5.499   7.655 -0.8577 -0.2620  1.1194
  141OSM   C12F15490   0.680   5.551   7.821 -0.6093 -0.7304 -0.9696
  141OSM   H12F15491   0.600   5.560   7.897  0.9566  0.5895  0.5656
  141OSM   H12G15492   0.691   5.657   7.791 -1.9992 -0.1697  0.4989
  141OSM   C13F15493   0.803   5.495   7.888 -0.6596 -0.2562  0.2918
  141OSM   H13F15494   0.887   5.490   7.815 -1.4779  1.3319 -0.7839
  141OSM   H13G15495   0.781   5.393   7.925 -1.6989 -0.1853 -0.1175
  141OSM   C14F15496   0.855   5.579   8.001  0.6085  0.0445  0.6036
  141OSM   H14F15497   0.906   5.669   7.962 -2.1602  2.3181  2.0240
  141OSM   H14G15498   0.927   5.513   8.054  0.5877 -1.6823 -1.4259
  141OSM   C15F15499   0.756   5.609   8.111 -0.1497 -0.3264  0.1022
  141OSM   H15F15500   0.673   5.672   8.071 -2.5428 -1.7724  2.6478
  141OSM   H15G15501   0.803   5.678   8.184  0.9821 -3.8179  2.8029
  141OSM   C16F15502   0.696   5.490   8.192  0.6337 -0.1021 -0.0443
  141OSM   H16F15503   0.776   5.427   8.237  1.0969  0.3607 -0.2214
  141OSM   H16G15504   0.639   5.419   8.128  0.2101  0.0781  0.1327
  141OSM   C17F15505   0.608   5.535   8.306 -0.4254 -0.1094 -0.8973
  141OSM   H17F15506   0.665   5.607   8.368 -1.8144 -0.8337  1.2819
  141OSM   H17G15507   0.574   5.444   8.360  0.2716  1.0712  1.6179
  141OSM   C18F15508   0.471   5.595   8.265 -0.4445  0.6610  0.1636
  141OSM   H18F15509   0.407   5.611   8.355  2.1023 -0.9208  2.3296
  141OSM   H18G15510   0.429   5.512   8.205 -0.0460  0.3606  0.3024
  141OSM   H18H15511   0.487   5.686   8.203  1.0166  0.8136  0.7381
  142OSM      N15512   0.899   0.407   6.255  0.3029  0.0021 -0.0040
  142OSM    C1515513   0.997   0.465   6.352 -0.4820  0.5101 -0.2675
  142OSM   H15A15514   0.960   0.456   6.453  0.1965  1.7018  0.0910
  142OSM   H15B15515   1.018   0.569   6.333 -1.5088  1.0576  1.4907
  142OSM   H15C15516   1.088   0.408   6.356 -0.9987 -0.4315 -1.3305
  142OSM    C1415517   0.780   0.488   6.252 -0.2506 -0.2458 -0.4634
  142OSM   H14A15518   0.733   0.507   6.347  2.2715  1.1027  0.5689
  142OSM   H14B15519   0.702   0.444   6.192  0.0856  1.2692 -2.0646
  142OSM   H14C15520   0.804   0.583   6.205  0.6834 -0.0809  0.3234
  142OSM    C1315521   0.961   0.401   6.121 -0.9898 -0.1696 -0.0419
  142OSM   H13A15522   0.983   0.503   6.093 -0.3094  0.1927  1.7326
  142OSM   H13B15523   0.893   0.354   6.052  1.1005 -1.7089 -1.0858
  142OSM   H13C15524   1.051   0.342   6.117 -1.1880 -0.6582  1.8980
  142OSM    C1215525   0.865   0.266   6.293 -0.1482 -0.2103 -0.1453
  142OSM   H12A15526   0.953   0.203   6.297  0.9592  1.4275  2.8458
  142OSM   H12B15527   0.808   0.222   6.213 -0.4003 -1.3606  0.6568
  142OSM    C1115528   0.779   0.247   6.423 -1.3418 -0.5020  0.0076
  142OSM   H11A15529   0.688   0.310   6.433 -0.8273 -0.0084  1.7976
  142OSM   H11B15530   0.844   0.297   6.498  0.7736  0.0178 -2.1154
  142OSM      P15531   0.629   0.035   6.376 -0.1680  0.2115  0.7510
  142OSM    O1315532   0.571   0.115   6.265 -0.1628  0.0023  0.8792
  142OSM    O1415533   0.665  -0.105   6.351 -0.5645 -0.4094  0.1497
  142OSM    O1115534   0.528   0.037   6.497  0.8633  0.1390  1.0660
  142OSM    O1215535   0.752   0.109   6.435  0.1312 -0.2975  0.0418
  142OSM    C1S15536   0.562   0.020   6.632  0.2158  0.2907 -0.3224
  142OSM    H1S15537   0.629   0.102   6.664  1.2914 -0.2194 -1.2275
  142OSM    H1T15538   0.607  -0.078   6.656 -3.2209 -0.9657  1.2868
  142OSM     NF15539   0.475   0.054   6.863  0.8160  0.2156 -0.5058
  142OSM    HNF15540   0.475  -0.026   6.923  0.0980 -0.7107 -1.7210
  142OSM    C2S15541   0.433   0.033   6.730 -0.3591 -0.1215 -0.3098
  142OSM    H2S15542   0.367   0.114   6.693  1.6342  0.7150 -2.1287
  142OSM    C3S15543   0.363  -0.102   6.699 -0.2538 -0.0845  0.1432
  142OSM    H3S15544   0.427  -0.188   6.727 -0.8147 -0.4719  0.2332
  142OSM     O315545   0.344  -0.136   6.563  0.4320 -0.0256 -0.8060
  142OSM    HO315546   0.384  -0.056   6.528 -0.0404  0.5747 -0.0018
  142OSM    C4S15547   0.236  -0.115   6.783  1.0441 -0.2067  0.2014
  142OSM    H4S15548   0.261  -0.137   6.888 -0.0796 -0.3270  0.4539
  142OSM    C5S15549   0.104  -0.095   6.745 -0.0053 -0.2764  0.4199
  142OSM    H5S15550   0.086  -0.085   6.637 -0.2172  0.8023  0.5449
  142OSM    C6S15551  -0.017  -0.104   6.840 -0.2648  0.1508  0.3292
  142OSM    H6S15552  -0.070  -0.196   6.809 -1.9199  1.2379 -0.1254
  142OSM    H6T15553  -0.090  -0.023   6.823  0.1395 -0.0467 -2.6331
  142OSM    C7S15554   0.026  -0.111   6.982 -0.1892 -0.6750  0.0211
  142OSM    H7S15555   0.089  -0.023   7.008 -0.9205  0.5704 -2.2923
  142OSM    H7T15556   0.088  -0.201   6.997  1.4531  0.2655 -0.9354
  142OSM    C8S15557  -0.094  -0.122   7.069  0.3178  0.6720 -0.4241
  142OSM    H8S15558  -0.162  -0.208   7.049 -1.0061  1.7560 -0.7337
  142OSM    H8T15559  -0.152  -0.027   7.062 -2.1714 -0.6351  1.3679
  142OSM    C9S15560  -0.047  -0.145   7.214  0.2284 -0.2636  0.0221
  142OSM    H9S15561   0.019  -0.059   7.240 -2.0651  1.6330 -0.2314
  142OSM    H9T15562   0.015  -0.238   7.219 -0.0918 -0.4515  0.5285
  142OSM   C10S15563  -0.162  -0.144   7.314 -0.8359  0.5549 -0.0101
  142OSM   H10S15564  -0.209  -0.244   7.306  2.4285 -1.2323  1.8527
  142OSM   H10T15565  -0.241  -0.072   7.287 -1.0763  0.6991  1.0655
  142OSM   C11S15566  -0.098  -0.112   7.451  0.0460  0.2651 -0.1861
  142OSM   H11S15567  -0.081  -0.003   7.460 -0.6241  0.3222  0.4493
  142OSM   H11T15568   0.003  -0.158   7.463 -0.0480  0.1246  0.0620
  142OSM   C12S15569  -0.179  -0.145   7.573 -0.2668  0.4456 -0.3097
  142OSM   H12S15570  -0.199  -0.254   7.579 -1.5556  0.6241 -1.1192
  142OSM   H12T15571  -0.271  -0.082   7.572 -0.1997  0.5593 -1.9971
  142OSM   C13S15572  -0.111  -0.090   7.699 -0.2356 -0.2525 -0.1139
  142OSM   H13S15573  -0.099   0.020   7.692 -0.9840 -0.2131 -0.8947
  142OSM   H13T15574  -0.016  -0.142   7.721  0.4215  0.2907 -1.6181
  142OSM   C14S15575  -0.205  -0.120   7.819  0.0871  0.7167 -0.6692
  142OSM   H14S15576  -0.244  -0.224   7.811  1.6380  0.2365 -1.9884
  142OSM   H14T15577  -0.295  -0.055   7.817 -0.0598  0.8477  3.7640
  142OSM   C15S15578  -0.136  -0.103   7.952 -0.1824  0.0036 -0.9660
  142OSM   H15S15579  -0.087  -0.005   7.964 -0.5638  0.3729 -2.3196
  142OSM   H15T15580  -0.052  -0.174   7.968 -1.0867 -0.6737  0.9325
  142OSM   C16S15581  -0.232  -0.132   8.067 -0.7478  0.2724 -0.5225
  142OSM   H16S15582  -0.264  -0.238   8.061 -0.8777  0.1751  1.7086
  142OSM   H16T15583  -0.327  -0.073   8.067 -1.4532 -0.8552 -0.9975
  142OSM   C17S15584  -0.187  -0.105   8.209  0.4541 -0.0714  0.4605
  142OSM   H17S15585  -0.096  -0.165   8.229  1.5247  1.8702  1.6551
  142OSM   H17T15586  -0.258  -0.135   8.289 -0.9299 -0.3256 -0.8566
  142OSM   C18S15587  -0.146   0.038   8.231  0.3985 -0.2324  0.4856
  142OSM   H18S15588  -0.239   0.098   8.245  0.5229  0.4386 -1.3907
  142OSM   H18T15589  -0.083   0.078   8.149 -0.1492  0.3196  0.3293
  142OSM   H18U15590  -0.090   0.055   8.325  1.3912 -0.4245 -0.0685
  142OSM    C1F15591   0.518   0.175   6.906 -0.6116 -0.0920  0.5239
  142OSM     OF15592   0.553   0.270   6.833 -0.4556 -0.3336  0.0947
  142OSM    C2F15593   0.550   0.179   7.054 -0.0669 -0.2451  0.3294
  142OSM    H2F15594   0.651   0.138   7.074  0.6764  1.1953 -0.3934
  142OSM    H2G15595   0.475   0.118   7.108 -0.8736  1.6550  1.3993
  142OSM    C3F15596   0.556   0.324   7.112 -0.1269  0.0673  0.0178
  142OSM    H3F15597   0.454   0.365   7.094  0.5458  1.6056 -0.3677
  142OSM    H3G15598   0.633   0.377   7.052  0.5717  1.4329  2.0703
  142OSM    C4F15599   0.590   0.322   7.263  0.0761 -0.6632 -0.6167
  142OSM    H4F15600   0.651   0.411   7.288 -2.0241  1.1840 -1.8647
  142OSM    H4G15601   0.643   0.230   7.294  4.2146  0.8901 -2.7934
  142OSM    C5F15602   0.463   0.340   7.357 -1.2989  0.7949 -0.0891
  142OSM    H5F15603   0.380   0.270   7.332  0.2694 -1.6402  1.3088
  142OSM    H5G15604   0.437   0.447   7.344 -1.8745  0.3606 -2.7285
  142OSM    C6F15605   0.498   0.299   7.502 -0.0350 -0.8565  0.3643
  142OSM    H6F15606   0.427   0.338   7.578 -0.8951 -1.1156 -0.3032
  142OSM    H6G15607   0.600   0.333   7.530  1.0564 -0.2651 -3.9798
  142OSM    C7F15608   0.499   0.152   7.532 -0.2401 -0.1610 -1.6197
  142OSM    H7F15609   0.592   0.109   7.489  1.7730  1.4832  0.9319
  142OSM    H7G15610   0.412   0.105   7.481 -0.8210  0.6361 -1.3800
  142OSM    C8F15611   0.492   0.123   7.689 -0.1045  0.3931 -0.3342
  142OSM    H8F15612   0.585   0.171   7.727 -0.4208 -0.4438  1.5703
  142OSM    H8G15613   0.513   0.015   7.705 -0.0746  0.8844  3.5033
  142OSM    C9F15614   0.361   0.157   7.768 -0.6603  0.4921 -0.4990
  142OSM    H9F15615   0.283   0.083   7.746  0.5686 -0.7729 -0.6863
  142OSM   C10F15616   0.356   0.250   7.873  0.3639  0.2692 -0.1361
  142OSM   H10F15617   0.259   0.269   7.920  0.8117 -0.4332  1.0951
  142OSM   C11F15618   0.467   0.343   7.918 -0.1995  0.1366  0.3340
  142OSM   H11F15619   0.432   0.430   7.978 -0.1166 -0.1039  0.7329
  142OSM   H11G15620   0.521   0.393   7.834  2.2091  1.1745  2.4168
  142OSM   C12F15621   0.573   0.270   8.013  0.4137 -0.9566  0.2602
  142OSM   H12F15622   0.622   0.190   7.953 -2.0476 -1.0217 -1.7802
  142OSM   H12G15623   0.518   0.220   8.096 -4.6869  2.2990 -0.9028
  142OSM   C13F15624   0.677   0.366   8.070 -0.0556  0.5859  0.2890
  142OSM   H13F15625   0.632   0.445   8.134  0.2282  1.6388 -0.8003
  142OSM   H13G15626   0.715   0.418   7.980  1.5048 -1.2484 -0.1374
  142OSM   C14F15627   0.798   0.303   8.146  0.9801 -0.9121 -0.3904
  142OSM   H14F15628   0.866   0.250   8.075 -0.8111 -1.9944 -1.3255
  142OSM   H14G15629   0.758   0.232   8.222  0.2210 -0.1209 -0.0437
  142OSM   C15F15630   0.887   0.404   8.215  0.0432 -0.0529  0.2027
  142OSM   H15F15631   0.813   0.471   8.264 -1.5298 -1.4957 -0.1464
  142OSM   H15G15632   0.946   0.469   8.147  0.1890  0.0882  0.4636
  142OSM   C16F15633   1.001   0.353   8.308  0.2083  0.1360  0.9077
  142OSM   H16F15634   1.059   0.438   8.349  0.1869 -0.6203  2.5502
  142OSM   H16G15635   1.069   0.290   8.247  0.1487  2.6965 -1.9044
  142OSM   C17F15636   0.944   0.264   8.425  0.1016 -0.4617  0.2826
  142OSM   H17F15637   0.890   0.177   8.381  1.0525  0.7117 -3.3926
  142OSM   H17G15638   0.866   0.319   8.482  0.9482  1.0462  0.0287
  142OSM   C18F15639   1.053   0.217   8.532 -0.0288 -0.1232 -0.1079
  142OSM   H18F15640   0.996   0.163   8.611  0.3484  2.3339  1.8975
  142OSM   H18G15641   1.116   0.297   8.576 -3.9291  2.3009  1.3693
  142OSM   H18H15642   1.115   0.138   8.485 -0.3928 -0.6390  0.2687
  143OSM      N15643   2.169   2.894   6.056  0.0117 -0.4004 -0.7060
  143OSM    C1515644   2.277   2.932   6.153  0.4146  0.4543 -0.9142
  143OSM   H15A15645   2.264   2.871   6.241  0.1229  0.0986 -1.2037
  143OSM   H15B15646   2.276   3.039   6.172  0.8905  0.5854 -1.6318
  143OSM   H15C15647   2.376   2.910   6.116 -0.1868  0.0873 -2.3026
  143OSM    C1415648   2.037   2.922   6.118  0.4099 -0.2899 -0.0630
  143OSM   H14A15649   2.015   3.024   6.144 -0.3678 -0.8998  1.7301
  143OSM   H14B15650   2.025   2.868   6.211  0.6142 -0.7950 -0.3263
  143OSM   H14C15651   1.958   2.895   6.049  0.4874  0.3219 -0.3980
  143OSM    C1315652   2.189   2.973   5.926 -0.1781  0.8775  0.0546
  143OSM   H13A15653   2.190   3.076   5.957  1.0507  0.8935 -0.0370
  143OSM   H13B15654   2.111   2.957   5.853  0.3594 -0.4329 -0.2598
  143OSM   H13C15655   2.283   2.954   5.878  0.5850  0.5728  1.6347
  143OSM    C1215656   2.183   2.739   6.024  0.1753 -0.1850 -0.2729
  143OSM   H12A15657   2.265   2.729   5.955  0.9766  0.5546  0.5572
  143OSM   H12B15658   2.096   2.707   5.970  2.0008 -0.3902 -3.1917
  143OSM    C1115659   2.196   2.630   6.138  1.2096 -0.5643  0.4843
  143OSM   H11A15660   2.292   2.648   6.191  0.6183 -1.2662  1.8051
  143OSM   H11B15661   2.214   2.527   6.101  0.6326 -1.0103  1.4139
  143OSM      P15662   1.959   2.557   6.202  0.1062 -0.0784 -0.0992
  143OSM    O1315663   1.841   2.631   6.242 -0.4250  0.1179 -0.1901
  143OSM    O1415664   1.962   2.520   6.059 -0.0784 -0.2889 -0.4040
  143OSM    O1115665   1.978   2.420   6.290 -0.5241 -0.8247 -0.3673
  143OSM    O1215666   2.084   2.638   6.229 -0.2877 -0.6986 -0.1268
  143OSM    C1S15667   2.052   2.426   6.413 -0.3254 -0.0272 -0.4674
  143OSM    H1S15668   2.115   2.518   6.416 -0.2249 -0.0977 -0.4205
  143OSM    H1T15669   2.126   2.344   6.402  0.7840  1.0081 -0.8344
  143OSM     NF15670   2.053   2.440   6.648 -0.2075  0.4914 -0.2417
  143OSM    HNF15671   2.106   2.364   6.686  0.2101  0.6885 -0.4288
  143OSM    C2S15672   1.964   2.414   6.539  0.3074  0.0976 -0.3654
  143OSM    H2S15673   1.879   2.486   6.536  0.1293 -0.1357 -0.9840
  143OSM    C3S15674   1.898   2.268   6.530 -1.0891  0.4414 -0.5632
  143OSM    H3S15675   1.974   2.188   6.536 -0.1936  1.4251  2.4589
  143OSM     O315676   1.831   2.234   6.406  0.3873  0.4218 -0.0207
  143OSM    HO315677   1.846   2.316   6.360 -0.6612 -0.5854 -2.2276
  143OSM    C4S15678   1.800   2.253   6.645  0.0051  0.5437 -0.3320
  143OSM    H4S15679   1.753   2.349   6.670  1.3052  0.2723  3.5153
  143OSM    C5S15680   1.783   2.146   6.728  0.2364 -0.8131 -0.4702
  143OSM    H5S15681   1.838   2.052   6.720 -0.2804 -1.2354  0.7633
  143OSM    C6S15682   1.686   2.147   6.842  0.2886  0.2588  0.7571
  143OSM    H6S15683   1.629   2.052   6.841  1.3673 -0.3832 -1.2589
  143OSM    H6T15684   1.612   2.230   6.846 -0.1506 -0.1353  0.8999
  143OSM    C7S15685   1.765   2.168   6.973  0.3885  0.0850  0.7717
  143OSM    H7S15686   1.818   2.266   6.976  0.1294  0.2096  1.3072
  143OSM    H7T15687   1.845   2.092   6.983 -1.1855 -1.7092  0.0684
  143OSM    C8S15688   1.672   2.172   7.093 -0.6165  0.5877 -0.0223
  143OSM    H8S15689   1.632   2.068   7.102  0.5891  0.0681 -0.6089
  143OSM    H8T15690   1.587   2.241   7.075 -0.2371  1.5592  1.7970
  143OSM    C9S15691   1.743   2.210   7.218 -0.2386 -0.4794 -0.0149
  143OSM    H9S15692   1.780   2.314   7.203 -0.0727 -0.7235 -1.3549
  143OSM    H9T15693   1.840   2.159   7.233  1.1276  2.1400  0.4969
  143OSM   C10S15694   1.659   2.204   7.344  0.3238 -0.7010 -0.8760
  143OSM   H10S15695   1.639   2.096   7.360  0.1838 -0.8955 -2.3203
  143OSM   H10T15696   1.561   2.256   7.337  0.2135 -0.8933 -0.7667
  143OSM   C11S15697   1.726   2.258   7.468  0.4048 -0.1868  0.2563
  143OSM   H11S15698   1.785   2.345   7.434  1.8755 -0.7001  1.4354
  143OSM   H11T15699   1.802   2.190   7.513 -0.7595 -1.5284  0.2526
  143OSM   C12S15700   1.624   2.289   7.579  0.4737 -0.2553  0.3572
  143OSM   H12S15701   1.577   2.191   7.604  1.2035 -1.2583 -2.0529
  143OSM   H12T15702   1.532   2.346   7.553  0.3610  0.0248  1.3625
  143OSM   C13S15703   1.679   2.355   7.712 -0.3642  0.0878 -0.1738
  143OSM   H13S15704   1.592   2.401   7.763  0.6106  1.9582 -0.1654
  143OSM   H13T15705   1.750   2.439   7.696 -1.8907  2.0116  2.7223
  143OSM   C14S15706   1.737   2.253   7.815  0.5794  0.3183  0.8332
  143OSM   H14S15707   1.834   2.227   7.766  0.5377 -0.3154  1.0789
  143OSM   H14T15708   1.675   2.162   7.803 -0.9252  1.6556 -2.2433
  143OSM   C15S15709   1.760   2.303   7.949 -0.3063  0.0011 -0.4884
  143OSM   H15S15710   1.826   2.239   8.011  1.2171  1.9242 -0.0872
  143OSM   H15T15711   1.663   2.324   8.000  0.4462 -0.8425  1.3558
  143OSM   C16S15712   1.836   2.439   7.963  0.4168  1.2515  0.0732
  143OSM   H16S15713   1.780   2.512   7.901  1.4170  1.9083 -0.0618
  143OSM   H16T15714   1.943   2.446   7.936  0.0311  0.9479 -1.6014
  143OSM   C17S15715   1.820   2.496   8.109  0.3410  0.0523  0.0278
  143OSM   H17S15716   1.719   2.488   8.154 -0.5136  0.8503 -1.7045
  143OSM   H17T15717   1.850   2.602   8.116 -1.2833  0.5242  0.1126
  143OSM   C18S15718   1.909   2.427   8.210 -0.4959  0.4586 -0.3059
  143OSM   H18S15719   1.940   2.486   8.299 -0.5604  0.6721 -0.4252
  143OSM   H18T15720   1.998   2.389   8.155  0.7043  2.9620 -0.1654
  143OSM   H18U15721   1.862   2.337   8.256 -0.8546 -0.3983 -2.2721
  143OSM    C1F15722   2.083   2.563   6.677 -0.1746  0.0822 -0.3489
  143OSM     OF15723   2.020   2.649   6.622  0.3693  0.3599  0.6510
  143OSM    C2F15724   2.181   2.586   6.783 -0.0923  0.3314  0.2184
  143OSM    H2F15725   2.259   2.508   6.769  1.0784  1.5029  0.1423
  143OSM    H2G15726   2.124   2.580   6.878  1.2959  1.3411  1.1300
  143OSM    C3F15727   2.230   2.729   6.770 -0.0778 -0.2665 -0.6445
  143OSM    H3F15728   2.150   2.806   6.776  2.1862  2.0106  1.4321
  143OSM    H3G15729   2.269   2.728   6.666 -0.7755 -0.8825 -0.9090
  143OSM    C4F15730   2.350   2.760   6.862  0.3856 -0.4292 -0.2788
  143OSM    H4F15731   2.373   2.867   6.839 -0.7255  0.2746  1.7485
  143OSM    H4G15732   2.441   2.706   6.827 -0.0416 -2.4586  1.6522
  143OSM    C5F15733   2.318   2.758   7.015 -0.0848  0.4673 -0.3934
  143OSM    H5F15734   2.303   2.653   7.050  4.9806  0.5230  2.4009
  143OSM    H5G15735   2.226   2.815   7.037 -0.5880 -0.6795  0.5468
  143OSM    C6F15736   2.432   2.801   7.116  0.4730  0.3048  0.7039
  143OSM    H6F15737   2.449   2.911   7.108 -0.6257  0.6380  2.6219
  143OSM    H6G15738   2.524   2.751   7.081 -0.2456  0.0743 -0.9034
  143OSM    C7F15739   2.414   2.751   7.262 -0.0822 -0.4667 -0.1571
  143OSM    H7F15740   2.438   2.643   7.255  0.8515 -0.2305 -0.6813
  143OSM    H7G15741   2.306   2.762   7.284 -0.3058 -3.0393  0.2449
  143OSM    C8F15742   2.509   2.805   7.368 -0.0111 -0.0891 -0.9437
  143OSM    H8F15743   2.478   2.910   7.382 -0.2148 -0.3190  0.4295
  143OSM    H8G15744   2.612   2.802   7.327  0.8246  2.5301  0.8811
  143OSM    C9F15745   2.503   2.720   7.499 -0.2392 -0.4131 -0.0219
  143OSM    H9F15746   2.548   2.619   7.498  0.7464  0.0127 -1.7412
  143OSM   C10F15747   2.461   2.760   7.618 -0.1208  0.3110 -0.2523
  143OSM   H10F15748   2.474   2.686   7.698  1.3447 -0.1098 -0.8686
  143OSM   C11F15749   2.425   2.903   7.649  0.0231 -0.0195  0.6491
  143OSM   H11F15750   2.329   2.938   7.607  0.2930  2.5534  2.1276
  143OSM   H11G15751   2.509   2.964   7.608 -0.9484  0.1767 -1.1085
  143OSM   C12F15752   2.404   2.926   7.798 -0.8508  0.3196 -0.0160
  143OSM   H12F15753   2.350   2.839   7.841  0.3071 -0.9361 -1.0576
  143OSM   H12G15754   2.357   3.025   7.817  0.4519  1.0606 -0.5903
  143OSM   C13F15755   2.547   2.919   7.870 -0.5659 -0.4131  0.5739
  143OSM   H13F15756   2.596   3.006   7.821 -0.1602 -0.5868  0.6665
  143OSM   H13G15757   2.588   2.826   7.826 -0.9589  0.6361 -2.1096
  143OSM   C14F15758   2.535   2.929   8.023  0.0077 -0.3101  0.0082
  143OSM   H14F15759   2.633   2.893   8.060  0.4159 -0.2189 -0.9824
  143OSM   H14G15760   2.464   2.861   8.076  2.7494 -2.3401  1.1995
  143OSM   C15F15761   2.514   3.075   8.061  0.2777 -0.5447 -0.4932
  143OSM   H15F15762   2.425   3.108   8.002 -0.8072 -0.9730  0.8889
  143OSM   H15G15763   2.603   3.136   8.032 -0.0487 -0.7300 -1.9371
  143OSM   C16F15764   2.492   3.091   8.217  0.4558  0.4886 -0.3911
  143OSM   H16F15765   2.579   3.039   8.263 -0.6415 -0.6499  0.4392
  143OSM   H16G15766   2.412   3.025   8.257  0.7075  1.2071  1.3363
  143OSM   C17F15767   2.482   3.238   8.267  0.6197  0.0452  0.6246
  143OSM   H17F15768   2.542   3.315   8.214 -0.6632  0.0463 -0.8285
  143OSM   H17G15769   2.512   3.251   8.374  0.6020  0.4400  0.5841
  143OSM   C18F15770   2.331   3.293   8.250  0.2703  0.9965 -0.4927
  143OSM   H18F15771   2.291   3.262   8.151 -0.5267 -0.1068  0.1651
  143OSM   H18G15772   2.336   3.404   8.242  1.3613  1.0575  0.8452
  143OSM   H18H15773   2.260   3.253   8.326 -2.2808  0.0347 -3.2857
  144OSM      N15774   1.100   2.229   5.902  0.1095  0.4858 -0.3351
  144OSM    C1515775   1.105   2.350   5.984 -0.0566  0.4934  0.4009
  144OSM   H15A15776   1.207   2.356   6.018  0.0872  0.6540 -0.0571
  144OSM   H15B15777   1.039   2.350   6.069  1.7710  0.2512  1.8487
  144OSM   H15C15778   1.087   2.425   5.908 -1.0187 -1.9281 -1.8554
  144OSM    C1415779   0.979   2.246   5.811  0.6259  0.0769 -0.1038
  144OSM   H14A15780   0.979   2.172   5.733 -0.8916 -1.1066  0.9835
  144OSM   H14B15781   0.978   2.342   5.762  0.3149  0.3250  0.3844
  144OSM   H14C15782   0.887   2.236   5.867  0.3715  0.1213 -0.5147
  144OSM    C1315783   1.226   2.220   5.818 -0.5998 -0.5425 -0.6125
  144OSM   H13A15784   1.222   2.304   5.750 -0.4105 -0.6999 -0.8172
  144OSM   H13B15785   1.222   2.130   5.759 -1.7385 -2.3427  2.1312
  144OSM   H13C15786   1.317   2.219   5.877 -1.5505  0.5584  0.9150
  144OSM    C1215787   1.065   2.108   5.975 -0.4787 -0.2413 -0.8015
  144OSM   H12A15788   1.153   2.063   6.020 -0.7126 -0.5761 -0.6669
  144OSM   H12B15789   1.025   2.031   5.911 -1.9764  0.3759 -0.6182
  144OSM    C1115790   0.972   2.106   6.102  0.7224 -0.4565  0.6135
  144OSM   H11A15791   1.024   2.175   6.172 -2.4697  0.6703  1.9746
  144OSM   H11B15792   0.974   2.010   6.158 -3.6583 -0.2992  1.2379
  144OSM      P15793   0.722   2.051   6.041  0.1107  0.7771  0.0310
  144OSM    O1315794   0.613   2.114   5.964 -0.5201  0.5392  0.1917
  144OSM    O1415795   0.772   1.925   5.981  0.5174  0.5372 -0.1608
  144OSM    O1115796   0.661   2.026   6.179  0.2478 -0.3117 -0.0742
  144OSM    O1215797   0.839   2.154   6.075  0.0173 -0.0082  0.7728
  144OSM    C1S15798   0.657   2.107   6.298 -0.1619  0.1538 -0.0890
  144OSM    H1S15799   0.576   2.183   6.305  0.0072  0.3334 -0.0675
  144OSM    H1T15800   0.741   2.180   6.300 -1.2877  1.4755 -0.6815
  144OSM     NF15801   0.700   2.099   6.538 -0.3592  0.0610 -0.5431
  144OSM    HNF15802   0.794   2.095   6.571 -0.4403 -2.0707 -0.4847
  144OSM    C2S15803   0.674   2.015   6.419 -0.0827  0.2909 -0.2082
  144OSM    H2S15804   0.577   1.961   6.434  1.7560 -4.1266 -3.0199
  144OSM    C3S15805   0.777   1.909   6.386  0.3304 -0.1029  0.2859
  144OSM    H3S15806   0.867   1.967   6.355 -1.5546  2.2779 -0.9468
  144OSM     O315807   0.747   1.819   6.284  0.3889 -0.1603  0.9280
  144OSM    HO315808   0.685   1.872   6.233  1.8750  0.2367 -0.5011
  144OSM    C4S15809   0.799   1.824   6.507  0.2462 -0.0409 -0.2969
  144OSM    H4S15810   0.728   1.745   6.534  1.0743 -0.4993  0.5479
  144OSM    C5S15811   0.913   1.825   6.566 -0.1104 -0.6625  0.2978
  144OSM    H5S15812   0.996   1.886   6.528  1.3647 -1.7973  1.6517
  144OSM    C6S15813   0.947   1.728   6.682  0.8346 -0.2113  0.3527
  144OSM    H6S15814   1.040   1.668   6.675  0.2733 -0.8168 -2.5283
  144OSM    H6T15815   0.867   1.653   6.701  1.4124 -1.6011 -2.4475
  144OSM    C7S15816   0.962   1.797   6.819  0.1515 -0.2713  0.1155
  144OSM    H7S15817   0.867   1.844   6.852  0.1054 -1.2592  1.4292
  144OSM    H7T15818   1.034   1.881   6.808 -0.7542  0.6479  1.0457
  144OSM    C8S15819   1.008   1.712   6.940  0.5918  0.0641  0.4298
  144OSM    H8S15820   1.114   1.685   6.926 -0.0043 -1.1370 -2.2188
  144OSM    H8T15821   0.947   1.619   6.935 -3.2256  2.2857  2.7167
  144OSM    C9S15822   0.997   1.784   7.069  0.1942  0.3252 -0.1662
  144OSM    H9S15823   0.890   1.811   7.083  1.0308  3.1946  0.8920
  144OSM    H9T15824   1.060   1.875   7.062 -0.9029  1.0399 -0.8612
  144OSM   C10S15825   1.030   1.700   7.194  0.5912  0.3225 -0.0431
  144OSM   H10S15826   1.133   1.662   7.173  1.2089  1.4893  0.8592
  144OSM   H10T15827   0.960   1.614   7.188  2.6504 -1.4490  0.5394
  144OSM   C11S15828   1.016   1.777   7.331  0.4850  0.8346  0.2337
  144OSM   H11S15829   0.906   1.792   7.338  0.4964  0.8164  0.4595
  144OSM   H11T15830   1.064   1.876   7.317  0.7232  1.0950  2.6551
  144OSM   C12S15831   1.071   1.710   7.456  1.1722  0.0362  0.8293
  144OSM   H12S15832   1.179   1.733   7.469  1.5168  0.7076 -2.5336
  144OSM   H12T15833   1.071   1.599   7.455  0.2693  0.0270 -0.7071
  144OSM   C13S15834   0.996   1.756   7.586 -0.3500  0.2450  0.4504
  144OSM   H13S15835   0.896   1.707   7.594 -0.3717  0.1780 -0.2080
  144OSM   H13T15836   0.980   1.863   7.611  2.3517  0.3918  1.7788
  144OSM   C14S15837   1.080   1.708   7.706 -0.5646 -0.2442 -0.4360
  144OSM   H14S15838   1.161   1.782   7.722 -1.2664  0.5574 -0.6079
  144OSM   H14T15839   1.125   1.607   7.693 -1.3513 -0.4411 -1.6523
  144OSM   C15S15840   1.004   1.717   7.837  0.1200  0.2136  0.1718
  144OSM   H15S15841   0.914   1.652   7.834 -0.3182  0.7750  1.0782
  144OSM   H15T15842   0.978   1.822   7.861 -1.7928  1.0093 -4.7575
  144OSM   C16S15843   1.102   1.673   7.952 -0.1672  0.9339  0.6328
  144OSM   H16S15844   1.204   1.711   7.928 -0.1038  1.0800  1.1422
  144OSM   H16T15845   1.121   1.564   7.953 -4.4527  0.1174  2.2878
  144OSM   C17S15846   1.055   1.720   8.085 -0.1074  0.0102 -0.7270
  144OSM   H17S15847   0.945   1.709   8.102 -0.0423 -0.4130 -0.5704
  144OSM   H17T15848   1.073   1.829   8.086 -0.1750  0.0247 -1.1552
  144OSM   C18S15849   1.128   1.659   8.201  0.0461 -0.5301 -0.1610
  144OSM   H18S15850   1.234   1.685   8.180 -0.4599  3.1711  1.5631
  144OSM   H18T15851   1.103   1.551   8.211  0.6068 -0.7739 -1.3119
  144OSM   H18U15852   1.094   1.704   8.297 -1.1368  0.7774 -1.1882
  144OSM    C1F15853   0.606   2.175   6.584 -0.5363 -0.7236  0.5473
  144OSM     OF15854   0.490   2.162   6.544  0.2790  0.1932 -0.5975
  144OSM    C2F15855   0.642   2.276   6.694  0.4129 -0.7907  0.2169
  144OSM    H2F15856   0.658   2.377   6.650 -1.7624 -0.2910  0.5139
  144OSM    H2G15857   0.738   2.248   6.743 -0.2163 -0.9042  1.4029
  144OSM    C3F15858   0.535   2.283   6.809  0.5220 -0.3928  0.0445
  144OSM    H3F15859   0.548   2.183   6.856  1.0267 -0.6595 -0.6479
  144OSM    H3G15860   0.433   2.287   6.766  0.7749  0.7489 -0.4660
  144OSM    C4F15861   0.559   2.395   6.907 -0.4298 -0.2928  0.1648
  144OSM    H4F15862   0.463   2.400   6.963 -0.3999 -0.6687  0.2525
  144OSM    H4G15863   0.580   2.494   6.862 -0.2172 -0.9504 -1.2193
  144OSM    C5F15864   0.674   2.365   7.004  0.0948  0.3562  0.2538
  144OSM    H5F15865   0.761   2.355   6.936 -0.6497 -1.1348 -0.4915
  144OSM    H5G15866   0.663   2.268   7.056  0.3896 -0.6159 -1.4452
  144OSM    C6F15867   0.705   2.478   7.101 -0.0700 -0.1935 -0.1209
  144OSM    H6F15868   0.617   2.485   7.169  0.1458  1.2566  0.0401
  144OSM    H6G15869   0.704   2.578   7.052 -1.4823 -0.7411 -1.2245
  144OSM    C7F15870   0.830   2.466   7.186 -0.4324 -0.3296  0.5345
  144OSM    H7F15871   0.912   2.474   7.112  0.0101 -0.9472  0.9535
  144OSM    H7G15872   0.836   2.367   7.237 -0.8202 -1.4626 -1.5595
  144OSM    C8F15873   0.867   2.578   7.280 -0.3192  0.1693  0.5835
  144OSM    H8F15874   0.856   2.667   7.214  2.1846 -1.7080 -2.4838
  144OSM    H8G15875   0.971   2.571   7.320  0.5114  1.3100 -1.3414
  144OSM    C9F15876   0.776   2.586   7.400 -0.1963  0.0100  1.1806
  144OSM    H9F15877   0.669   2.585   7.373  0.4074  1.7012 -1.4985
  144OSM   C10F15878   0.808   2.580   7.531  0.7970  0.3404 -0.7167
  144OSM   H10F15879   0.720   2.569   7.597  1.4868 -0.8678  0.0149
  144OSM   C11F15880   0.943   2.555   7.598  0.1263 -0.3549 -0.0407
  144OSM   H11F15881   1.028   2.582   7.532 -0.6256 -0.3121 -1.0021
  144OSM   H11G15882   0.945   2.446   7.616  1.5075  0.0434  2.3371
  144OSM   C12F15883   0.972   2.641   7.726  0.0389  0.1998  1.3436
  144OSM   H12F15884   0.890   2.640   7.801 -2.1018 -3.2765 -0.9258
  144OSM   H12G15885   0.987   2.745   7.691 -2.9088  0.2802  0.1576
  144OSM   C13F15886   1.098   2.586   7.800  0.1200  0.1461  0.1398
  144OSM   H13F15887   1.167   2.533   7.731  0.0868 -0.5867  0.6718
  144OSM   H13G15888   1.076   2.506   7.874 -0.7749  1.9531  1.8907
  144OSM   C14F15889   1.176   2.708   7.860  0.7219  0.3868 -0.8248
  144OSM   H14F15890   1.101   2.756   7.926 -0.2543 -1.6996 -0.3861
  144OSM   H14G15891   1.218   2.770   7.778 -0.8714  2.1683 -0.3411
  144OSM   C15F15892   1.286   2.657   7.942 -0.6457  0.3071 -0.0262
  144OSM   H15F15893   1.357   2.605   7.874  1.2354  1.1287  1.2689
  144OSM   H15G15894   1.255   2.591   8.026 -0.3229  1.0740  0.7023
  144OSM   C16F15895   1.365   2.782   7.988  0.3006 -1.0951 -0.5908
  144OSM   H16F15896   1.298   2.835   8.058  1.7753 -1.7349  1.3349
  144OSM   H16G15897   1.382   2.850   7.902  0.1619 -0.0896  0.1801
  144OSM   C17F15898   1.494   2.752   8.064  0.2800  0.4303 -0.2547
  144OSM   H17F15899   1.547   2.848   8.084  0.9490  0.1605 -0.7217
  144OSM   H17G15900   1.565   2.689   8.006 -0.6752  0.2659 -1.2676
  144OSM   C18F15901   1.463   2.676   8.192  0.3439  0.5647  0.1167
  144OSM   H18F15902   1.421   2.739   8.273  1.9453  1.1837  0.4921
  144OSM   H18G15903   1.556   2.646   8.244  0.6566  0.1350 -0.6741
  144OSM   H18H15904   1.395   2.589   8.176 -1.5426  1.9086  0.6603
  145SAPE     N15905   6.410   3.333  10.450  0.8106 -0.1643 -0.0015
  145SAPE   HN115906   6.353   3.416  10.424 -0.5032 -1.3121 -0.8663
  145SAPE   HN215907   6.490   3.322  10.385 -0.8833  0.3837 -2.2313
  145SAPE   HN315908   6.356   3.252  10.413  0.8118  0.2980 -1.0178
  145SAPE   C1215909   6.423   3.317  10.600  0.1407 -0.1519 -0.3102
  145SAPE  H12A15910   6.324   3.273  10.626 -0.6157  0.0485 -2.7828
  145SAPE  H12B15911   6.438   3.413  10.653 -0.3408  0.4006 -1.1645
  145SAPE   C1115912   6.533   3.219  10.637  0.6570  1.0163  0.0623
  145SAPE  H11A15913   6.532   3.188  10.743 -0.4096  1.0000  0.0490
  145SAPE  H11B15914   6.624   3.281  10.620  1.1424 -0.0905 -1.4972
  145SAPE     P15915   6.441   2.975  10.570 -0.1006 -0.2716  0.4674
  145SAPE   O1315916   6.516   2.871  10.647  0.2669 -0.3329 -0.2963
  145SAPE   O1415917   6.309   3.012  10.626  0.7031 -0.1125  0.0512
  145SAPE   O1215918   6.537   3.109  10.558 -0.0512  0.7366  0.2178
  145SAPE   O1115919   6.435   2.938  10.416 -0.2807  0.4443  0.0773
  145SAPE    C115920   6.553   2.909  10.338  0.7041  0.3731  0.8913
  145SAPE    HA15921   6.601   3.000  10.295  1.3594 -0.8403 -1.0131
  145SAPE    HB15922   6.636   2.868  10.401  1.7860 -0.0485 -0.7788
  145SAPE    C215923   6.524   2.815  10.219 -0.0945 -0.1540  0.1980
  145SAPE    HS15924   6.612   2.808  10.151 -0.5209  0.2023 -0.3935
  145SAPE   O2115925   6.408   2.856  10.145 -0.0801  0.1058  0.3241
  145SAPE   C2115926   6.425   2.954  10.065  0.4169 -0.1987  0.3805
  145SAPE   O2215927   6.526   3.019  10.060 -0.6461 -0.2267  0.4520
  145SAPE   C2215928   6.297   2.990   9.993 -0.1166 -0.0471  0.2854
  145SAPE   H2R15929   6.233   2.902   9.971  0.8667 -0.2832 -1.8282
  145SAPE   H2S15930   6.236   3.066  10.046 -2.6161 -1.4610 -0.4652
  145SAPE    C315931   6.503   2.663  10.267 -0.5670 -0.1970  0.0672
  145SAPE    HX15932   6.422   2.663  10.343  0.4540 -0.7591  1.1639
  145SAPE    HY15933   6.591   2.619  10.318  0.3218  1.1107 -0.3192
  145SAPE   O3115934   6.457   2.584  10.156 -0.6480 -0.3053 -0.0851
  145SAPE   C3115935   6.549   2.538  10.066 -0.3248 -0.6744  0.4075
  145SAPE   O3215936   6.674   2.540  10.081  0.8602 -0.2196 -0.4196
  145SAPE   C3215937   6.482   2.489   9.933  0.1449 -0.1257  0.4485
  145SAPE   H2X15938   6.405   2.414   9.960  0.2946 -0.2530  0.5247
  145SAPE   H2Y15939   6.567   2.436   9.884 -0.4118 -0.0958 -0.5638
  145SAPE   C2315940   6.333   3.058   9.859 -0.1555 -0.3693  0.1024
  145SAPE   H3R15941   6.243   3.069   9.795  1.1201  1.2635 -1.4231
  145SAPE   H3S15942   6.415   3.014   9.799 -1.3688  0.4301 -2.1877
  145SAPE   C2415943   6.372   3.206   9.873 -0.0284  0.2561  0.5763
  145SAPE   H4R15944   6.371   3.231   9.765  2.3592  0.2557  0.5460
  145SAPE   H4S15945   6.476   3.212   9.911 -0.2093  0.4695  1.0451
  145SAPE   C2515946   6.285   3.297   9.953 -1.2607  0.2163  0.3547
  145SAPE   H5R15947   6.255   3.270  10.055 -0.7546 -3.4150 -0.3799
  145SAPE   C2615948   6.252   3.420   9.923  0.4946 -0.6239 -0.0159
  145SAPE   H6R15949   6.182   3.473   9.989  0.7956  1.1982 -1.1307
  145SAPE   C2715950   6.291   3.497   9.801 -0.2993  0.2770 -0.1201
  145SAPE   H7R15951   6.200   3.512   9.739  1.1165 -0.4605 -2.4319
  145SAPE   H7S15952   6.362   3.440   9.737  0.7758  1.3741  0.0543
  145SAPE   C2815953   6.368   3.626   9.823 -0.2738 -0.0930 -0.5057
  145SAPE   H8R15954   6.416   3.628   9.922 -0.6103  0.7918 -0.3613
  145SAPE   C2915955   6.374   3.726   9.732  0.0307  0.0798 -0.5817
  145SAPE   H9R15956   6.436   3.817   9.745 -2.1233  1.2559  1.8957
  145SAPE  C21015957   6.294   3.721   9.602 -0.2088  0.1125 -0.4220
  145SAPE  H10R15958   6.226   3.634   9.610 -0.2492  0.2382  0.8057
  145SAPE  H10S15959   6.368   3.700   9.522 -0.0969 -0.0283 -0.2809
  145SAPE  C21115960   6.218   3.846   9.569 -0.2735 -0.4300 -0.8854
  145SAPE  H11R15961   6.173   3.904   9.650 -0.0526  1.5384 -2.1543
  145SAPE  C21215962   6.187   3.887   9.447 -0.1953  0.5343 -0.6741
  145SAPE  H12R15963   6.131   3.981   9.438  1.0905  1.5343  1.4072
  145SAPE  C21315964   6.204   3.803   9.323  0.0885  0.3660  0.8267
  145SAPE  H13R15965   6.120   3.819   9.252 -0.4794 -4.1302  0.3227
  145SAPE  H13S15966   6.178   3.697   9.346 -2.1175  0.3723 -1.4152
  145SAPE  C21415967   6.337   3.817   9.251  0.3380 -0.3320 -0.0536
  145SAPE  H14R15968   6.389   3.912   9.270 -0.0988  0.1719 -1.3330
  145SAPE  C21515969   6.375   3.740   9.148 -0.4689 -1.6001 -1.1987
  145SAPE  H15R15970   6.467   3.775   9.100 -1.0050  0.9452 -0.4272
  145SAPE  C21615971   6.311   3.625   9.086 -0.6735  0.1647 -0.1462
  145SAPE  H16R15972   6.213   3.596   9.130 -0.8239  0.0936 -0.5297
  145SAPE  H16S15973   6.375   3.535   9.097 -1.6418 -0.6319 -0.9709
  145SAPE  C21715974   6.312   3.637   8.938 -0.0005 -0.2432 -0.0947
  145SAPE  H17R15975   6.301   3.534   8.897  0.9551 -0.9134  1.2846
  145SAPE  H17S15976   6.400   3.685   8.891 -0.8245 -0.1791 -1.5995
  145SAPE  C21815977   6.187   3.720   8.891 -0.5287 -0.5355 -0.1061
  145SAPE  H18R15978   6.209   3.825   8.920 -1.0424 -0.7493  1.1152
  145SAPE  H18S15979   6.093   3.688   8.942 -0.6163 -1.2612 -0.7053
  145SAPE  C21915980   6.171   3.702   8.740  0.1055 -0.6552  0.4325
  145SAPE  H19R15981   6.127   3.602   8.721  0.1644 -0.5098 -0.4620
  145SAPE  H19S15982   6.266   3.725   8.688 -0.5814 -0.0954 -0.5881
  145SAPE  C22015983   6.075   3.805   8.678  0.1332  0.1325 -0.0669
  145SAPE  H20R15984   6.063   3.791   8.569  1.3764 -0.0578 -0.1899
  145SAPE  H20S15985   6.103   3.912   8.690 -1.9545  0.9127 -1.9242
  145SAPE  H20T15986   5.977   3.806   8.729  0.5740 -1.8324  0.8394
  145SAPE   C3315987   6.432   2.614   9.857  0.5908 -0.2756  0.2021
  145SAPE   H3X15988   6.517   2.685   9.850 -0.9842  1.7347  0.9391
  145SAPE   H3Y15989   6.359   2.678   9.911 -0.1926  0.1646 -1.3503
  145SAPE   C3415990   6.381   2.587   9.713  0.3171  0.0803  0.0180
  145SAPE   H4X15991   6.392   2.479   9.693  1.0166 -0.1416  1.5049
  145SAPE   H4Y15992   6.431   2.635   9.626 -0.9811  0.3256 -0.6080
  145SAPE   C3515993   6.237   2.631   9.683 -0.0839  0.2489  0.5181
  145SAPE   H5X15994   6.174   2.612   9.772 -1.6982 -1.4562 -0.9712
  145SAPE   H5Y15995   6.193   2.556   9.614  0.7583  0.0615  0.1727
  145SAPE   C3615996   6.232   2.768   9.620 -0.1949  0.1629 -0.5347
  145SAPE   H6X15997   6.314   2.794   9.550  1.4832  1.9372  2.0107
  145SAPE   H6Y15998   6.225   2.842   9.703 -3.8307 -0.3872 -0.2881
  145SAPE   C3715999   6.110   2.782   9.544  0.7332 -0.7351 -0.2781
  145SAPE   H7X16000   6.071   2.886   9.553  1.2773 -0.4953 -0.6751
  145SAPE   H7Y16001   6.035   2.712   9.585  1.4249 -0.6994  1.0631
  145SAPE   C3816002   6.123   2.752   9.396  0.5558 -0.0896  0.1445
  145SAPE   H8X16003   6.180   2.658   9.376  0.5393  0.0642 -0.6704
  145SAPE   H8Y16004   6.174   2.842   9.356  1.0976  0.7388  2.6185
  145SAPE   C3916005   5.985   2.747   9.324  0.0062  0.0315  0.3459
  145SAPE   H9X16006   6.003   2.820   9.243 -0.5917 -2.2988 -1.9349
  145SAPE   H9Y16007   5.903   2.767   9.397  1.2170 -2.7487  2.5743
  145SAPE  C31016008   5.959   2.599   9.265 -0.2769  0.4830  0.1153
  145SAPE  H10X16009   6.043   2.580   9.195 -0.1358  0.2711  0.3401
  145SAPE  H10Y16010   5.861   2.602   9.212 -1.0272  2.5668  1.5538
  145SAPE  C31116011   5.950   2.494   9.378 -0.2052  0.6443 -0.1236
  145SAPE  H11X16012   6.045   2.478   9.433  0.8600 -2.2987 -2.6824
  145SAPE  H11Y16013   5.933   2.394   9.333 -0.8229  0.7372 -0.1037
  145SAPE  C31216014   5.839   2.508   9.475 -0.5130  0.0959 -0.0151
  145SAPE  H12X16015   5.742   2.511   9.421 -0.5702 -1.3140  0.0013
  145SAPE  H12Y16016   5.851   2.596   9.541  0.5593 -1.3179  1.7251
  145SAPE  C31316017   5.830   2.378   9.557 -0.2525 -0.4255 -0.1199
  145SAPE  H13X16018   5.805   2.287   9.499  0.8463 -0.6247 -0.2883
  145SAPE  H13Y16019   5.751   2.388   9.634  0.5622 -0.9713  0.7988
  145SAPE  C31416020   5.944   2.371   9.661  0.3044 -0.3442 -0.2126
  145SAPE  H14X16021   5.952   2.471   9.709 -0.6333 -0.2258 -0.2968
  145SAPE  H14Y16022   6.046   2.355   9.620  0.3794  0.2499 -0.2639
  145SAPE  C31516023   5.911   2.261   9.769 -0.8067 -0.4669  0.5413
  145SAPE  H15X16024   5.997   2.197   9.799 -1.1809 -1.5685 -0.6878
  145SAPE  H15Y16025   5.838   2.188   9.729  0.1642 -0.7149 -0.8238
  145SAPE  C31616026   5.857   2.331   9.898  0.4311 -0.4963 -0.5496
  145SAPE  H16X16027   5.764   2.387   9.875 -0.9583 -3.4887 -2.5176
  145SAPE  H16Y16028   5.931   2.404   9.937 -0.3179  0.2758 -0.5769
  145SAPE  C31716029   5.827   2.230  10.009  0.4234 -0.1267  0.3290
  145SAPE  H17X16030   5.927   2.190  10.034  0.2668 -0.5226  0.3211
  145SAPE  H17Y16031   5.749   2.154   9.986 -0.0563  1.4632 -3.5792
  145SAPE  C31816032   5.778   2.321  10.118 -0.5555 -0.6184 -0.4425
  145SAPE  H18X16033   5.667   2.325  10.120 -0.4941  1.5421  2.4327
  145SAPE  H18Y16034   5.837   2.415  10.111 -1.6920  0.1641  0.1599
  145SAPE  H18Z16035   5.813   2.275  10.213  0.5831 -0.1699 -0.6372
  146SAPE     N16036   5.243   4.266  11.041 -0.0957  0.6830  0.5670
  146SAPE   HN116037   5.192   4.249  10.952  0.2573  3.1853 -0.1419
  146SAPE   HN216038   5.191   4.221  11.118  1.5482  0.4790  1.5961
  146SAPE   HN316039   5.235   4.367  11.066  2.4914  0.6225  1.7982
  146SAPE   C1216040   5.372   4.198  11.025 -0.6444  0.4018  0.3750
  146SAPE  H12A16041   5.434   4.190  11.117 -1.5345 -2.0219  0.7809
  146SAPE  H12B16042   5.427   4.263  10.953 -1.0146  0.5545  0.2292
  146SAPE   C1116043   5.344   4.051  10.986  0.4360  0.4556  0.0223
  146SAPE  H11A16044   5.291   3.995  11.067 -1.2397  1.9853 -0.0058
  146SAPE  H11B16045   5.443   4.000  10.976 -0.1717 -0.3412 -2.1993
  146SAPE     P16046   5.321   3.989  10.732  0.3002  0.0835 -0.0955
  146SAPE   O1316047   5.356   3.843  10.747  0.9419 -0.3886 -0.0898
  146SAPE   O1416048   5.222   4.018  10.626  0.4597  0.2174  0.1237
  146SAPE   O1216049   5.263   4.040  10.872  0.1373  0.1436  0.0205
  146SAPE   O1116050   5.459   4.067  10.705  0.6204 -0.0814  0.2384
  146SAPE    C116051   5.439   4.205  10.660 -0.2203 -0.0254  0.5818
  146SAPE    HA16052   5.339   4.250  10.677 -1.2299 -0.9067 -2.5569
  146SAPE    HB16053   5.509   4.268  10.718  0.0247  0.9976 -0.7810
  146SAPE    C216054   5.476   4.222  10.516 -0.4563 -0.0695 -0.4529
  146SAPE    HS16055   5.474   4.328  10.481  2.6800  0.0104 -0.5693
  146SAPE   O2116056   5.401   4.140  10.423  0.1423  0.2713 -0.4901
  146SAPE   C2116057   5.267   4.182  10.398 -0.4946 -0.1246  0.6937
  146SAPE   O2216058   5.219   4.288  10.440 -0.7097 -0.2032 -0.1481
  146SAPE   C2216059   5.198   4.080  10.315 -0.0013  0.1530  0.8360
  146SAPE   H2R16060   5.170   3.990  10.374  0.4659 -0.0491  0.7507
  146SAPE   H2S16061   5.106   4.129  10.277  0.0217 -0.7010 -0.3382
  146SAPE    C316062   5.624   4.188  10.497 -0.3389  0.1576 -0.5223
  146SAPE    HX16063   5.633   4.081  10.527 -1.7516 -0.4219 -2.0828
  146SAPE    HY16064   5.686   4.249  10.566  2.0604 -0.1928 -2.2864
  146SAPE   O3116065   5.664   4.209  10.361  0.1983 -0.2291  0.0467
  146SAPE   C3116066   5.773   4.144  10.326 -0.3559  0.3757 -0.0038
  146SAPE   O3216067   5.864   4.110  10.402  0.1045 -0.1162  0.0859
  146SAPE   C3216068   5.763   4.117  10.173 -0.9819  0.5208 -0.5499
  146SAPE   H2X16069   5.669   4.169  10.144 -0.3801  0.7375 -2.1505
  146SAPE   H2Y16070   5.773   4.006  10.171 -0.9641  0.5067  0.3480
  146SAPE   C2316071   5.290   4.023  10.200  0.0637  0.4713  0.6112
  146SAPE   H3R16072   5.231   3.940  10.156 -1.5197  1.4706  0.8002
  146SAPE   H3S16073   5.383   3.980  10.242  0.9991  1.6362 -0.2235
  146SAPE   C2416074   5.321   4.119  10.085  0.3466  0.3254  0.3101
  146SAPE   H4R16075   5.367   4.206  10.137  1.1864  0.2434 -0.2917
  146SAPE   H4S16076   5.228   4.169  10.052 -1.4390 -2.2749  1.2607
  146SAPE   C2516077   5.407   4.072   9.975 -0.0903  0.5499 -0.0665
  146SAPE   H5R16078   5.465   3.981   9.991 -0.6536 -0.1230 -1.7573
  146SAPE   C2616079   5.408   4.118   9.845 -0.4856 -0.1875  0.3059
  146SAPE   H6R16080   5.476   4.074   9.771  0.2574  1.2501  0.1153
  146SAPE   C2716081   5.335   4.234   9.778  0.0074 -1.1739  0.1722
  146SAPE   H7R16082   5.407   4.312   9.746 -0.7824 -0.6909 -0.4593
  146SAPE   H7S16083   5.286   4.289   9.861  0.6912 -2.3353  1.3730
  146SAPE   C2816084   5.252   4.176   9.668 -0.1144 -0.3843 -0.3605
  146SAPE   H8R16085   5.234   4.069   9.684 -0.8636 -0.2353 -0.1429
  146SAPE   C2916086   5.227   4.233   9.550  0.3442  0.8730  0.2356
  146SAPE   H9R16087   5.149   4.188   9.486 -2.8798  2.5993  2.7988
  146SAPE  C21016088   5.278   4.367   9.504 -0.1746 -0.8196 -0.0578
  146SAPE  H10R16089   5.289   4.442   9.585 -1.3980 -0.3617 -0.3033
  146SAPE  H10S16090   5.195   4.404   9.441 -0.0565 -0.4888 -0.0234
  146SAPE  C21116091   5.410   4.371   9.430 -0.5495  0.3868 -0.0668
  146SAPE  H11R16092   5.495   4.328   9.485 -0.4875 -2.0652 -1.9739
  146SAPE  C21216093   5.433   4.411   9.305 -0.0057  0.4068 -0.1773
  146SAPE  H12R16094   5.536   4.402   9.265  0.1668  2.2505 -0.1761
  146SAPE  C21316095   5.330   4.454   9.201  0.7917 -0.1984  0.5990
  146SAPE  H13R16096   5.246   4.382   9.202  1.5946 -1.2061 -1.5617
  146SAPE  H13S16097   5.368   4.438   9.098 -1.6964 -1.7941 -0.0939
  146SAPE  C21416098   5.275   4.593   9.215 -0.3508 -0.3206  0.0508
  146SAPE  H14R16099   5.243   4.620   9.317  2.2714 -0.0713  0.8467
  146SAPE  C21516100   5.257   4.675   9.113  0.2375  0.0765  0.2892
  146SAPE  H15R16101   5.232   4.780   9.136  0.4128  0.5911 -1.7835
  146SAPE  C21616102   5.284   4.651   8.967  0.2497 -0.3438  0.8686
  146SAPE  H16R16103   5.351   4.564   8.949  3.9367  2.0127  2.4934
  146SAPE  H16S16104   5.342   4.739   8.931 -0.9733  0.3813  0.6329
  146SAPE  C21716105   5.162   4.643   8.872 -0.5918  0.3046 -0.2179
  146SAPE  H17R16106   5.094   4.726   8.896 -0.9490 -0.3918  1.1821
  146SAPE  H17S16107   5.107   4.549   8.892 -3.0323  1.7233 -0.1405
  146SAPE  C21816108   5.201   4.639   8.719 -0.1897 -0.4987 -0.0315
  146SAPE  H18R16109   5.215   4.531   8.695 -0.9879 -0.2045 -1.8614
  146SAPE  H18S16110   5.292   4.701   8.702 -2.0604  1.0993 -4.8843
  146SAPE  C21916111   5.095   4.697   8.621  0.0743 -0.2484 -0.0920
  146SAPE  H19R16112   5.071   4.801   8.650  0.6986 -0.3175  0.7160
  146SAPE  H19S16113   5.001   4.640   8.639  0.6755 -1.4115 -0.5448
  146SAPE  C22016114   5.138   4.691   8.472  0.2946 -0.1588 -0.1322
  146SAPE  H20R16115   5.183   4.590   8.463 -1.7079 -1.2383  1.4419
  146SAPE  H20S16116   5.199   4.781   8.451 -1.2545  1.2516  1.2322
  146SAPE  H20T16117   5.037   4.700   8.427  1.0468  3.8526 -1.2332
  146SAPE   C3316118   5.866   4.181  10.083 -0.7135 -0.2230  0.5155
  146SAPE   H3X16119   5.974   4.175  10.106 -0.5165  1.2427  0.0676
  146SAPE   H3Y16120   5.835   4.288  10.079  1.2098  0.3092 -0.7781
  146SAPE   C3416121   5.862   4.125   9.940  0.0523 -0.5501 -0.0262
  146SAPE   H4X16122   5.758   4.130   9.900 -0.2882  0.9176  1.0145
  146SAPE   H4Y16123   5.901   4.021   9.941 -0.4458 -0.7398 -0.1872
  146SAPE   C3516124   5.948   4.212   9.847 -0.2501 -0.4212 -0.0343
  146SAPE   H5X16125   6.057   4.197   9.862 -0.2781 -0.1932  0.4004
  146SAPE   H5Y16126   5.916   4.316   9.866  1.5581  0.0355  0.6143
  146SAPE   C3616127   5.918   4.190   9.694 -0.1871 -0.0528 -0.6831
  146SAPE   H6X16128   5.809   4.208   9.675 -0.3136 -0.0660  0.0262
  146SAPE   H6Y16129   5.945   4.086   9.670  0.3532 -0.6929  2.4680
  146SAPE   C3716130   5.994   4.284   9.604 -0.3180  0.5298  0.7739
  146SAPE   H7X16131   6.103   4.263   9.607 -0.4634 -0.2555  0.7359
  146SAPE   H7Y16132   5.988   4.390   9.637 -1.8187  0.9754 -0.8483
  146SAPE   C3816133   5.933   4.276   9.462  0.4532 -0.3129 -0.4628
  146SAPE   H8X16134   5.827   4.311   9.467  0.7446  0.4431  0.6461
  146SAPE   H8Y16135   5.943   4.171   9.425 -0.0262 -0.8017  0.7533
  146SAPE   C3916136   6.010   4.364   9.366 -0.3866  0.3550  0.2546
  146SAPE   H9X16137   6.103   4.311   9.337 -1.6272 -0.9768 -1.4168
  146SAPE   H9Y16138   6.035   4.461   9.415 -1.9057  0.1664  1.4440
  146SAPE  C31016139   5.931   4.396   9.240  0.7816 -0.2863  0.0478
  146SAPE  H10X16140   5.835   4.443   9.269  2.3027  1.1582  2.9593
  146SAPE  H10Y16141   5.911   4.308   9.175  2.6158 -0.4153 -0.3557
  146SAPE  C31116142   6.009   4.501   9.161  0.0634  0.2795 -0.0094
  146SAPE  H11X16143   6.115   4.467   9.157  0.6648  1.4067  3.7572
  146SAPE  H11Y16144   6.009   4.601   9.209 -1.5449 -0.6857  2.0669
  146SAPE  C31216145   5.950   4.527   9.021  0.8362 -0.0515  0.0998
  146SAPE  H12X16146   5.856   4.584   9.029  0.0903 -0.9883 -1.6950
  146SAPE  H12Y16147   5.920   4.432   8.973  1.3312 -1.2811  2.1532
  146SAPE  C31316148   6.048   4.609   8.925  0.4241  0.2460 -0.5700
  146SAPE  H13X16149   6.144   4.554   8.914  1.3512  1.8667 -0.7464
  146SAPE  H13Y16150   6.074   4.705   8.974 -1.5347  0.9986 -0.9445
  146SAPE  C31416151   5.974   4.655   8.792 -0.8518 -0.0837  0.2651
  146SAPE  H14X16152   5.867   4.666   8.820 -0.5855  1.4215  0.7016
  146SAPE  H14Y16153   5.975   4.572   8.717  0.0720  0.1258  0.0426
  146SAPE  C31516154   6.043   4.770   8.719 -0.0671  0.1450 -0.0239
  146SAPE  H15X16155   6.137   4.724   8.683 -0.3196 -2.1292  2.0444
  146SAPE  H15Y16156   6.075   4.848   8.791  2.0603  0.3668 -1.1856
  146SAPE  C31616157   5.950   4.824   8.609  0.5299  0.4139 -0.6013
  146SAPE  H16X16158   5.849   4.846   8.650  0.8524 -1.4408  1.2997
  146SAPE  H16Y16159   5.934   4.737   8.542  2.3496  0.5781 -1.2644
  146SAPE  C31716160   6.008   4.929   8.516  0.2593 -0.7526 -1.4232
  146SAPE  H17X16161   5.997   5.027   8.568  0.9187 -2.3703  1.8449
  146SAPE  H17Y16162   5.953   4.927   8.419  1.4215  3.7970 -2.3095
  146SAPE  C31816163   6.158   4.910   8.466  0.3601  0.2755  0.0027
  146SAPE  H18X16164   6.173   4.985   8.387  0.6562  2.0645  1.7144
  146SAPE  H18Y16165   6.170   4.804   8.435 -0.7087  0.1816 -0.1352
  146SAPE  H18Z16166   6.230   4.922   8.550 -0.6606 -0.1654  0.9623
  147SAPE     N16167   6.525   6.131  10.853 -0.6755  0.0408 -0.3424
  147SAPE   HN116168   6.449   6.115  10.922  0.6849 -1.2112  0.9055
  147SAPE   HN216169   6.516   6.059  10.778  1.0291 -1.8194  1.2048
  147SAPE   HN316170   6.619   6.124  10.897 -1.9230 -0.0015  2.3728
  147SAPE   C1216171   6.484   6.270  10.795  0.3704 -0.3659  0.3723
  147SAPE  H12A16172   6.474   6.340  10.882 -2.7729  0.0301 -0.2476
  147SAPE  H12B16173   6.385   6.258  10.746  0.3493 -1.9880  0.7791
  147SAPE   C1116174   6.599   6.333  10.705  0.4621 -0.8270 -1.2061
  147SAPE  H11A16175   6.565   6.438  10.690 -1.5030 -1.2417  0.1652
  147SAPE  H11B16176   6.598   6.273  10.612 -0.7132  0.7636 -2.2435
  147SAPE     P16177   6.847   6.410  10.715  0.3818  0.0807 -0.2359
  147SAPE   O1316178   6.816   6.546  10.665 -0.4921  0.3642  0.3045
  147SAPE   O1416179   6.952   6.397  10.811  0.0555 -0.2408  1.0879
  147SAPE   O1216180   6.723   6.335  10.773  0.5796  0.2453  0.6219
  147SAPE   O1116181   6.876   6.327  10.579 -0.0144  0.6843  0.7243
  147SAPE    C116182   6.916   6.195  10.589  0.7526 -0.3475  0.6056
  147SAPE    HA16183   6.963   6.173  10.688  0.8479 -3.1981 -0.0219
  147SAPE    HB16184   6.822   6.136  10.580  0.5071  0.1555 -0.0675
  147SAPE    C216185   7.029   6.162  10.485 -0.1086 -0.0625  0.5905
  147SAPE    HS16186   7.121   6.218  10.513 -1.7586  2.3505  1.3486
  147SAPE   O2116187   6.980   6.202  10.353 -0.2426 -0.1106 -0.6996
  147SAPE   C2116188   7.080   6.253  10.277  1.0449  0.8070 -0.0041
  147SAPE   O2216189   7.198   6.260  10.299 -0.1272  0.6939 -0.4083
  147SAPE   C2216190   7.019   6.286  10.141 -0.6054 -0.6835  0.6579
  147SAPE   H2R16191   7.043   6.204  10.070 -2.4318 -2.6546  2.2569
  147SAPE   H2S16192   6.909   6.300  10.145 -0.3903  0.7740  1.5729
  147SAPE    C316193   7.046   6.006  10.490  0.3948 -0.8198 -0.1419
  147SAPE    HX16194   6.945   5.959  10.481 -0.8375  1.7612 -0.3704
  147SAPE    HY16195   7.080   5.979  10.592 -0.9949 -0.4918  0.4247
  147SAPE   O3116196   7.145   5.967  10.396 -0.2430  0.3935 -0.1712
  147SAPE   C3116197   7.123   5.870  10.320 -0.4177  0.6227  0.7419
  147SAPE   O3216198   7.020   5.803  10.317 -0.3056 -0.6985 -0.2004
  147SAPE   C3216199   7.222   5.877  10.206  0.0976  0.0488 -0.1762
  147SAPE   H2X16200   7.326   5.876  10.244 -0.0400 -0.5660  0.2043
  147SAPE   H2Y16201   7.214   5.977  10.159  1.0261 -0.7057 -1.9701
  147SAPE   C2316202   7.098   6.412  10.087 -0.4128 -0.3085 -0.7260
  147SAPE   H3R16203   7.200   6.375  10.064  0.3601  0.0692  1.9147
  147SAPE   H3S16204   7.102   6.495  10.161  0.1339 -1.9418  1.1016
  147SAPE   C2416205   7.032   6.469   9.958  0.3493  0.4107  0.3392
  147SAPE   H4R16206   6.931   6.506   9.988  0.9367  0.8699  1.7994
  147SAPE   H4S16207   7.010   6.380   9.896  1.1158  0.5663 -0.1533
  147SAPE   C2516208   7.112   6.579   9.889 -0.3046  0.2381 -0.7504
  147SAPE   H5R16209   7.119   6.674   9.945 -1.8278 -0.8232  1.3429
  147SAPE   C2616210   7.160   6.575   9.766 -0.4894 -0.0139  0.2778
  147SAPE   H6R16211   7.208   6.663   9.722 -1.4322  0.3439 -0.0620
  147SAPE   C2716212   7.154   6.457   9.672  0.5810 -0.2314 -0.2592
  147SAPE   H7R16213   7.126   6.510   9.578 -0.3612  0.5569  0.4573
  147SAPE   H7S16214   7.075   6.384   9.697 -0.3348  0.3916 -1.2673
  147SAPE   C2816215   7.290   6.394   9.643  0.1983 -0.4894  0.0576
  147SAPE   H8R16216   7.345   6.364   9.733 -0.8105  0.3433  0.9692
  147SAPE   C2916217   7.342   6.359   9.525  0.0829 -0.5358 -0.2774
  147SAPE   H9R16218   7.438   6.305   9.525  2.3353  3.2348  1.7209
  147SAPE  C21016219   7.290   6.383   9.385  0.1957 -0.7126 -0.3412
  147SAPE  H10R16220   7.346   6.467   9.339 -0.8899 -0.0337 -0.4324
  147SAPE  H10S16221   7.181   6.402   9.381  0.1872 -0.9300 -1.1451
  147SAPE  C21116222   7.319   6.261   9.303  0.1137  0.2421  0.3625
  147SAPE  H11R16223   7.422   6.225   9.318 -0.1270 -1.5975 -2.0979
  147SAPE  C21216224   7.234   6.194   9.224 -0.0663 -0.4351 -0.9217
  147SAPE  H12R16225   7.267   6.108   9.165  0.7594 -1.0299  0.3693
  147SAPE  C21316226   7.089   6.233   9.200 -0.3328  0.2468  0.3912
  147SAPE  H13R16227   7.064   6.336   9.233 -1.5923  0.3749 -0.8941
  147SAPE  H13S16228   7.025   6.170   9.267  1.4142 -1.1233  0.8035
  147SAPE  C21416229   7.051   6.217   9.054  0.5490  0.0495 -0.5182
  147SAPE  H14R16230   7.124   6.266   8.988 -0.7328  1.9099 -0.5729
  147SAPE  C21516231   6.972   6.127   8.993 -0.3830  0.2604  0.3135
  147SAPE  H15R16232   6.952   6.131   8.884 -2.5500  0.5812  0.6904
  147SAPE  C21616233   6.906   6.008   9.056  0.4908 -0.0990  0.4769
  147SAPE  H16R16234   6.803   6.038   9.085  1.2185  0.8189  2.2034
  147SAPE  H16S16235   6.964   5.983   9.148  1.1054 -0.0720  0.0981
  147SAPE  C21716236   6.911   5.880   8.974 -0.0534 -0.4093 -0.5090
  147SAPE  H17R16237   7.015   5.843   8.978  0.0006 -0.5669 -2.6808
  147SAPE  H17S16238   6.866   5.900   8.874 -2.2711 -0.9096  0.3518
  147SAPE  C21816239   6.822   5.773   9.033  0.7553  0.8345  0.0856
  147SAPE  H18R16240   6.713   5.786   9.018  0.7346  1.1135  0.4558
  147SAPE  H18S16241   6.847   5.765   9.141  2.6107 -2.5421 -0.5415
  147SAPE  C21916242   6.844   5.624   8.980 -0.4970  0.0660  0.1922
  147SAPE  H19R16243   6.785   5.562   9.051 -0.1972 -1.7409 -1.1036
  147SAPE  H19S16244   6.951   5.596   8.967 -1.2588 -2.1068 -1.8149
  147SAPE  C22016245   6.789   5.604   8.842  0.4230  0.0995  0.4233
  147SAPE  H20R16246   6.854   5.647   8.763  0.5800  0.7354  0.8943
  147SAPE  H20S16247   6.687   5.644   8.821  0.1828 -0.3249  0.7961
  147SAPE  H20T16248   6.794   5.495   8.820  1.6300  0.6759 -2.5056
  147SAPE   C3316249   7.206   5.758  10.108  0.4878 -0.1460  0.6202
  147SAPE   H3X16250   7.102   5.746  10.072  1.5412 -0.6489 -2.3779
  147SAPE   H3Y16251   7.234   5.663  10.158  0.0702  0.0677  1.2740
  147SAPE   C3416252   7.285   5.773   9.981 -0.0774 -0.4260  0.3530
  147SAPE   H4X16253   7.394   5.767  10.002 -0.0908  0.6137  0.7620
  147SAPE   H4Y16254   7.266   5.866   9.924 -0.6852  0.2490  1.6132
  147SAPE   C3516255   7.266   5.654   9.887 -1.1985 -0.0362 -0.0775
  147SAPE   H5X16256   7.179   5.652   9.818  0.8663  2.1032 -2.8755
  147SAPE   H5Y16257   7.264   5.562   9.949 -0.9302  0.7158  1.0483
  147SAPE   C3616258   7.381   5.642   9.786 -0.1217 -0.1826  0.7129
  147SAPE   H6X16259   7.482   5.641   9.834  0.0508  0.5967  0.3724
  147SAPE   H6Y16260   7.365   5.726   9.715 -0.3333 -1.2685 -0.5267
  147SAPE   C3716261   7.370   5.523   9.696  0.0406 -0.6398 -0.0425
  147SAPE   H7X16262   7.265   5.509   9.661 -1.0649  0.7329  2.6178
  147SAPE   H7Y16263   7.379   5.433   9.760 -0.2565 -0.7931 -0.2176
  147SAPE   C3816264   7.471   5.510   9.588  0.2192  0.8567 -0.2416
  147SAPE   H8X16265   7.577   5.503   9.621  0.8442  0.1489 -2.3701
  147SAPE   H8Y16266   7.464   5.600   9.522  0.3365  1.7167  0.8931
  147SAPE   C3916267   7.453   5.387   9.494  0.5283  0.4374  0.6597
  147SAPE   H9X16268   7.356   5.410   9.445 -0.7877  0.2606  3.0929
  147SAPE   H9Y16269   7.436   5.290   9.547  1.4492 -0.7470 -1.1606
  147SAPE  C31016270   7.573   5.360   9.398  0.1221  0.0565  0.3963
  147SAPE  H10X16271   7.667   5.348   9.457  0.4276 -3.2492 -0.6496
  147SAPE  H10Y16272   7.584   5.457   9.346  0.3469  0.5005  1.2649
  147SAPE  C31116273   7.558   5.235   9.303 -0.1319 -0.3175  0.2628
  147SAPE  H11X16274   7.479   5.246   9.226  0.5557  0.6194 -0.3168
  147SAPE  H11Y16275   7.522   5.150   9.365 -2.7425 -0.6989 -1.6820
  147SAPE  C31216276   7.683   5.192   9.222  0.4464 -0.1212 -0.4040
  147SAPE  H12X16277   7.768   5.214   9.289 -0.7016  2.2157  0.3471
  147SAPE  H12Y16278   7.699   5.256   9.131  0.4992  0.4188 -0.0203
  147SAPE  C31316279   7.675   5.043   9.180 -0.0818 -0.0288  0.7625
  147SAPE  H13X16280   7.586   5.019   9.118  0.6417  0.6104 -0.5450
  147SAPE  H13Y16281   7.656   4.989   9.274  0.0400  0.0065  0.8098
  147SAPE  C31416282   7.796   4.984   9.105 -0.7722 -0.1276  0.3862
  147SAPE  H14X16283   7.792   4.873   9.107 -0.6595 -0.1498 -0.6149
  147SAPE  H14Y16284   7.891   5.019   9.151 -0.7007  0.1571  0.0214
  147SAPE  C31516285   7.803   5.037   8.961 -0.6045 -0.5424 -0.1034
  147SAPE  H15X16286   7.776   5.145   8.966  0.9784 -0.0555 -1.8954
  147SAPE  H15Y16287   7.729   4.983   8.898 -1.2644 -1.2217  1.2319
  147SAPE  C31616288   7.943   5.020   8.903  0.3046 -0.0070  0.1007
  147SAPE  H16X16289   7.983   4.921   8.933 -1.3456 -0.5716  0.4978
  147SAPE  H16Y16290   8.019   5.093   8.938  0.0738  0.4673 -0.3709
  147SAPE  C31716291   7.934   5.011   8.755 -0.1253  0.1188  0.5491
  147SAPE  H17X16292   8.035   5.026   8.712 -0.9462  0.9077 -1.1783
  147SAPE  H17Y16293   7.879   5.092   8.701 -2.1096 -1.2368  0.4522
  147SAPE  C31816294   7.877   4.883   8.697 -0.2667 -0.3151 -0.6467
  147SAPE  H18X16295   7.775   4.858   8.731 -1.0828  1.8697 -1.4242
  147SAPE  H18Y16296   7.940   4.794   8.720  2.6748  1.3467 -2.0017
  147SAPE  H18Z16297   7.871   4.890   8.586  0.7914  0.1982 -0.6822
  148SAPE     N16298   2.260   2.311  10.687 -0.5100  0.0871 -0.8863
  148SAPE   HN116299   2.256   2.369  10.773  2.2075 -0.8034 -0.1252
  148SAPE   HN216300   2.362   2.309  10.665  0.3811 -0.1365  2.9420
  148SAPE   HN316301   2.206   2.347  10.605 -1.4395 -0.9164 -0.7156
  148SAPE   C1216302   2.213   2.171  10.717 -0.9741  0.4860 -0.0976
  148SAPE  H12A16303   2.149   2.180  10.807 -2.5656  0.0006 -1.1553
  148SAPE  H12B16304   2.303   2.118  10.755 -0.9996  0.1486 -0.5013
  148SAPE   C1116305   2.152   2.116  10.588 -0.5933 -0.1845  0.0860
  148SAPE  H11A16306   2.115   2.013  10.607  0.5143 -0.8078 -1.1016
  148SAPE  H11B16307   2.234   2.107  10.515  0.2421 -0.4522  1.0436
  148SAPE     P16308   1.900   2.181  10.555 -0.2847  0.1664 -0.2858
  148SAPE   O1316309   1.865   2.195  10.697  0.2923 -0.4162  0.7183
  148SAPE   O1416310   1.832   2.261  10.453  0.1579 -0.4739  0.7314
  148SAPE   O1216311   2.055   2.206  10.539  0.0508  0.0727  0.1719
  148SAPE   O1116312   1.878   2.027  10.519  0.2242 -0.6372  0.9431
  148SAPE    C116313   1.902   1.964  10.388 -0.5311 -0.7659 -1.0489
  148SAPE    HA16314   1.946   2.040  10.320 -0.0675  2.5105  2.6737
  148SAPE    HB16315   1.969   1.879  10.410  1.2313  1.4037  2.3261
  148SAPE    C216316   1.765   1.923  10.319  0.6401 -0.0889  0.1235
  148SAPE    HS16317   1.790   1.875  10.221 -1.8337  1.3247 -1.2566
  148SAPE   O2116318   1.678   2.031  10.288 -0.1157  0.4943  0.0146
  148SAPE   C2116319   1.722   2.122  10.205 -0.4710  0.9994 -0.1597
  148SAPE   O2216320   1.828   2.118  10.139 -0.0334 -0.3870  0.6156
  148SAPE   C2216321   1.620   2.233  10.202  0.7584 -0.7804 -0.5916
  148SAPE   H2R16322   1.568   2.253  10.298  1.5922 -2.3667  0.2173
  148SAPE   H2S16323   1.674   2.325  10.170  2.1464 -0.2935  2.9305
  148SAPE    C316324   1.685   1.824  10.411  0.7139 -0.2125  0.2614
  148SAPE    HX16325   1.625   1.887  10.481 -1.6889 -1.4940 -0.6049
  148SAPE    HY16326   1.758   1.762  10.467 -0.3167 -0.1727  1.6620
  148SAPE   O3116327   1.596   1.735  10.338  0.6089 -0.0075 -0.0638
  148SAPE   C3116328   1.467   1.758  10.334  1.0273  1.0776 -0.6977
  148SAPE   O3216329   1.416   1.849  10.399 -0.2255  0.4822 -0.1554
  148SAPE   C3216330   1.411   1.656  10.237  0.1782  0.9513  0.6080
  148SAPE   H2X16331   1.303   1.632  10.247  0.0568  1.5263  0.7280
  148SAPE   H2Y16332   1.457   1.558  10.262 -1.7067 -0.0953  0.0213
  148SAPE   C2316333   1.523   2.198  10.087  0.3483 -0.5347  0.1249
  148SAPE   H3R16334   1.431   2.261  10.094  0.3057 -0.7854  2.1359
  148SAPE   H3S16335   1.485   2.094  10.098 -1.4807  0.1111  0.1902
  148SAPE   C2416336   1.582   2.226   9.951  0.6848 -0.7215  0.1692
  148SAPE   H4R16337   1.674   2.169   9.926  1.2805 -0.0774  0.8616
  148SAPE   H4S16338   1.615   2.332   9.944 -1.3073 -0.1055 -0.3080
  148SAPE   C2516339   1.479   2.191   9.846 -0.3269 -0.8266 -0.3704
  148SAPE   H5R16340   1.377   2.223   9.871 -0.1237  0.3924 -1.0843
  148SAPE   C2616341   1.493   2.141   9.722  0.1574  0.7803 -0.7654
  148SAPE   H6R16342   1.404   2.136   9.658 -1.4374  0.3063  1.4577
  148SAPE   C2716343   1.624   2.081   9.660 -0.1990  0.3081  0.2819
  148SAPE   H7R16344   1.600   1.984   9.612  0.1881  0.2926  0.1176
  148SAPE   H7S16345   1.713   2.074   9.725  0.0772 -0.6460 -0.1948
  148SAPE   C2816346   1.661   2.170   9.546  0.4601  0.5343  0.0491
  148SAPE   H8R16347   1.702   2.266   9.580  2.0930 -0.5702  1.2160
  148SAPE   C2916348   1.650   2.148   9.413 -0.3375 -0.7920  0.4144
  148SAPE   H9R16349   1.675   2.225   9.338 -0.6120 -2.3053 -1.2717
  148SAPE  C21016350   1.588   2.026   9.347 -0.0991  0.0439  0.5643
  148SAPE  H10R16351   1.506   2.068   9.284 -0.3776  0.2313  1.0508
  148SAPE  H10S16352   1.532   1.969   9.423 -0.0526 -0.8652 -0.0777
  148SAPE  C21116353   1.696   1.943   9.283  0.1875 -0.3291 -0.2163
  148SAPE  H11R16354   1.782   1.938   9.352  0.5529  0.3045 -0.6313
  148SAPE  C21216355   1.709   1.878   9.170  0.6997  0.7804  1.1786
  148SAPE  H12R16356   1.801   1.822   9.149 -0.0934 -0.8809  1.9895
  148SAPE  C21316357   1.607   1.881   9.058 -0.0539 -0.4064  0.4111
  148SAPE  H13R16358   1.608   1.985   9.019  1.1385 -0.2708  0.7754
  148SAPE  H13S16359   1.513   1.829   9.086  0.2012 -0.0558  1.9901
  148SAPE  C21416360   1.639   1.787   8.939 -0.0632 -0.1466  0.2267
  148SAPE  H14R16361   1.583   1.693   8.925  0.5645 -0.2700 -1.5305
  148SAPE  C21516362   1.731   1.815   8.843  0.3414 -0.7813 -0.6652
  148SAPE  H15R16363   1.736   1.741   8.762 -0.2196 -0.7313 -0.7483
  148SAPE  C21616364   1.824   1.931   8.836  0.5058  0.3995  0.0638
  148SAPE  H16R16365   1.914   1.905   8.896 -0.6724 -1.4362  1.1082
  148SAPE  H16S16366   1.780   2.025   8.876 -1.6734 -0.4823 -0.1832
  148SAPE  C21716367   1.863   1.949   8.691  0.6542  0.0325  1.0023
  148SAPE  H17R16368   1.771   1.961   8.630  0.7016  1.1558  1.1565
  148SAPE  H17S16369   1.898   1.855   8.641 -0.6207  0.2537 -0.3316
  148SAPE  C21816370   1.941   2.071   8.655  0.4200  0.2073 -0.1110
  148SAPE  H18R16371   2.044   2.049   8.690 -0.7887 -3.1482  1.5453
  148SAPE  H18S16372   1.912   2.172   8.691 -0.3921 -0.1091  0.1349
  148SAPE  C21916373   1.945   2.091   8.500 -0.1700 -0.1981 -0.2459
  148SAPE  H19R16374   1.840   2.091   8.463 -1.3085 -3.9578  2.6581
  148SAPE  H19S16375   1.993   2.000   8.459 -0.0398  0.3980 -1.4257
  148SAPE  C22016376   2.028   2.205   8.450  0.1173  0.5120 -0.4217
  148SAPE  H20R16377   1.960   2.292   8.461 -1.4078 -0.6109 -0.9346
  148SAPE  H20S16378   2.048   2.192   8.342 -0.6980  1.6940 -0.7186
  148SAPE  H20T16379   2.124   2.230   8.501  1.3653 -0.2203 -2.3533
  148SAPE   C3316380   1.436   1.698  10.084 -0.4703 -0.1809  0.1912
  148SAPE   H3X16381   1.430   1.601  10.029  4.0085 -0.9967  0.9107
  148SAPE   H3Y16382   1.539   1.739  10.070 -1.4662  1.6152 -2.3693
  148SAPE   C3416383   1.320   1.792  10.024  0.2668 -0.4445  0.1412
  148SAPE   H4X16384   1.320   1.880  10.092 -1.2042  0.2248 -0.6956
  148SAPE   H4Y16385   1.225   1.742  10.052  0.3247 -0.9841 -0.6129
  148SAPE   C3516386   1.344   1.826   9.872  0.6308  0.4003 -0.0578
  148SAPE   H5X16387   1.432   1.892   9.857 -0.6179  1.9682 -0.6247
  148SAPE   H5Y16388   1.257   1.884   9.834 -1.2365 -0.5452  2.6243
  148SAPE   C3616389   1.353   1.709   9.779  0.5894 -0.2273  0.0862
  148SAPE   H6X16390   1.249   1.674   9.761  1.2985 -0.9645 -2.8195
  148SAPE   H6Y16391   1.411   1.624   9.823 -0.6143 -1.0431  0.1339
  148SAPE   C3716392   1.406   1.735   9.637 -0.2605  0.5833 -0.7921
  148SAPE   H7X16393   1.509   1.774   9.646 -0.8325  2.1613 -0.9281
  148SAPE   H7Y16394   1.353   1.824   9.595  1.9003  2.2560 -0.0664
  148SAPE   C3816395   1.417   1.608   9.549  0.0492 -0.0567 -0.1649
  148SAPE   H8X16396   1.313   1.568   9.547 -0.4634  1.2684 -0.9247
  148SAPE   H8Y16397   1.484   1.526   9.581  0.6523 -0.7049 -2.9407
  148SAPE   C3916398   1.451   1.644   9.407  0.0166 -0.0806  0.1125
  148SAPE   H9X16399   1.546   1.701   9.409  0.4288 -0.8020  1.8009
  148SAPE   H9Y16400   1.377   1.719   9.372 -2.5962 -2.8466 -0.5457
  148SAPE  C31016401   1.447   1.522   9.316  0.1268 -0.0708  0.5466
  148SAPE  H10X16402   1.352   1.471   9.343 -0.3902  0.2597 -0.6207
  148SAPE  H10Y16403   1.533   1.456   9.339 -1.9413 -3.3758 -0.9025
  148SAPE  C31116404   1.443   1.553   9.164  0.4511  0.0816 -0.6762
  148SAPE  H11X16405   1.529   1.618   9.140 -0.1366  1.4264  0.7961
  148SAPE  H11Y16406   1.345   1.604   9.150 -0.0573 -0.6245  0.2182
  148SAPE  C31216407   1.451   1.418   9.090 -0.4854 -0.4596 -0.2868
  148SAPE  H12X16408   1.533   1.348   9.120 -0.3516 -0.4531 -0.6334
  148SAPE  H12Y16409   1.486   1.445   8.989  0.2954  0.7020  0.2857
  148SAPE  C31316410   1.322   1.340   9.076  0.3735  0.2388  0.3189
  148SAPE  H13X16411   1.240   1.416   9.082 -0.1845 -0.4352  1.5096
  148SAPE  H13Y16412   1.293   1.278   9.164  1.1924  0.1945  0.5557
  148SAPE  C31416413   1.320   1.253   8.947 -0.7511 -0.3176 -0.1997
  148SAPE  H14X16414   1.404   1.180   8.951  1.0421  1.6434 -1.2934
  148SAPE  H14Y16415   1.341   1.310   8.855  0.3595  1.4699  1.1257
  148SAPE  C31516416   1.191   1.179   8.926  0.7702 -0.0560  0.7527
  148SAPE  H15X16417   1.169   1.100   9.002 -1.6488 -0.7379 -0.6030
  148SAPE  H15Y16418   1.207   1.121   8.832 -2.1947 -1.8772  1.3151
  148SAPE  C31616419   1.066   1.268   8.922 -0.2734  0.0169 -0.0602
  148SAPE  H16X16420   1.104   1.366   8.885  3.0725 -0.0138  3.1108
  148SAPE  H16Y16421   1.037   1.300   9.024 -0.1679 -1.7420  0.5285
  148SAPE  C31716422   0.941   1.224   8.851 -0.5316  0.9020  0.1099
  148SAPE  H17X16423   0.880   1.316   8.856 -0.5206  0.9095  0.1044
  148SAPE  H17Y16424   0.885   1.148   8.909  1.3934 -0.9695 -0.4177
  148SAPE  C31816425   0.971   1.176   8.708  0.6044  0.5124  0.3049
  148SAPE  H18X16426   0.877   1.148   8.657  0.1005  2.3067  0.2137
  148SAPE  H18Y16427   1.031   1.083   8.700  0.1693  0.2234  0.4159
  148SAPE  H18Z16428   1.023   1.255   8.650  1.2686 -0.4561 -0.4261
  149SAPE     N16429   3.812   4.581  10.956 -0.2770  0.0767  0.1321
  149SAPE   HN116430   3.894   4.610  10.900 -0.7848  4.3609  1.4705
  149SAPE   HN216431   3.729   4.624  10.910 -0.7755 -1.0693 -0.0632
  149SAPE   HN316432   3.827   4.628  11.047  0.4554 -2.3116  1.2956
  149SAPE   C1216433   3.792   4.431  10.939 -0.3775  0.1990 -0.0515
  149SAPE  H12A16434   3.687   4.408  10.912 -0.7083  4.7543 -3.0252
  149SAPE  H12B16435   3.825   4.386  11.035 -1.3720 -1.4902 -0.4699
  149SAPE   C1116436   3.900   4.386  10.834  0.8908  0.0593  0.1133
  149SAPE  H11A16437   3.882   4.441  10.739 -1.0152  1.3415  1.1901
  149SAPE  H11B16438   3.890   4.279  10.806 -0.0436  0.3859 -0.8311
  149SAPE     P16439   4.126   4.331  10.954 -0.4159 -0.2267 -0.3445
  149SAPE   O1316440   4.109   4.354  11.099 -0.1473 -0.1362 -0.3477
  149SAPE   O1416441   4.109   4.194  10.915  0.0651  1.1353  0.8994
  149SAPE   O1216442   4.032   4.423  10.872  0.2859 -0.2904 -0.4080
  149SAPE   O1116443   4.266   4.382  10.907  0.1082  0.0527  0.0591
  149SAPE    C116444   4.292   4.446  10.785  0.0093 -0.1324 -0.0629
  149SAPE    HA16445   4.214   4.507  10.736  1.2069 -0.2325 -2.1531
  149SAPE    HB16446   4.369   4.525  10.802 -1.4060  1.6425 -1.7200
  149SAPE    C216447   4.341   4.352  10.673 -0.2454 -0.8104 -0.6666
  149SAPE    HS16448   4.403   4.405  10.597  1.1538 -2.7585 -0.9198
  149SAPE   O2116449   4.224   4.285  10.612  0.4194  0.8773  0.1552
  149SAPE   C2116450   4.170   4.341  10.506  0.2853  0.4924  0.2976
  149SAPE   O2216451   4.197   4.453  10.465  0.2113 -0.0130 -0.1231
  149SAPE   C2216452   4.072   4.254  10.434 -0.5034  0.6643  0.3530
  149SAPE   H2R16453   4.092   4.146  10.454  2.4352  0.9698 -0.7671
  149SAPE   H2S16454   3.969   4.281  10.466 -0.3729  0.9955  0.4955
  149SAPE    C316455   4.436   4.241  10.736 -0.4776  0.1840 -0.1364
  149SAPE    HX16456   4.381   4.159  10.788  1.7827 -2.0923 -1.2157
  149SAPE    HY16457   4.502   4.291  10.811 -0.2388 -1.8234  1.0478
  149SAPE   O3116458   4.527   4.186  10.633 -0.7203 -0.7560  0.4979
  149SAPE   C3116459   4.497   4.080  10.570 -0.1838  0.0693  0.0805
  149SAPE   O3216460   4.386   4.028  10.571 -0.4081  0.0735 -0.2564
  149SAPE   C3216461   4.614   4.026  10.486 -0.0625 -0.2832 -0.3746
  149SAPE   H2X16462   4.636   3.923  10.520 -3.1587 -1.5054 -1.9386
  149SAPE   H2Y16463   4.696   4.099  10.505  0.6925 -1.6759  1.8371
  149SAPE   C2316464   4.089   4.280  10.282  0.9402 -0.0468 -0.2582
  149SAPE   H3R16465   4.194   4.257  10.257  0.7008  0.9532 -2.3143
  149SAPE   H3S16466   4.066   4.387  10.259  0.0852  0.0060  0.7763
  149SAPE   C2416467   3.999   4.186  10.196 -0.3676  0.4492  0.2305
  149SAPE   H4R16468   3.892   4.216  10.202 -0.0752  3.0550 -4.5578
  149SAPE   H4S16469   4.014   4.082  10.231  1.2151  0.3920 -0.5598
  149SAPE   C2516470   4.040   4.187  10.054  0.3715 -0.1029  1.0352
  149SAPE   H5R16471   4.132   4.135  10.022 -1.9176 -2.7572 -1.4071
  149SAPE   C2616472   3.988   4.254   9.956 -0.6659 -0.4821 -0.8555
  149SAPE   H6R16473   4.040   4.245   9.859 -0.6656 -1.0038 -0.8062
  149SAPE   C2716474   3.870   4.345   9.956  0.5277 -0.4267  0.4622
  149SAPE   H7R16475   3.908   4.449   9.951 -1.4683  0.3780  1.4085
  149SAPE   H7S16476   3.817   4.336  10.053  0.5356  2.2601  0.7477
  149SAPE   C2816477   3.773   4.334   9.839 -0.3953  0.4905  0.2018
  149SAPE   H8R16478   3.677   4.284   9.856  0.4178 -0.8031  1.1181
  149SAPE   C2916479   3.798   4.375   9.705  0.0167  0.5374 -0.2423
  149SAPE   H9R16480   3.720   4.357   9.630  0.2687 -1.2109 -0.1146
  149SAPE  C21016481   3.923   4.439   9.655  0.1536  0.1190  0.1411
  149SAPE  H10R16482   4.002   4.432   9.732 -0.4545  3.1338  1.1103
  149SAPE  H10S16483   3.889   4.545   9.646 -1.1533 -0.3216 -0.2431
  149SAPE  C21116484   3.966   4.394   9.517 -0.2176  0.1157  0.3491
  149SAPE  H11R16485   4.060   4.337   9.522  1.6070  3.1427  2.6277
  149SAPE  C21216486   3.923   4.426   9.396 -0.5642  0.3234  0.2791
  149SAPE  H12R16487   3.965   4.369   9.312  1.1891 -1.9209  2.6010
  149SAPE  C21316488   3.812   4.525   9.358 -0.6785 -0.0986  0.1288
  149SAPE  H13R16489   3.845   4.594   9.277  0.2948 -0.6896  0.0077
  149SAPE  H13S16490   3.774   4.584   9.444 -2.0157 -1.3884  0.4406
  149SAPE  C21416491   3.687   4.448   9.315 -0.1513  0.5149  0.5272
  149SAPE  H14R16492   3.621   4.429   9.401 -0.4323 -1.1390 -0.0177
  149SAPE  C21516493   3.646   4.401   9.194  0.9329 -0.5203  0.3045
  149SAPE  H15R16494   3.542   4.372   9.174  0.2174  1.6150  0.8098
  149SAPE  C21616495   3.730   4.420   9.073 -0.6240  0.6421 -0.1852
  149SAPE  H16R16496   3.791   4.327   9.065 -0.3466  0.7521  0.5465
  149SAPE  H16S16497   3.799   4.506   9.086 -0.9973  0.9233 -0.0529
  149SAPE  C21716498   3.653   4.439   8.938  0.0130  0.5754 -0.2079
  149SAPE  H17R16499   3.726   4.444   8.854  0.6515 -2.5761  0.0909
  149SAPE  H17S16500   3.600   4.537   8.937  0.3197  0.7466 -2.9894
  149SAPE  C21816501   3.561   4.332   8.886 -1.0844 -0.2411 -0.0791
  149SAPE  H18R16502   3.462   4.318   8.935 -0.4603  1.0835  1.6387
  149SAPE  H18S16503   3.613   4.237   8.909  0.3100  0.2675 -1.0600
  149SAPE  C21916504   3.538   4.326   8.732 -0.0193 -0.2480  0.4811
  149SAPE  H19R16505   3.484   4.232   8.711 -0.0213  0.0022 -0.6897
  149SAPE  H19S16506   3.641   4.334   8.691 -0.4580  0.4130 -0.5199
  149SAPE  C22016507   3.458   4.441   8.681  0.4984 -0.5113 -0.0845
  149SAPE  H20R16508   3.510   4.532   8.717 -1.1486  0.6027 -0.4680
  149SAPE  H20S16509   3.354   4.440   8.720 -0.4258  3.2039 -2.1612
  149SAPE  H20T16510   3.442   4.435   8.571  1.5548 -0.1060 -0.2661
  149SAPE   C3316511   4.583   4.016  10.332  0.0633  0.1392  0.4401
  149SAPE   H3X16512   4.498   3.947  10.314  2.0262 -1.8941 -1.3561
  149SAPE   H3Y16513   4.671   3.973  10.281 -0.4678 -0.2496 -0.1577
  149SAPE   C3416514   4.562   4.150  10.264 -0.0851  0.8020 -0.6772
  149SAPE   H4X16515   4.655   4.211  10.269 -0.0721  0.6306  1.3769
  149SAPE   H4Y16516   4.483   4.210  10.314 -1.7562 -0.9515 -1.1647
  149SAPE   C3516517   4.520   4.117  10.117 -0.1822 -0.6319 -0.7318
  149SAPE   H5X16518   4.433   4.048  10.111 -0.4703 -0.2343 -1.2014
  149SAPE   H5Y16519   4.608   4.067  10.069  0.4980 -0.3359  0.1976
  149SAPE   C3616520   4.480   4.238  10.033 -0.3152  0.2015 -0.3815
  149SAPE   H6X16521   4.557   4.313  10.004  1.9990 -2.4249 -1.2842
  149SAPE   H6Y16522   4.411   4.292  10.101 -1.8026  0.0854 -1.7817
  149SAPE   C3716523   4.421   4.205   9.899 -0.3466 -0.0030 -0.1541
  149SAPE   H7X16524   4.334   4.140   9.920 -0.8298  0.6499 -0.1303
  149SAPE   H7Y16525   4.496   4.146   9.842  0.3395  0.0123  0.7380
  149SAPE   C3816526   4.373   4.315   9.809  0.5907 -0.7281  0.4012
  149SAPE   H8X16527   4.435   4.402   9.838  2.3359 -2.2931  1.5072
  149SAPE   H8Y16528   4.266   4.331   9.831  0.6423  1.5720 -0.8579
  149SAPE   C3916529   4.396   4.290   9.662  0.0465  0.4254 -0.2118
  149SAPE   H9X16530   4.319   4.214   9.636  1.0134 -0.3935 -0.7123
  149SAPE   H9Y16531   4.497   4.248   9.642  0.0897 -0.6261  2.0852
  149SAPE  C31016532   4.382   4.416   9.570  0.6012 -0.0695  0.5095
  149SAPE  H10X16533   4.454   4.486   9.617  0.7449  0.8914 -1.0976
  149SAPE  H10Y16534   4.282   4.458   9.590  0.9382  1.1649 -0.3300
  149SAPE  C31116535   4.415   4.397   9.421  0.2226 -0.1614 -0.0478
  149SAPE  H11X16536   4.513   4.345   9.415 -0.1940 -1.0987  1.0994
  149SAPE  H11Y16537   4.423   4.493   9.366 -1.5261 -0.4746 -0.8808
  149SAPE  C31216538   4.302   4.310   9.362 -0.2253  0.0053  0.4707
  149SAPE  H12X16539   4.208   4.369   9.355  0.0046  0.5570  1.9278
  149SAPE  H12Y16540   4.278   4.229   9.433  1.5927  0.1081  1.2498
  149SAPE  C31316541   4.337   4.259   9.217  0.3532  0.9877 -0.2297
  149SAPE  H13X16542   4.393   4.163   9.216 -0.9694  0.1695  1.7362
  149SAPE  H13Y16543   4.400   4.327   9.155  0.3219  0.1597 -1.1749
  149SAPE  C31416544   4.204   4.242   9.144  0.0398 -0.0246  0.0203
  149SAPE  H14X16545   4.158   4.342   9.132  1.1149  0.4183 -0.5169
  149SAPE  H14Y16546   4.143   4.167   9.199  2.0947 -1.8664 -0.1386
  149SAPE  C31516547   4.222   4.182   9.001  0.5183  0.1722 -0.1381
  149SAPE  H15X16548   4.256   4.077   9.011  1.4965  0.7168  2.5797
  149SAPE  H15Y16549   4.303   4.240   8.952  0.5315 -0.4585 -0.8623
  149SAPE  C31616550   4.093   4.169   8.916  0.0806 -0.0523  0.9588
  149SAPE  H16X16551   4.105   4.175   8.806 -2.6248 -1.3245  0.5574
  149SAPE  H16Y16552   4.027   4.257   8.935 -1.4634 -1.4088  2.0473
  149SAPE  C31716553   4.012   4.046   8.957 -1.2689 -0.3399 -0.9131
  149SAPE  H17X16554   4.001   4.054   9.067  1.0620 -2.0674 -0.5234
  149SAPE  H17Y16555   4.067   3.953   8.931  0.2071 -0.2075  1.5664
  149SAPE  C31816556   3.875   4.040   8.880 -0.0112  0.2429  0.1546
  149SAPE  H18X16557   3.900   4.035   8.772 -1.9593  0.9649 -0.3558
  149SAPE  H18Y16558   3.817   4.134   8.889 -0.2110  0.3571 -2.0833
  149SAPE  H18Z16559   3.806   3.958   8.910  0.9972 -0.6370  0.0827
  150SAPE     N16560   5.432   3.599  10.793 -0.2555 -0.1935  0.2968
  150SAPE   HN116561   5.380   3.567  10.878  3.4372  0.0651  2.7937
  150SAPE   HN216562   5.534   3.598  10.814 -0.2115 -1.2415  0.0562
  150SAPE   HN316563   5.413   3.690  10.747  3.4939 -0.6173 -2.3270
  150SAPE   C1216564   5.431   3.498  10.678 -0.1480  0.8335 -0.0794
  150SAPE  H12A16565   5.513   3.523  10.607  1.7291 -0.9947  1.4088
  150SAPE  H12B16566   5.324   3.496  10.647  0.4051 -0.7246 -2.0428
  150SAPE   C1116567   5.460   3.359  10.736  0.2259 -0.3998 -0.0193
  150SAPE  H11A16568   5.460   3.293  10.647 -2.1869 -1.5544  0.7754
  150SAPE  H11B16569   5.386   3.330  10.814  0.4776 -1.4102 -0.1581
  150SAPE     P16570   5.645   3.226  10.861  0.0053  0.1497  0.2664
  150SAPE   O1316571   5.791   3.232  10.866 -0.1298 -0.1815 -0.5793
  150SAPE   O1416572   5.579   3.207  10.994  0.6617  0.0540 -0.5125
  150SAPE   O1216573   5.591   3.357  10.788 -0.0300 -0.2530 -0.0935
  150SAPE   O1116574   5.604   3.113  10.758  0.5677  0.2955 -0.3642
  150SAPE    C116575   5.693   3.056  10.659 -0.4927 -0.1260  0.2405
  150SAPE    HA16576   5.801   3.057  10.688 -0.5834 -1.1232  0.6314
  150SAPE    HB16577   5.667   2.950  10.638 -3.1530  0.9033 -1.9463
  150SAPE    C216578   5.696   3.122  10.517 -0.0827 -0.2733 -0.2571
  150SAPE    HS16579   5.731   3.226  10.536  1.5963 -1.0650  1.1458
  150SAPE   O2116580   5.565   3.111  10.452 -0.0417  0.2393 -0.9491
  150SAPE   C2116581   5.524   3.207  10.376  0.1787 -0.0943 -0.4458
  150SAPE   O2216582   5.575   3.318  10.361 -0.0749  0.3895  0.1589
  150SAPE   C2216583   5.395   3.167  10.308 -0.0347 -0.4512 -0.7321
  150SAPE   H2R16584   5.326   3.114  10.376  0.1445  0.8966  0.5356
  150SAPE   H2S16585   5.350   3.265  10.279 -0.0109 -0.6411 -1.4254
  150SAPE    C316586   5.811   3.042  10.431  0.2959 -0.2632  0.0681
  150SAPE    HX16587   5.787   2.934  10.441 -0.6259 -0.0360  0.3858
  150SAPE    HY16588   5.909   3.050  10.482 -0.6826  1.7015  1.7280
  150SAPE   O3116589   5.803   3.077  10.294  0.2691  0.2396  0.2633
  150SAPE   C3116590   5.858   3.190  10.262 -1.0597 -0.1987  0.3840
  150SAPE   O3216591   5.950   3.253  10.315  0.1037 -0.8646 -0.5484
  150SAPE   C3216592   5.799   3.240  10.128 -0.1863 -0.3678  0.9264
  150SAPE   H2X16593   5.724   3.319  10.148  1.7396  1.6455  0.3677
  150SAPE   H2Y16594   5.753   3.152  10.079  1.3297 -0.7759  0.2082
  150SAPE   C2316595   5.417   3.096  10.172 -0.2876  1.0663 -0.9354
  150SAPE   H3R16596   5.478   3.003  10.181 -0.5222  0.7231 -2.7207
  150SAPE   H3S16597   5.472   3.166  10.106 -1.5888  0.3821 -2.7989
  150SAPE   C2416598   5.284   3.060  10.101  0.4055 -0.4706 -0.6470
  150SAPE   H4R16599   5.218   3.148  10.084  0.3509 -0.9487 -2.9963
  150SAPE   H4S16600   5.244   2.984  10.172 -2.0629  1.8830  0.5678
  150SAPE   C2516601   5.315   2.993   9.972  0.1011  0.7023 -0.1071
  150SAPE   H5R16602   5.312   2.883   9.964  2.2162  0.7170 -1.2565
  150SAPE   C2616603   5.360   3.049   9.858  0.0080  0.1671  0.7375
  150SAPE   H6R16604   5.372   2.981   9.772  0.2779 -1.9070  2.3660
  150SAPE   C2716605   5.376   3.197   9.830  0.4316 -1.1092 -0.0135
  150SAPE   H7R16606   5.482   3.231   9.823  1.0956 -2.2708  3.4416
  150SAPE   H7S16607   5.334   3.252   9.917  0.6033 -3.7685  1.8125
  150SAPE   C2816608   5.290   3.235   9.709 -0.1260  0.7182 -0.3841
  150SAPE   H8R16609   5.182   3.213   9.719  0.0713  0.2332  0.7197
  150SAPE   C2916610   5.328   3.307   9.601 -0.2381  0.1730  0.3608
  150SAPE   H9R16611   5.265   3.309   9.511 -0.2404  0.7549  0.3780
  150SAPE  C21016612   5.468   3.360   9.573  0.0551  0.1094  0.3888
  150SAPE  H10R16613   5.524   3.286   9.512 -0.8697  0.4420 -0.8768
  150SAPE  H10S16614   5.527   3.380   9.665 -1.4979 -3.4181  2.2453
  150SAPE  C21116615   5.449   3.495   9.512 -0.2495  0.3066  0.0871
  150SAPE  H11R16616   5.389   3.563   9.575  0.8768  1.0280  0.3846
  150SAPE  C21216617   5.464   3.525   9.380 -0.7896 -0.5059 -0.3990
  150SAPE  H12R16618   5.450   3.629   9.347  2.9413 -0.4855 -2.2468
  150SAPE  C21316619   5.517   3.433   9.274 -0.3487  0.0012 -0.4460
  150SAPE  H13R16620   5.542   3.332   9.312 -0.0097  0.9246  1.8873
  150SAPE  H13S16621   5.620   3.470   9.255  0.1812 -0.3859  1.5027
  150SAPE  C21416622   5.425   3.429   9.152 -0.1564 -0.0208 -0.2573
  150SAPE  H14R16623   5.340   3.361   9.161  1.1634 -1.3770  2.7494
  150SAPE  C21516624   5.436   3.513   9.043 -0.3411  0.6519 -0.4688
  150SAPE  H15R16625   5.360   3.491   8.967  1.9328  0.8066 -2.8242
  150SAPE  C21616626   5.546   3.620   9.028  0.3155 -0.0386  0.4671
  150SAPE  H16R16627   5.629   3.587   9.093  0.1115  1.2566  1.3912
  150SAPE  H16S16628   5.517   3.721   9.064  0.8485  0.5668 -0.7754
  150SAPE  C21716629   5.585   3.632   8.884 -0.0480  0.0240 -0.7290
  150SAPE  H17R16630   5.601   3.529   8.846 -0.2484 -0.6151  0.9038
  150SAPE  H17S16631   5.685   3.680   8.873  0.4113 -1.1072 -1.5617
  150SAPE  C21816632   5.493   3.697   8.787 -0.0809  0.5547  0.6301
  150SAPE  H18R16633   5.435   3.773   8.843 -1.5732  1.1956 -1.7275
  150SAPE  H18S16634   5.427   3.614   8.756  0.5748 -0.3312  1.5478
  150SAPE  C21916635   5.580   3.765   8.672  0.1189 -0.0006  0.3112
  150SAPE  H19R16636   5.645   3.848   8.705 -0.9578  1.1431 -0.3972
  150SAPE  H19S16637   5.504   3.804   8.600  0.9390 -1.8281 -1.6153
  150SAPE  C22016638   5.667   3.660   8.597 -0.4203  0.3680 -0.0371
  150SAPE  H20R16639   5.658   3.558   8.641  0.6162  0.0213 -0.5893
  150SAPE  H20S16640   5.776   3.683   8.606  0.5911 -1.8329 -4.8510
  150SAPE  H20T16641   5.631   3.643   8.493 -2.8671 -0.0423  0.8590
  150SAPE   C3316642   5.909   3.300  10.037  0.4096  0.7016  0.2632
  150SAPE   H3X16643   5.970   3.208  10.024 -0.7357  0.1536 -1.4597
  150SAPE   H3Y16644   5.957   3.375  10.102  2.6091  1.7735 -2.4931
  150SAPE   C3416645   5.868   3.353   9.899  0.2676  0.2540 -0.3965
  150SAPE   H4X16646   5.947   3.421   9.861  1.0746 -1.0738 -1.1053
  150SAPE   H4Y16647   5.773   3.410   9.902 -0.0624 -0.3279  0.6539
  150SAPE   C3516648   5.850   3.241   9.787 -0.6426 -0.1265  0.0844
  150SAPE   H5X16649   5.769   3.179   9.828  0.6636 -2.1108 -0.2629
  150SAPE   H5Y16650   5.939   3.177   9.769  0.2351  0.8656  0.8240
  150SAPE   C3616651   5.811   3.306   9.657 -0.4807 -0.0048  0.9807
  150SAPE   H6X16652   5.754   3.401   9.669  2.0205  1.3034  2.9042
  150SAPE   H6Y16653   5.754   3.240   9.588 -1.4964  1.6492  0.1832
  150SAPE   C3716654   5.929   3.357   9.571  0.5328  0.4054  0.4225
  150SAPE   H7X16655   5.995   3.269   9.552 -1.7073 -0.9562 -1.4549
  150SAPE   H7Y16656   5.992   3.431   9.625  1.0956 -1.5376  2.5210
  150SAPE   C3816657   5.877   3.410   9.434 -0.3620  0.1219 -0.8391
  150SAPE   H8X16658   5.784   3.468   9.452 -0.2446 -0.7691  2.9179
  150SAPE   H8Y16659   5.849   3.318   9.377 -0.3829 -1.4412  1.6247
  150SAPE   C3916660   5.982   3.492   9.359  0.5157  0.4602  0.4742
  150SAPE   H9X16661   6.076   3.434   9.349  0.0337 -0.4226  1.0030
  150SAPE   H9Y16662   5.999   3.589   9.410  0.3624  2.4170 -3.0100
  150SAPE  C31016663   5.931   3.534   9.219 -0.1460  0.3596 -0.1537
  150SAPE  H10X16664   5.973   3.633   9.191  1.4033 -0.2141  0.0689
  150SAPE  H10Y16665   5.821   3.543   9.223 -0.0154  1.7031  0.6284
  150SAPE  C31116666   5.966   3.430   9.119  0.7119  0.4108  0.5221
  150SAPE  H11X16667   5.952   3.323   9.146  1.4510  0.0945 -0.3343
  150SAPE  H11Y16668   6.074   3.440   9.098  0.5561  1.6142  0.2603
  150SAPE  C31216669   5.882   3.444   8.992  0.1196  0.2848  0.0591
  150SAPE  H12X16670   5.891   3.551   8.962  1.9145  0.1433  0.0301
  150SAPE  H12Y16671   5.777   3.420   9.021  0.7342 -0.7054  1.4955
  150SAPE  C31316672   5.922   3.363   8.875  0.0128  0.0883 -0.1259
  150SAPE  H13X16673   6.027   3.389   8.850 -0.1871  1.1328  0.0998
  150SAPE  H13Y16674   5.865   3.390   8.784 -0.0282  1.4181  0.2953
  150SAPE  C31416675   5.904   3.215   8.908 -0.3355  0.0169  0.0661
  150SAPE  H14X16676   5.799   3.191   8.936 -1.1214  0.2204 -2.5408
  150SAPE  H14Y16677   5.967   3.189   8.995  0.3772  0.9801 -0.1446
  150SAPE  C31516678   5.943   3.132   8.780  0.3355  0.3590  0.2740
  150SAPE  H15X16679   6.054   3.134   8.783  0.3394  2.3362 -0.6520
  150SAPE  H15Y16680   5.918   3.180   8.683  0.5103  0.6970  0.3981
  150SAPE  C31616681   5.878   2.999   8.800 -0.2805 -0.6815 -0.1165
  150SAPE  H16X16682   5.774   2.998   8.838 -0.9652 -1.7557 -1.9232
  150SAPE  H16Y16683   5.941   2.939   8.869  0.0591  0.9963  1.0603
  150SAPE  C31716684   5.871   2.931   8.659 -0.3041 -0.5049  0.7548
  150SAPE  H17X16685   5.787   2.976   8.601 -1.4821 -2.6984  0.6796
  150SAPE  H17Y16686   5.837   2.827   8.679 -1.7188  0.5979  4.3959
  150SAPE  C31816687   6.002   2.939   8.578 -0.5057 -0.8279  0.5924
  150SAPE  H18X16688   6.028   3.033   8.525 -3.5839 -1.6300 -2.5550
  150SAPE  H18Y16689   6.011   2.858   8.503  0.9439  0.6190 -0.8576
  150SAPE  H18Z16690   6.089   2.933   8.646  1.0018 -0.0502 -1.2273
  151SAPE     N16691   3.773   6.511  10.704  0.1882 -0.2927 -0.0967
  151SAPE   HN116692   3.761   6.416  10.664  0.9966 -1.2166  1.7815
  151SAPE   HN216693   3.871   6.543  10.694  0.5038 -0.6641  1.6450
  151SAPE   HN316694   3.744   6.505  10.804 -2.8103  1.1478 -0.8182
  151SAPE   C1216695   3.681   6.604  10.628  0.2900 -0.1014 -0.3397
  151SAPE  H12A16696   3.581   6.568  10.660 -0.2988 -0.9935 -3.0752
  151SAPE  H12B16697   3.690   6.597  10.518 -1.2472  0.2720 -0.5039
  151SAPE   C1116698   3.686   6.755  10.657 -1.1746  0.1423 -0.0867
  151SAPE  H11A16699   3.793   6.781  10.664 -1.0512  0.4574 -2.5935
  151SAPE  H11B16700   3.656   6.777  10.762 -1.1555 -2.8453  0.5877
  151SAPE     P16701   3.472   6.876  10.582  0.2501 -0.1739 -0.1813
  151SAPE   O1316702   3.397   6.753  10.619  0.1768 -0.1810 -0.4287
  151SAPE   O1416703   3.473   6.984  10.683 -0.2951  0.1546  0.0694
  151SAPE   O1216704   3.623   6.832  10.558  0.1613 -0.3644  0.0781
  151SAPE   O1116705   3.430   6.931  10.446 -0.1745  0.1112  0.1250
  151SAPE    C116706   3.482   6.894  10.312  0.0417 -0.0362 -0.5174
  151SAPE    HA16707   3.576   6.947  10.283 -0.7341  0.4087 -2.2804
  151SAPE    HB16708   3.514   6.788  10.314 -0.5168 -0.1768  1.8623
  151SAPE    C216709   3.376   6.905  10.196 -0.3781 -0.2576 -0.4935
  151SAPE    HS16710   3.340   7.010  10.191 -2.6134 -0.9709  0.0471
  151SAPE   O2116711   3.273   6.809  10.228  0.2315 -0.0801 -0.7701
  151SAPE   C2116712   3.173   6.871  10.299 -0.0657  0.3679 -0.2526
  151SAPE   O2216713   3.169   6.993  10.337 -0.8653 -0.2531  0.1574
  151SAPE   C2216714   3.052   6.775  10.308  0.2886  0.3998  0.0884
  151SAPE   H2R16715   3.090   6.690  10.368  1.0113  1.5414  1.2618
  151SAPE   H2S16716   2.969   6.826  10.362 -1.0966  1.4441 -2.9113
  151SAPE    C316717   3.438   6.854  10.072  1.0297  0.4359  0.3271
  151SAPE    HX16718   3.465   6.749  10.096  1.4752  0.1483 -1.3522
  151SAPE    HY16719   3.531   6.907  10.042  1.8085 -0.7003  0.6979
  151SAPE   O3116720   3.343   6.845   9.959 -0.0156 -0.4789 -0.4467
  151SAPE   C3116721   3.305   6.956   9.898  0.1095  0.1725 -0.0760
  151SAPE   O3216722   3.347   7.068   9.927 -0.2693  0.6548  0.2172
  151SAPE   C3216723   3.202   6.921   9.785 -0.1993  0.7042  0.1990
  151SAPE   H2X16724   3.098   6.921   9.825  0.2325  1.4604  1.3212
  151SAPE   H2Y16725   3.224   6.817   9.751 -3.6377  0.6767 -2.1941
  151SAPE   C2316726   3.000   6.724  10.171  0.5154  1.0762 -0.8829
  151SAPE   H3R16727   2.906   6.668  10.187  2.4328 -1.0891  3.5940
  151SAPE   H3S16728   3.062   6.639  10.135 -1.9710 -0.5415 -1.4925
  151SAPE   C2416729   2.993   6.839  10.069  0.1283 -1.1297  0.0573
  151SAPE   H4R16730   2.960   6.791   9.975 -2.7409 -0.6336  0.7508
  151SAPE   H4S16731   3.087   6.894  10.051 -0.4549  0.7969  2.4593
  151SAPE   C2516732   2.882   6.937  10.118  0.1954 -1.1094 -0.4113
  151SAPE   H5R16733   2.898   6.992  10.212  2.1540  3.2294 -3.1604
  151SAPE   C2616734   2.770   6.967  10.052  0.0873 -0.8188  0.1671
  151SAPE   H6R16735   2.705   7.043  10.098 -0.6693 -0.2075 -1.8652
  151SAPE   C2716736   2.721   6.910   9.924  0.0053 -0.1671  0.4502
  151SAPE   H7R16737   2.803   6.916   9.850  0.8670  2.1233  1.5470
  151SAPE   H7S16738   2.638   6.972   9.883  1.0221  1.5261  0.9242
  151SAPE   C2816739   2.678   6.764   9.935  0.0127 -0.3982 -0.3196
  151SAPE   H8R16740   2.705   6.708  10.026  0.6733 -0.5513 -0.5987
  151SAPE   C2916741   2.627   6.691   9.835  0.3006 -0.1945  0.6508
  151SAPE   H9R16742   2.578   6.597   9.863 -0.3635 -0.0964 -0.1484
  151SAPE  C21016743   2.594   6.746   9.701 -0.4992  0.1221  0.6652
  151SAPE  H10R16744   2.690   6.769   9.650  0.0970 -1.4229  1.0449
  151SAPE  H10S16745   2.543   6.844   9.703  0.9501  1.0798 -3.4369
  151SAPE  C21116746   2.516   6.648   9.608 -0.2725 -0.1805  0.5111
  151SAPE  H11R16747   2.488   6.549   9.646 -0.4163 -0.9074 -1.4675
  151SAPE  C21216748   2.463   6.690   9.489 -0.2520 -0.8973  0.3988
  151SAPE  H12R16749   2.426   6.610   9.424  1.3636 -1.6987  0.4369
  151SAPE  C21316750   2.486   6.823   9.431  0.2496 -0.3380  0.9191
  151SAPE  H13R16751   2.444   6.910   9.486  0.7224  0.4676  0.0222
  151SAPE  H13S16752   2.416   6.826   9.344 -0.2068 -1.3723  1.2359
  151SAPE  C21416753   2.626   6.847   9.382  0.3981 -1.0298  0.5241
  151SAPE  H14R16754   2.680   6.908   9.456  1.2354  3.1555 -3.3171
  151SAPE  C21516755   2.678   6.827   9.258 -0.1459 -0.7664  0.8552
  151SAPE  H15R16756   2.771   6.882   9.236 -0.5664  0.4587  2.1088
  151SAPE  C21616757   2.607   6.762   9.140  0.3217  0.1308  0.6870
  151SAPE  H16R16758   2.507   6.730   9.175 -0.6669  2.5719  0.2135
  151SAPE  H16S16759   2.660   6.668   9.112 -0.9873  0.0015 -1.4262
  151SAPE  C21716760   2.585   6.862   9.031  0.8121  0.1556 -1.0807
  151SAPE  H17R16761   2.520   6.944   9.069  1.8413  0.0275  0.9747
  151SAPE  H17S16762   2.526   6.813   8.950  0.8677  0.8144 -1.5243
  151SAPE  C21816763   2.711   6.922   8.972  0.5691  1.0972 -0.7588
  151SAPE  H18R16764   2.743   6.998   9.046 -0.9726 -1.9634  3.2914
  151SAPE  H18S16765   2.687   6.984   8.883  0.7601  1.0354 -0.8526
  151SAPE  C21916766   2.814   6.816   8.945  0.1141  0.3974 -0.7173
  151SAPE  H19R16767   2.771   6.716   8.923 -2.9090  2.0258 -2.5771
  151SAPE  H19S16768   2.876   6.802   9.036 -0.4585  1.9105 -0.0610
  151SAPE  C22016769   2.886   6.854   8.812 -0.1249 -0.2039  0.4008
  151SAPE  H20R16770   2.913   6.962   8.805  1.0033 -0.4956  0.1592
  151SAPE  H20S16771   2.806   6.831   8.738  0.6824  2.5154 -1.4292
  151SAPE  H20T16772   2.982   6.799   8.798  0.7969  1.5220 -0.2606
  151SAPE   C3316773   3.223   7.016   9.664  0.0918 -0.1210  0.0565
  151SAPE   H3X16774   3.321   7.003   9.614  0.5342  0.8635  0.6693
  151SAPE   H3Y16775   3.229   7.121   9.697  0.1473 -0.6017  1.5964
  151SAPE   C3416776   3.118   7.009   9.552  0.6021 -0.0882  0.5362
  151SAPE   H4X16777   3.118   7.103   9.492 -1.0925  0.0678  0.7569
  151SAPE   H4Y16778   3.019   7.016   9.601  0.3580 -0.6769  0.1325
  151SAPE   C3516779   3.127   6.895   9.453  0.5548  0.1946 -0.4841
  151SAPE   H5X16780   3.023   6.871   9.422  1.3734 -1.5172 -1.9515
  151SAPE   H5Y16781   3.187   6.814   9.499 -1.3081 -0.9638 -0.0502
  151SAPE   C3616782   3.206   6.936   9.320  0.5076 -0.8734 -0.4921
  151SAPE   H6X16783   3.312   6.949   9.349 -0.1026  0.0337  1.4138
  151SAPE   H6Y16784   3.166   7.036   9.293  2.7265  0.0615 -0.4090
  151SAPE   C3716785   3.201   6.831   9.207  0.0583 -0.0893 -0.0253
  151SAPE   H7X16786   3.094   6.804   9.197 -0.3593 -0.0151  3.4480
  151SAPE   H7Y16787   3.254   6.740   9.241  1.1537  0.8535  0.8373
  151SAPE   C3816788   3.250   6.890   9.071 -0.3126  0.2341  0.4490
  151SAPE   H8X16789   3.351   6.933   9.080  0.2125 -0.5883 -1.1460
  151SAPE   H8Y16790   3.181   6.967   9.030  0.9784  0.6686 -0.9634
  151SAPE   C3916791   3.260   6.774   8.969  0.2491 -0.6512  0.2486
  151SAPE   H9X16792   3.160   6.734   8.943 -0.8595  2.6028 -0.8202
  151SAPE   H9Y16793   3.319   6.686   8.999  2.0485  0.3970 -0.1160
  151SAPE  C31016794   3.311   6.820   8.825  0.0279 -0.0122  0.8768
  151SAPE  H10X16795   3.413   6.866   8.822  1.6764 -3.5560  0.5637
  151SAPE  H10Y16796   3.246   6.907   8.802  0.9512  0.3108 -0.5597
  151SAPE  C31116797   3.287   6.720   8.712  0.0265 -0.1136 -0.1617
  151SAPE  H11X16798   3.191   6.666   8.718 -1.1389  1.8469 -0.6737
  151SAPE  H11Y16799   3.366   6.645   8.733 -0.6189 -0.3900  1.3066
  151SAPE  C31216800   3.311   6.793   8.572  0.3328  0.2224  0.2834
  151SAPE  H12X16801   3.216   6.837   8.536  0.2350  1.0750  1.5589
  151SAPE  H12Y16802   3.349   6.723   8.495 -1.2551  2.5271 -2.6813
  151SAPE  C31316803   3.412   6.911   8.574  0.0539 -0.3639  0.4045
  151SAPE  H13X16804   3.389   6.986   8.652 -0.4845  0.0839 -0.1857
  151SAPE  H13Y16805   3.384   6.967   8.483  2.3480  1.4844  0.7899
  151SAPE  C31416806   3.558   6.876   8.568 -0.7483  0.4527 -0.3951
  151SAPE  H14X16807   3.553   6.769   8.597 -2.8935  1.1355  1.9480
  151SAPE  H14Y16808   3.621   6.918   8.650 -0.4287  0.9070 -0.8672
  151SAPE  C31516809   3.633   6.890   8.427 -0.5069  0.2451 -0.6886
  151SAPE  H15X16810   3.560   6.849   8.354 -0.0762 -1.4353 -0.1890
  151SAPE  H15Y16811   3.728   6.833   8.439 -0.4130  0.2987 -1.1526
  151SAPE  C31616812   3.676   7.031   8.391 -0.6578 -0.4770  0.2185
  151SAPE  H16X16813   3.748   7.064   8.469  1.1003 -0.8025 -1.2455
  151SAPE  H16Y16814   3.587   7.097   8.400  1.4483  2.5668 -0.6301
  151SAPE  C31716815   3.744   7.033   8.258  0.5775 -0.4408  0.6808
  151SAPE  H17X16816   3.673   6.970   8.201 -0.5745 -0.9103  2.6078
  151SAPE  H17Y16817   3.844   6.985   8.256  0.9729  0.3004  1.8998
  151SAPE  C31816818   3.748   7.176   8.191  0.8542  1.0163 -0.3388
  151SAPE  H18X16819   3.792   7.249   8.262 -1.1591  0.1876  1.8236
  151SAPE  H18Y16820   3.644   7.201   8.161 -0.6476 -1.9598  2.0692
  151SAPE  H18Z16821   3.807   7.171   8.097 -1.0469 -0.3551 -1.4811
  152SAPE     N16822   4.408   6.493  10.457  0.4109  0.7448  0.2426
  152SAPE   HN116823   4.481   6.540  10.398 -2.0737  1.3546 -2.4371
  152SAPE   HN216824   4.350   6.424  10.406  0.6770  0.6379  0.0820
  152SAPE   HN316825   4.345   6.574  10.476 -2.3051 -1.6209  1.5701
  152SAPE   C1216826   4.471   6.436  10.578  0.6264 -0.5133 -0.3981
  152SAPE  H12A16827   4.571   6.397  10.551  0.6917 -1.0853  0.6749
  152SAPE  H12B16828   4.394   6.366  10.618 -0.4212  0.6956 -0.2564
  152SAPE   C1116829   4.483   6.546  10.688  0.3673 -0.3510 -0.4438
  152SAPE  H11A16830   4.515   6.503  10.785  0.6059  0.5190 -0.1344
  152SAPE  H11B16831   4.384   6.595  10.695  1.1209  1.5161 -2.1249
  152SAPE     P16832   4.591   6.777  10.712 -0.0988 -0.1099 -0.0016
  152SAPE   O1316833   4.461   6.851  10.715 -0.1778  0.3226 -0.1358
  152SAPE   O1416834   4.659   6.769  10.836  0.5754 -0.1349 -0.8144
  152SAPE   O1216835   4.581   6.639  10.640  0.1374  0.8704  0.5391
  152SAPE   O1116836   4.682   6.853  10.611  0.2374  0.3566  0.5898
  152SAPE    C116837   4.782   6.800  10.523 -0.1353 -0.4424 -0.1201
  152SAPE    HA16838   4.881   6.843  10.549  0.3948 -0.5129 -1.9831
  152SAPE    HB16839   4.787   6.690  10.534 -0.2511 -0.3543  0.8558
  152SAPE    C216840   4.769   6.819  10.370  0.0625 -0.3112  0.8944
  152SAPE    HS16841   4.817   6.731  10.321  0.9046  0.0719  1.0257
  152SAPE   O2116842   4.817   6.950  10.331 -0.7883  0.0384 -0.2780
  152SAPE   C2116843   4.947   6.953  10.295 -0.7279  0.3350 -0.3191
  152SAPE   O2216844   5.023   6.856  10.281  0.3340  0.7245 -0.5630
  152SAPE   C2216845   4.982   7.094  10.247 -0.4177  0.3429 -0.7822
  152SAPE   H2R16846   5.008   7.159  10.334 -2.0463  0.2879 -0.2279
  152SAPE   H2S16847   5.074   7.083  10.186 -0.8352 -3.4764 -0.8152
  152SAPE    C316848   4.616   6.820  10.332  0.3191 -0.0409 -0.0038
  152SAPE    HX16849   4.575   6.914  10.376  0.7417  0.5417 -0.8180
  152SAPE    HY16850   4.558   6.747  10.391 -0.2340 -1.8488 -2.7103
  152SAPE   O3116851   4.593   6.799  10.191 -0.3065  0.3545  0.1354
  152SAPE   C3116852   4.495   6.714  10.159 -0.3040  0.9229  0.4229
  152SAPE   O3216853   4.419   6.660  10.238 -0.1232  0.1563  0.0672
  152SAPE   C3216854   4.516   6.658  10.014 -0.5491 -0.3698 -0.4047
  152SAPE   H2X16855   4.423   6.610   9.977 -1.0258  0.2929 -0.0695
  152SAPE   H2Y16856   4.589   6.575  10.025 -2.7848 -2.5205 -1.3828
  152SAPE   C2316857   4.870   7.156  10.155  0.5281 -0.1376  0.4007
  152SAPE   H3R16858   4.890   7.263  10.136 -0.8078 -0.1134 -0.9570
  152SAPE   H3S16859   4.769   7.138  10.198 -0.1672 -0.7136 -1.3969
  152SAPE   C2416860   4.871   7.098  10.017  0.5313 -0.2585 -0.5048
  152SAPE   H4R16861   4.900   6.992  10.025  0.2789 -0.0559  4.1400
  152SAPE   H4S16862   4.951   7.148   9.957 -1.4676 -0.9057 -3.8151
  152SAPE   C2516863   4.732   7.116   9.951  0.1555 -0.8611 -0.8367
  152SAPE   H5R16864   4.652   7.081  10.018 -0.2061 -0.6858 -1.1804
  152SAPE   C2616865   4.695   7.178   9.835 -0.0242  0.2674 -0.6503
  152SAPE   H6R16866   4.589   7.172   9.806  0.3219  0.7095 -2.0575
  152SAPE   C2716867   4.792   7.239   9.734 -0.0930 -0.3026 -0.0041
  152SAPE   H7R16868   4.882   7.175   9.732 -0.6373 -1.0491 -1.2182
  152SAPE   H7S16869   4.829   7.330   9.785 -2.4480  0.7486 -0.1107
  152SAPE   C2816870   4.732   7.270   9.604 -0.4833  0.1913  0.3147
  152SAPE   H8R16871   4.632   7.317   9.601  0.0543  1.2918 -1.6432
  152SAPE   C2916872   4.772   7.233   9.482  0.0525 -0.6845 -0.3618
  152SAPE   H9R16873   4.716   7.274   9.397 -0.3149 -0.0091  0.2006
  152SAPE  C21016874   4.890   7.154   9.452 -0.0814  0.0287  0.1329
  152SAPE  H10R16875   4.851   7.051   9.437 -2.2829  0.8468  0.0845
  152SAPE  H10S16876   4.956   7.153   9.542 -1.1810 -0.7324  0.9444
  152SAPE  C21116877   4.966   7.201   9.321  0.2172  0.5053 -0.6432
  152SAPE  H11R16878   5.057   7.259   9.342  0.4787 -0.0367 -0.2942
  152SAPE  C21216879   4.941   7.167   9.196  0.0680 -0.2916  0.9392
  152SAPE  H12R16880   5.014   7.196   9.118 -0.4169 -2.3025 -0.3163
  152SAPE  C21316881   4.823   7.082   9.146 -0.2216 -0.0678  0.5267
  152SAPE  H13R16882   4.736   7.075   9.215 -1.8700  0.1337 -1.4622
  152SAPE  H13S16883   4.876   6.985   9.133  0.7089  0.6352 -1.0959
  152SAPE  C21416884   4.772   7.130   9.009 -0.5297 -0.1486 -1.0920
  152SAPE  H14R16885   4.759   7.240   9.008  2.0153  0.2576  1.4147
  152SAPE  C21516886   4.737   7.060   8.904 -0.6966 -0.1671 -0.0531
  152SAPE  H15R16887   4.707   7.120   8.816  1.9982 -0.0264 -0.9243
  152SAPE  C21616888   4.734   6.914   8.890 -0.1734  0.5392 -0.3490
  152SAPE  H16R16889   4.632   6.876   8.866 -0.3446  0.0853  1.0210
  152SAPE  H16S16890   4.756   6.864   8.987 -0.6501 -0.1966 -0.6190
  152SAPE  C21716891   4.844   6.872   8.784  0.2737 -0.0922 -0.3985
  152SAPE  H17R16892   4.940   6.923   8.806  0.4828 -1.2813  1.5628
  152SAPE  H17S16893   4.806   6.924   8.693 -1.3119 -0.3234  0.1010
  152SAPE  C21816894   4.845   6.720   8.762 -0.5289 -0.2801 -0.1113
  152SAPE  H18R16895   4.741   6.684   8.753 -0.2317 -1.2963  0.4257
  152SAPE  H18S16896   4.880   6.679   8.859 -2.2724  1.3893  1.2571
  152SAPE  C21916897   4.930   6.679   8.644 -0.0763 -0.0963 -0.0232
  152SAPE  H19R16898   5.022   6.739   8.659  0.5276 -1.3984  1.6334
  152SAPE  H19S16899   4.871   6.717   8.557 -0.1932 -2.1356 -0.8457
  152SAPE  C22016900   4.962   6.528   8.634  0.0139 -0.3344 -0.7216
  152SAPE  H20R16901   4.985   6.493   8.532 -1.9451 -1.5657 -0.7670
  152SAPE  H20S16902   4.865   6.485   8.666  0.4483 -1.1161 -0.4521
  152SAPE  H20T16903   5.042   6.507   8.708 -1.9484 -1.2078  1.2235
  152SAPE   C3316904   4.561   6.759   9.916  0.1158  0.3063 -0.2515
  152SAPE   H3X16905   4.633   6.829   9.963 -2.2113  1.8477  1.0664
  152SAPE   H3Y16906   4.471   6.816   9.887 -0.6013 -0.6101  0.1460
  152SAPE   C3416907   4.635   6.696   9.803  0.1697 -0.2491  0.3821
  152SAPE   H4X16908   4.701   6.615   9.839 -0.5557 -0.5474  1.0619
  152SAPE   H4Y16909   4.691   6.775   9.748  0.8991 -1.4318 -0.6074
  152SAPE   C3516910   4.550   6.638   9.687 -0.8890  0.1723  0.0177
  152SAPE   H5X16911   4.459   6.700   9.673 -1.2493 -0.4709 -0.5055
  152SAPE   H5Y16912   4.511   6.539   9.722 -0.7489  0.3032  0.5524
  152SAPE   C3616913   4.627   6.621   9.559  0.0154 -0.1852 -0.0943
  152SAPE   H6X16914   4.695   6.538   9.586  0.7672 -0.0077 -1.4184
  152SAPE   H6Y16915   4.679   6.717   9.538  2.9637 -1.8026 -0.3854
  152SAPE   C3716916   4.553   6.575   9.432  0.0462 -0.3538 -0.2796
  152SAPE   H7X16917   4.462   6.637   9.414  0.7071  0.0696 -2.1955
  152SAPE   H7Y16918   4.519   6.471   9.452  1.5148 -0.9574 -0.8809
  152SAPE   C3816919   4.641   6.565   9.315 -0.2099 -0.3613 -0.2281
  152SAPE   H8X16920   4.723   6.494   9.340  2.2527  2.3447 -0.4049
  152SAPE   H8Y16921   4.692   6.662   9.298  0.7806 -0.5509  1.5427
  152SAPE   C3916922   4.580   6.506   9.184  0.0901  0.0697  0.1948
  152SAPE   H9X16923   4.489   6.565   9.158 -0.5368 -0.4855  1.0898
  152SAPE   H9Y16924   4.548   6.400   9.187  1.3688 -0.3213  0.1775
  152SAPE  C31016925   4.680   6.522   9.066 -0.1175 -0.5697 -0.4429
  152SAPE  H10X16926   4.783   6.505   9.103 -0.1374 -0.6838 -0.4399
  152SAPE  H10Y16927   4.674   6.626   9.030 -0.8274 -0.4016  0.1390
  152SAPE  C31116928   4.655   6.440   8.941  0.1019 -0.1860  0.2805
  152SAPE  H11X16929   4.666   6.332   8.965  0.6049 -0.6927 -2.0981
  152SAPE  H11Y16930   4.728   6.474   8.864 -0.2278 -0.9120 -0.3579
  152SAPE  C31216931   4.517   6.457   8.879 -0.0133 -0.3250 -0.2903
  152SAPE  H12X16932   4.520   6.555   8.827 -4.2261  0.5451  0.8880
  152SAPE  H12Y16933   4.431   6.464   8.949 -0.5446  1.6291 -1.1217
  152SAPE  C31316934   4.486   6.350   8.767  0.6360 -0.1094 -0.0944
  152SAPE  H13X16935   4.383   6.382   8.742  0.9499  1.9035  1.0507
  152SAPE  H13Y16936   4.486   6.248   8.811 -2.9401  0.4516  1.3722
  152SAPE  C31416937   4.558   6.344   8.635  0.2875 -0.1952 -0.4188
  152SAPE  H14X16938   4.664   6.312   8.633  0.7023  1.2118 -1.9443
  152SAPE  H14Y16939   4.552   6.449   8.600  1.9020  0.0329 -0.0694
  152SAPE  C31516940   4.480   6.269   8.529 -0.0965 -0.0800 -0.1198
  152SAPE  H15X16941   4.373   6.296   8.518 -0.4402 -2.2142 -2.5313
  152SAPE  H15Y16942   4.487   6.158   8.537  0.6125 -0.3591 -3.7308
  152SAPE  C31616943   4.528   6.310   8.383  0.4727 -0.2294  0.1461
  152SAPE  H16X16944   4.636   6.332   8.382  1.4251 -4.4361 -1.6571
  152SAPE  H16Y16945   4.474   6.399   8.344 -0.7555 -0.9677  0.1161
  152SAPE  C31716946   4.498   6.195   8.279  0.0949 -0.5433  0.0964
  152SAPE  H17X16947   4.414   6.133   8.318  0.5692 -0.9286  0.5136
  152SAPE  H17Y16948   4.585   6.127   8.272  0.6288  0.0861  0.5902
  152SAPE  C31816949   4.479   6.248   8.135 -0.4231  0.4647 -0.8091
  152SAPE  H18X16950   4.383   6.304   8.124 -1.5271 -1.6003 -1.9475
  152SAPE  H18Y16951   4.483   6.158   8.070 -0.9155 -0.5471  0.5464
  152SAPE  H18Z16952   4.560   6.315   8.099 -0.9522  3.1609  2.7244
  153SAPE     N16953   3.715   1.819  10.715  0.2561  0.0915 -0.6568
  153SAPE   HN116954   3.667   1.754  10.651  1.1371 -1.9493  0.7018
  153SAPE   HN216955   3.749   1.764  10.797  1.2393  0.3341 -0.8933
  153SAPE   HN316956   3.657   1.901  10.741  1.2961  0.4563  0.6016
  153SAPE   C1216957   3.850   1.871  10.656  0.2720 -0.0626  0.3715
  153SAPE  H12A16958   3.896   1.934  10.736 -1.6387  0.1866  1.2949
  153SAPE  H12B16959   3.817   1.922  10.563 -1.9895 -2.2502 -0.0602
  153SAPE   C1116960   3.931   1.747  10.621  0.9436 -0.6429  0.1154
  153SAPE  H11A16961   4.029   1.775  10.575  1.1961 -0.6769  0.6235
  153SAPE  H11B16962   3.888   1.685  10.540  0.6948  0.8150 -0.8981
  153SAPE     P16963   4.093   1.627  10.789  0.2703  0.0665 -0.0030
  153SAPE   O1316964   4.168   1.751  10.793 -0.1617 -0.4815 -0.6371
  153SAPE   O1416965   4.077   1.552  10.914 -0.0097  0.3258  0.1781
  153SAPE   O1216966   3.948   1.663  10.734 -0.1919 -0.4625  0.2053
  153SAPE   O1116967   4.165   1.541  10.680  0.3132  0.0685  0.0406
  153SAPE    C116968   4.091   1.441  10.600 -0.1346  0.7980 -0.2779
  153SAPE    HA16969   4.092   1.350  10.664 -0.9071  0.4062 -0.8144
  153SAPE    HB16970   3.983   1.463  10.590 -0.0856  0.2509 -2.2447
  153SAPE    C216971   4.165   1.417  10.467 -0.1815  1.1290 -0.4719
  153SAPE    HS16972   4.271   1.415  10.499 -0.5480 -3.6039  0.9626
  153SAPE   O2116973   4.121   1.515  10.375  0.6186 -0.3326 -1.1815
  153SAPE   C2116974   4.216   1.566  10.300  0.1225  0.0024  0.5355
  153SAPE   O2216975   4.332   1.525  10.298 -0.7840  0.1592  0.1573
  153SAPE   C2216976   4.162   1.674  10.204  0.8048 -0.4649 -0.8587
  153SAPE   H2R16977   4.051   1.676  10.197  0.8114 -0.4742 -0.9696
  153SAPE   H2S16978   4.205   1.771  10.239 -0.7850 -0.2260  0.4851
  153SAPE    C316979   4.124   1.279  10.408  0.3223  0.1105 -0.2724
  153SAPE    HX16980   4.021   1.296  10.371 -0.5766  1.9697  2.8763
  153SAPE    HY16981   4.117   1.201  10.486 -4.0831 -1.1454 -1.8170
  153SAPE   O3116982   4.222   1.239  10.312  0.0548 -0.1792 -0.3697
  153SAPE   C3116983   4.166   1.151  10.226  0.3187  0.5018  0.2299
  153SAPE   O3216984   4.053   1.105  10.236  0.0348  0.0327  0.5932
  153SAPE   C3216985   4.262   1.138  10.100  0.2386  0.8716  0.4623
  153SAPE   H2X16986   4.322   1.045  10.109 -2.2782 -1.3157 -3.4698
  153SAPE   H2Y16987   4.331   1.225  10.090 -0.8475  1.8194  1.0792
  153SAPE   C2316988   4.212   1.638  10.054  0.6167  0.6230  0.3383
  153SAPE   H3R16989   4.321   1.622  10.067  0.8931  2.4130  0.4490
  153SAPE   H3S16990   4.212   1.726   9.986  2.6387  0.2973 -0.1381
  153SAPE   C2416991   4.150   1.515   9.986  0.2055  0.1815  0.3610
  153SAPE   H4R16992   4.169   1.426  10.050  0.3659 -0.9621 -1.2437
  153SAPE   H4S16993   4.211   1.496   9.896 -0.8082 -2.8341  0.2323
  153SAPE   C2516994   3.997   1.548   9.977 -0.3256  0.0699 -0.2476
  153SAPE   H5R16995   3.936   1.534  10.068  1.4116 -3.0462  0.4998
  153SAPE   C2616996   3.947   1.623   9.879 -0.5986 -0.0093  0.4178
  153SAPE   H6R16997   3.841   1.653   9.884 -1.0997 -1.5221 -0.7230
  153SAPE   C2716998   4.015   1.686   9.756 -0.6514  0.0502 -0.3186
  153SAPE   H7R16999   4.086   1.763   9.794 -0.0503 -1.5414  1.8868
  153SAPE   H7S17000   3.944   1.750   9.699  1.4864  2.0879 -0.7566
  153SAPE   C2817001   4.088   1.594   9.659  0.2479 -0.0377  0.7747
  153SAPE   H8R17002   4.102   1.492   9.699 -2.1566 -1.6788 -2.3444
  153SAPE   C2917003   4.147   1.619   9.539  0.4844 -0.9455 -0.2043
  153SAPE   H9R17004   4.192   1.534   9.487  2.2321  0.6981 -1.4606
  153SAPE  C21017005   4.143   1.757   9.475 -0.1239 -0.1946 -0.4624
  153SAPE  H10R17006   4.246   1.780   9.441 -0.3351  0.0892 -0.9218
  153SAPE  H10S17007   4.112   1.833   9.549 -0.9193 -1.6455  0.7210
  153SAPE  C21117008   4.053   1.769   9.360 -0.5097 -0.1678  0.5685
  153SAPE  H11R17009   3.948   1.744   9.383 -0.4960  0.7864  1.6745
  153SAPE  C21217010   4.078   1.826   9.234 -0.3880 -0.0390 -0.1452
  153SAPE  H12R17011   3.997   1.830   9.160  0.7830 -1.8153 -1.5770
  153SAPE  C21317012   4.199   1.890   9.180  0.4034 -0.0183  0.2000
  153SAPE  H13R17013   4.292   1.876   9.240 -0.0989 -0.4340  0.8873
  153SAPE  H13S17014   4.177   1.999   9.173 -2.4604 -0.6727 -1.7871
  153SAPE  C21417015   4.244   1.852   9.038 -1.4671  0.6339  0.3595
  153SAPE  H14R17016   4.238   1.934   8.964  0.5317  0.9849  0.5582
  153SAPE  C21517017   4.304   1.735   9.006 -0.2304  0.8009  0.2078
  153SAPE  H15R17018   4.355   1.736   8.908 -0.5642  0.8649  0.0330
  153SAPE  C21617019   4.335   1.626   9.101  0.2267 -0.4596 -0.1334
  153SAPE  H16R17020   4.315   1.527   9.053  0.8062 -1.4598  1.6496
  153SAPE  H16S17021   4.264   1.640   9.185 -0.5768 -2.5907 -0.4119
  153SAPE  C21717022   4.485   1.621   9.149 -0.0894 -0.2899  0.5878
  153SAPE  H17R17023   4.499   1.535   9.219 -0.2354 -0.5452  0.3057
  153SAPE  H17S17024   4.510   1.703   9.219  1.2301 -1.9003  2.0582
  153SAPE  C21817025   4.597   1.614   9.039  0.0162  0.0943 -0.3216
  153SAPE  H18R17026   4.623   1.714   8.997 -2.8106  0.4012 -1.4256
  153SAPE  H18S17027   4.573   1.540   8.960  1.2495  0.6611 -1.2393
  153SAPE  C21917028   4.726   1.553   9.100 -0.2329 -0.0513 -0.3640
  153SAPE  H19R17029   4.705   1.451   9.138 -0.2557 -0.2242 -0.8363
  153SAPE  H19S17030   4.762   1.610   9.188 -2.3109 -1.0713  1.1674
  153SAPE  C22017031   4.847   1.559   9.005  0.0572 -0.2122  0.2098
  153SAPE  H20R17032   4.854   1.478   8.929 -2.0226 -1.3517  1.1919
  153SAPE  H20S17033   4.942   1.551   9.063 -0.1458  1.9404  0.8903
  153SAPE  H20T17034   4.857   1.655   8.950  2.1731  0.8513  2.3696
  153SAPE   C3317035   4.182   1.112   9.975 -1.1467 -0.3137  0.8625
  153SAPE   H3X17036   4.146   1.208   9.934 -0.7873 -1.6661 -2.8219
  153SAPE   H3Y17037   4.098   1.041   9.989 -1.2038 -0.3232  0.4664
  153SAPE   C3417038   4.266   1.060   9.863  0.3070  0.2828  0.0659
  153SAPE   H4X17039   4.299   0.958   9.892  0.0894  0.0473 -0.4950
  153SAPE   H4Y17040   4.350   1.130   9.842  0.8509 -0.3064  0.2759
  153SAPE   C3517041   4.201   1.032   9.718 -0.2324  0.9458 -0.4443
  153SAPE   H5X17042   4.175   0.924   9.714  1.3381  0.4782  1.3896
  153SAPE   H5Y17043   4.287   1.039   9.647  0.7410  1.2649  0.7544
  153SAPE   C3617044   4.086   1.124   9.679  0.1273  0.9740  0.0901
  153SAPE   H6X17045   4.090   1.228   9.717  0.9915  0.9370  0.1123
  153SAPE   H6Y17046   3.994   1.071   9.711  0.8155 -0.3019 -0.0062
  153SAPE   C3717047   4.098   1.147   9.533  0.0183 -0.5775  0.1588
  153SAPE   H7X17048   4.096   1.051   9.477 -0.4576 -0.0894 -0.6869
  153SAPE   H7Y17049   4.197   1.190   9.508  0.4394 -1.4658  0.3196
  153SAPE   C3817050   3.998   1.251   9.481 -0.7919  0.2458  0.8809
  153SAPE   H8X17051   3.993   1.347   9.537  1.4903  1.1467 -0.4211
  153SAPE   H8Y17052   3.896   1.206   9.481 -1.0264  0.6640 -2.8247
  153SAPE   C3917053   4.030   1.294   9.334  0.8682 -0.7421 -0.4557
  153SAPE   H9X17054   4.060   1.207   9.271  0.7223 -0.9342 -0.2612
  153SAPE   H9Y17055   4.127   1.349   9.335  1.2538 -1.4233  0.5504
  153SAPE  C31017056   3.927   1.388   9.266 -0.8164 -0.5478  0.4907
  153SAPE  H10X17057   3.894   1.471   9.331  1.7229  1.2046 -0.4200
  153SAPE  H10Y17058   3.839   1.325   9.240 -0.5969 -0.7928  0.3399
  153SAPE  C31117059   3.980   1.463   9.143 -0.4644  0.1232 -0.1463
  153SAPE  H11X17060   4.086   1.487   9.164 -0.3161  0.6044 -1.3724
  153SAPE  H11Y17061   3.917   1.555   9.132  2.1934  1.9619 -0.4326
  153SAPE  C31217062   3.972   1.378   9.014  0.4899  0.2662 -0.1255
  153SAPE  H12X17063   3.867   1.343   9.009  0.9959 -1.4777  0.9388
  153SAPE  H12Y17064   4.032   1.286   9.032 -1.2305 -0.8758 -0.2250
  153SAPE  C31317065   4.023   1.458   8.895  0.0669  0.5403 -0.2673
  153SAPE  H13X17066   4.112   1.519   8.919 -0.8983  1.4210  1.1567
  153SAPE  H13Y17067   3.941   1.530   8.872 -0.2145  0.4946  0.5661
  153SAPE  C31417068   4.053   1.369   8.770  0.3267 -1.5734 -0.6975
  153SAPE  H14X17069   3.965   1.311   8.735  0.2797 -1.5710 -0.5868
  153SAPE  H14Y17070   4.144   1.308   8.790  0.4073 -0.6687  1.8500
  153SAPE  C31517071   4.088   1.457   8.656  0.0750  0.2859  0.1267
  153SAPE  H15X17072   4.170   1.521   8.695  0.2334 -0.7180  1.4864
  153SAPE  H15Y17073   4.000   1.522   8.634  0.2997 -0.1575 -2.2032
  153SAPE  C31617074   4.125   1.379   8.528 -0.8699  0.5516 -0.5952
  153SAPE  H16X17075   4.223   1.327   8.538 -0.1066  1.6331 -2.1440
  153SAPE  H16Y17076   4.157   1.447   8.446 -1.4420 -0.9831 -2.1135
  153SAPE  C31717077   4.020   1.288   8.464  0.1456 -0.6886  0.0390
  153SAPE  H17X17078   3.920   1.333   8.480  1.9579  2.7072  2.5950
  153SAPE  H17Y17079   4.006   1.190   8.514 -2.9589 -0.3044  0.0195
  153SAPE  C31817080   4.030   1.267   8.314  0.0159 -0.1320  0.1733
  153SAPE  H18X17081   4.112   1.195   8.291  0.8125 -0.1853  3.0540
  153SAPE  H18Y17082   4.052   1.365   8.266 -0.2881  0.6046  1.5124
  153SAPE  H18Z17083   3.934   1.232   8.270  1.2558 -2.0146 -1.1265
  154SAPE     N17084   5.633   0.939  10.577 -0.2045 -0.3776  0.4058
  154SAPE   HN117085   5.593   0.950  10.673 -0.5334  2.7254 -0.0223
  154SAPE   HN217086   5.679   0.848  10.559 -0.1666 -0.6483  1.7890
  154SAPE   HN317087   5.716   1.002  10.580 -2.0249  2.2566 -2.5147
  154SAPE   C1217088   5.533   0.989  10.476 -0.1736  0.2119  0.9510
  154SAPE  H12A17089   5.462   0.905  10.460 -1.0904  1.0078  0.8166
  154SAPE  H12B17090   5.587   1.032  10.389  3.1715  0.2000  2.9440
  154SAPE   C1117091   5.454   1.109  10.537 -0.0419 -0.4067  0.0047
  154SAPE  H11A17092   5.378   1.147  10.465 -1.5124 -0.9311  1.2502
  154SAPE  H11B17093   5.532   1.186  10.554 -0.4173 -0.1154  0.4410
  154SAPE     P17094   5.274   0.988  10.670  0.5545  0.0961 -0.0317
  154SAPE   O1317095   5.317   0.858  10.636 -0.2224  0.1339  0.3491
  154SAPE   O1417096   5.221   0.999  10.808  0.5304  0.0374 -0.6178
  154SAPE   O1217097   5.402   1.081  10.666  0.5664 -0.0625  0.0309
  154SAPE   O1117098   5.173   1.052  10.563 -0.0584  0.5350  0.1573
  154SAPE    C117099   5.094   1.173  10.591 -0.4617 -0.0723 -0.6305
  154SAPE    HA17100   5.043   1.177  10.690 -0.4938  0.8410 -0.6762
  154SAPE    HB17101   5.160   1.262  10.586 -0.9708  0.3790  0.5633
  154SAPE    C217102   4.990   1.196  10.480  0.5109  0.1156  0.2744
  154SAPE    HS17103   4.925   1.105  10.474  0.8490  0.0300 -3.7322
  154SAPE   O2117104   5.047   1.201  10.346 -0.1856  0.5215 -0.2931
  154SAPE   C2117105   5.064   1.083  10.280  0.5007 -0.3638  0.6356
  154SAPE   O2217106   5.031   0.973  10.328  0.3827 -0.2507 -0.3385
  154SAPE   C2217107   5.127   1.102  10.145 -0.0398 -0.0111  0.6716
  154SAPE   H2R17108   5.083   1.192  10.097  1.3377 -1.5617 -3.7515
  154SAPE   H2S17109   5.234   1.127  10.163 -0.0666  0.6981 -0.1174
  154SAPE    C317110   4.897   1.314  10.515 -0.5417  0.3307  0.3702
  154SAPE    HX17111   4.952   1.408  10.539  0.8047 -0.2578 -0.3534
  154SAPE    HY17112   4.830   1.288  10.600 -1.2318 -2.1280 -0.8945
  154SAPE   O3117113   4.814   1.331  10.404  0.0252 -0.2085  1.0357
  154SAPE   C3117114   4.721   1.240  10.382 -0.7223  0.0208 -1.4241
  154SAPE   O3217115   4.685   1.148  10.456 -0.3762 -0.4097 -0.3032
  154SAPE   C3217116   4.655   1.269  10.249  0.1009  0.6360 -0.2703
  154SAPE   H2X17117   4.661   1.378  10.227  1.5026  0.5585 -0.3445
  154SAPE   H2Y17118   4.552   1.232  10.267  0.4319 -0.5132 -0.6848
  154SAPE   C2317119   5.112   0.985  10.051  0.1073 -0.2446  0.2681
  154SAPE   H3R17120   5.129   0.898  10.117  0.6575 -0.5487 -0.2699
  154SAPE   H3S17121   5.186   0.995   9.968  1.3381 -2.3340  1.0890
  154SAPE   C2417122   4.974   0.984   9.977 -0.0877  0.0041  0.1757
  154SAPE   H4R17123   4.965   1.080   9.922  0.5865  0.4377  0.8020
  154SAPE   H4S17124   4.893   0.997  10.052 -1.3772 -4.7409 -0.2195
  154SAPE   C2517125   4.949   0.857   9.895  0.9723  1.0532 -0.6323
  154SAPE   H5R17126   4.927   0.766   9.953 -0.9554  1.1318 -1.1795
  154SAPE   C2617127   4.945   0.848   9.761  0.1365 -0.2450  0.2617
  154SAPE   H6R17128   4.905   0.756   9.716  0.5523 -1.3310  2.0591
  154SAPE   C2717129   4.983   0.958   9.667 -0.2339 -0.0613  0.3301
  154SAPE   H7R17130   5.069   0.919   9.608 -2.0073  0.2517 -2.5481
  154SAPE   H7S17131   5.014   1.057   9.708  0.2994  0.8824 -2.2611
  154SAPE   C2817132   4.877   0.997   9.567  0.2626  0.5276  0.3210
  154SAPE   H8R17133   4.815   1.080   9.604 -0.3141  0.3564 -0.2598
  154SAPE   C2917134   4.842   0.937   9.446  0.5123  0.5412 -0.9641
  154SAPE   H9R17135   4.764   0.980   9.381  1.0532  0.6425 -1.5536
  154SAPE  C21017136   4.907   0.813   9.380 -0.2240 -0.1986 -0.8956
  154SAPE  H10R17137   4.834   0.730   9.364 -0.2660 -0.1912 -0.7459
  154SAPE  H10S17138   4.981   0.778   9.455 -3.2821 -1.5091  1.6286
  154SAPE  C21117139   4.982   0.855   9.256 -0.1407 -0.6779  0.1887
  154SAPE  H11R17140   5.085   0.885   9.280  0.3663 -1.0031 -1.5022
  154SAPE  C21217141   4.947   0.831   9.127  0.1944  0.5942 -0.4901
  154SAPE  H12R17142   4.995   0.893   9.050  2.1819  2.4150  2.1036
  154SAPE  C21317143   4.816   0.776   9.077 -0.3584  0.5023 -0.1706
  154SAPE  H13R17144   4.743   0.859   9.064 -0.6191  0.4263  0.7666
  154SAPE  H13S17145   4.766   0.720   9.159 -0.3189 -0.7622 -1.0009
  154SAPE  C21417146   4.829   0.691   8.957  0.2655 -0.0606  0.0021
  154SAPE  H14R17147   4.870   0.590   8.972 -2.2242 -0.9054  1.4119
  154SAPE  C21517148   4.793   0.735   8.832  0.0661 -0.2680 -0.0621
  154SAPE  H15R17149   4.812   0.675   8.742 -2.3617 -0.4948 -0.4749
  154SAPE  C21617150   4.743   0.873   8.795  0.5785 -0.3501  0.6563
  154SAPE  H16R17151   4.814   0.948   8.836  0.4862 -0.9481  1.9357
  154SAPE  H16S17152   4.651   0.903   8.851  1.7066  2.4453  1.1255
  154SAPE  C21717153   4.727   0.904   8.639  0.4834 -0.0572  0.5655
  154SAPE  H17R17154   4.829   0.886   8.596  0.3790  0.1493  0.2288
  154SAPE  H17S17155   4.712   1.011   8.616  3.7351  0.1536 -0.9244
  154SAPE  C21817156   4.617   0.817   8.575  0.2591 -0.0299 -0.2959
  154SAPE  H18R17157   4.522   0.834   8.629  0.8845  1.7245  0.2813
  154SAPE  H18S17158   4.632   0.707   8.579 -0.1503 -0.0324  1.4976
  154SAPE  C21917159   4.594   0.852   8.424 -0.4400  0.5862  0.4330
  154SAPE  H19R17160   4.530   0.776   8.375  0.8393 -0.5519  0.4842
  154SAPE  H19S17161   4.693   0.836   8.375  0.2547  0.1871  1.9288
  154SAPE  C22017162   4.558   0.998   8.388 -0.0035 -0.5362 -0.3910
  154SAPE  H20R17163   4.486   0.995   8.303 -0.6581  0.9727  0.1076
  154SAPE  H20S17164   4.654   1.050   8.368  0.0013 -0.7736 -1.0006
  154SAPE  H20T17165   4.503   1.053   8.467  0.4944 -0.9559  0.2564
  154SAPE   C3317166   4.730   1.199  10.131 -0.3976  0.1713  0.4601
  154SAPE   H3X17167   4.744   1.093  10.159  0.3828 -0.3223 -1.6795
  154SAPE   H3Y17168   4.829   1.244  10.108 -0.7734  1.4311  1.2641
  154SAPE   C3417169   4.651   1.195  10.002 -0.0032  0.3362 -0.2201
  154SAPE   H4X17170   4.554   1.154  10.036  1.2802 -0.2624  2.8739
  154SAPE   H4Y17171   4.697   1.124   9.930  2.5828 -0.0014  1.6741
  154SAPE   C3517172   4.622   1.332   9.941 -0.6514  0.1534 -0.0120
  154SAPE   H5X17173   4.717   1.390   9.942  0.1683 -1.1406 -0.7924
  154SAPE   H5Y17174   4.554   1.384  10.012 -1.2309 -1.4776  0.6398
  154SAPE   C3617175   4.563   1.343   9.797 -0.2895  0.3834  0.2711
  154SAPE   H6X17176   4.527   1.445   9.773  0.7657  0.8762  0.7294
  154SAPE   H6Y17177   4.479   1.270   9.789 -0.2919  0.0318  3.1168
  154SAPE   C3717178   4.668   1.294   9.690 -0.0259 -0.0406  0.0453
  154SAPE   H7X17179   4.680   1.189   9.722  1.3407  0.2503  0.5147
  154SAPE   H7Y17180   4.761   1.355   9.692 -0.0847  0.0972 -1.3111
  154SAPE   C3817181   4.614   1.290   9.546 -0.1944 -0.5785 -0.1574
  154SAPE   H8X17182   4.703   1.253   9.491  1.7683  1.4447  1.6014
  154SAPE   H8Y17183   4.578   1.389   9.509  1.5103 -0.1941 -0.8214
  154SAPE   C3917184   4.503   1.186   9.536  0.7706  0.5928  0.6341
  154SAPE   H9X17185   4.413   1.231   9.583  0.9804  2.0362 -0.3156
  154SAPE   H9Y17186   4.522   1.091   9.591 -0.0056 -0.8551 -1.5430
  154SAPE  C31017187   4.466   1.144   9.389 -0.1911  0.3607  0.0986
  154SAPE  H10X17188   4.382   1.071   9.391 -2.0075  2.4267  1.4360
  154SAPE  H10Y17189   4.556   1.111   9.333 -1.2228 -0.1695 -1.3077
  154SAPE  C31117190   4.410   1.262   9.297 -0.5238  0.4123 -0.0787
  154SAPE  H11X17191   4.488   1.341   9.299  1.7322 -1.7851  0.1887
  154SAPE  H11Y17192   4.322   1.299   9.355 -0.7741 -1.0692  0.4916
  154SAPE  C31217193   4.351   1.229   9.159 -0.7595  0.6750  0.3686
  154SAPE  H12X17194   4.309   1.319   9.110  0.3420  0.5956 -0.7596
  154SAPE  H12Y17195   4.267   1.157   9.173 -0.2946  0.3302  1.4923
  154SAPE  C31317196   4.468   1.168   9.071  0.3875 -0.3398  0.2285
  154SAPE  H13X17197   4.479   1.064   9.107  1.6626 -1.1920 -2.5061
  154SAPE  H13Y17198   4.565   1.214   9.099 -0.7715  1.7189  1.0525
  154SAPE  C31417199   4.429   1.162   8.925 -0.3699  0.0471  0.0178
  154SAPE  H14X17200   4.321   1.135   8.928 -0.3913  0.2258  1.2703
  154SAPE  H14Y17201   4.490   1.077   8.888  0.3624  0.3197  0.5983
  154SAPE  C31517202   4.452   1.305   8.864 -0.6804 -0.0737 -0.3612
  154SAPE  H15X17203   4.458   1.380   8.946  1.4662  0.3364 -0.8594
  154SAPE  H15Y17204   4.372   1.334   8.792 -2.0477  1.4132  1.6812
  154SAPE  C31617205   4.577   1.314   8.780 -0.4759 -0.4550 -0.6025
  154SAPE  H16X17206   4.657   1.257   8.831  1.0945  0.7886 -1.6087
  154SAPE  H16Y17207   4.619   1.417   8.778 -0.0521 -0.5812  1.1350
  154SAPE  C31717208   4.564   1.262   8.641 -0.2655 -0.6897 -0.1343
  154SAPE  H17X17209   4.480   1.310   8.587 -2.5391 -0.8657  3.0626
  154SAPE  H17Y17210   4.532   1.156   8.651 -0.0907 -0.7145  0.2046
  154SAPE  C31817211   4.694   1.275   8.560  0.3530  0.6698  0.0892
  154SAPE  H18X17212   4.775   1.213   8.603 -0.8951 -0.7526  0.4074
  154SAPE  H18Y17213   4.729   1.379   8.541  0.4165  0.4882 -0.8042
  154SAPE  H18Z17214   4.681   1.240   8.455  1.2493  3.5046 -1.0192
  155SAPE     N17215   6.092   2.268  10.839 -0.7477 -0.0290 -0.0370
  155SAPE   HN117216   6.041   2.180  10.816  0.7357 -0.5683 -1.3799
  155SAPE   HN217217   6.027   2.344  10.865 -0.4907  0.1654  0.0396
  155SAPE   HN317218   6.174   2.291  10.778 -2.4076  1.4892 -1.7662
  155SAPE   C1217219   6.155   2.225  10.966 -0.6056 -0.1418  0.1613
  155SAPE  H12A17220   6.070   2.174  11.017  0.5718 -0.3113  2.0258
  155SAPE  H12B17221   6.180   2.319  11.019  0.3230  1.8494 -3.6782
  155SAPE   C1117222   6.277   2.145  10.945  0.0964 -0.3305 -0.1444
  155SAPE  H11A17223   6.259   2.061  10.874  2.7304 -1.5322  0.5454
  155SAPE  H11B17224   6.312   2.105  11.042  2.3642  2.8866  0.4297
  155SAPE     P17225   6.503   2.176  10.816 -0.1022  0.3326  0.4839
  155SAPE   O1317226   6.582   2.286  10.763  0.2473  0.0771  0.5968
  155SAPE   O1417227   6.575   2.089  10.908 -0.5403  0.3492 -0.2511
  155SAPE   O1217228   6.377   2.231  10.895 -0.2793 -0.4891 -0.8392
  155SAPE   O1117229   6.434   2.103  10.696 -0.0832  0.5708 -0.1750
  155SAPE    C117230   6.461   1.964  10.652 -0.5185  0.4514  0.0722
  155SAPE    HA17231   6.570   1.951  10.638 -0.9324 -0.1588 -2.7508
  155SAPE    HB17232   6.427   1.897  10.735  0.6027 -0.3728 -0.1378
  155SAPE    C217233   6.386   1.929  10.516 -0.9739  0.0595  0.0778
  155SAPE    HS17234   6.436   1.841  10.471  1.5375  1.7703 -0.5915
  155SAPE   O2117235   6.394   2.044  10.429 -0.4530 -0.0271  0.2734
  155SAPE   C2117236   6.500   2.057  10.362  0.0733  0.3131 -0.2097
  155SAPE   O2217237   6.601   1.985  10.364  0.3096  0.0506 -0.0701
  155SAPE   C2217238   6.474   2.176  10.266  0.2933 -0.2436  0.0327
  155SAPE   H2R17239   6.370   2.213  10.252  0.5669  1.0166  1.1511
  155SAPE   H2S17240   6.531   2.263  10.304 -0.6003  0.7324 -0.8434
  155SAPE    C317241   6.236   1.908  10.541  0.3843  0.5518  0.0704
  155SAPE    HX17242   6.190   2.009  10.547 -0.4407  0.0939  1.7620
  155SAPE    HY17243   6.215   1.870  10.643 -0.5901  0.6102 -0.1053
  155SAPE   O3117244   6.170   1.817  10.442 -0.0360 -0.1308 -0.4094
  155SAPE   C3117245   6.091   1.875  10.347 -0.4750 -0.7039 -0.9809
  155SAPE   O3217246   6.064   1.996  10.339 -0.1911  0.2575  0.5107
  155SAPE   C3217247   6.043   1.773  10.245  0.3770 -0.4641  0.0781
  155SAPE   H2X17248   5.980   1.695  10.294 -0.2821 -1.0891 -1.7391
  155SAPE   H2Y17249   6.133   1.717  10.212  1.1740  1.1064 -0.4138
  155SAPE   C2317250   6.548   2.147  10.128  0.4657  0.3415  0.1983
  155SAPE   H3R17251   6.658   2.132  10.137  0.4853 -0.0542 -0.6601
  155SAPE   H3S17252   6.526   2.227  10.054  0.7760 -0.0700 -0.3366
  155SAPE   C2417253   6.498   2.014  10.064 -0.3888  0.3286 -0.5352
  155SAPE   H4R17254   6.514   1.938  10.143  4.1851  0.0491 -1.6025
  155SAPE   H4S17255   6.566   1.996   9.978 -1.2304 -0.6277 -1.0170
  155SAPE   C2517256   6.356   2.018  10.021 -0.0309 -0.3420  0.2608
  155SAPE   H5R17257   6.276   2.005  10.095 -1.3100  1.2177 -0.8360
  155SAPE   C2617258   6.323   2.060   9.899  0.3276 -0.2411 -0.2790
  155SAPE   H6R17259   6.220   2.062   9.861  0.3743  0.0986 -0.3867
  155SAPE   C2717260   6.419   2.099   9.785  0.2111  0.6715 -0.4225
  155SAPE   H7R17261   6.467   2.008   9.744 -1.1872  0.0165 -0.6222
  155SAPE   H7S17262   6.502   2.153   9.836  0.2322 -0.0028  0.2493
  155SAPE   C2817263   6.346   2.186   9.686 -0.6248  0.5983  0.8764
  155SAPE   H8R17264   6.346   2.296   9.692 -0.2117  1.0350 -4.6264
  155SAPE   C2917265   6.297   2.134   9.574  0.0620  0.1492 -0.1073
  155SAPE   H9R17266   6.259   2.206   9.500 -0.8344  0.3126  0.5090
  155SAPE  C21017267   6.297   1.985   9.534 -0.3665  0.1886  0.4521
  155SAPE  H10R17268   6.336   1.930   9.622 -0.1726  3.8637  2.7650
  155SAPE  H10S17269   6.367   1.960   9.452 -0.0206  0.2437  0.7314
  155SAPE  C21117270   6.155   1.938   9.502  0.2876 -0.1131  0.1397
  155SAPE  H11R17271   6.099   1.877   9.574 -1.3553  0.1083 -0.9171
  155SAPE  C21217272   6.104   1.962   9.379  0.1300 -0.2566  0.5373
  155SAPE  H12R17273   6.008   1.912   9.359 -0.7611  1.5817  0.0537
  155SAPE  C21317274   6.159   2.047   9.271 -0.6899  0.1446  0.2142
  155SAPE  H13R17275   6.237   2.112   9.316  0.2679 -1.4633  0.9224
  155SAPE  H13S17276   6.077   2.115   9.240 -1.1207 -1.2041 -1.6737
  155SAPE  C21417277   6.201   1.981   9.143  0.0861  0.0588  0.9985
  155SAPE  H14R17278   6.217   1.872   9.146  1.8915  0.3405  3.5711
  155SAPE  C21517279   6.208   2.038   9.021 -0.4427  0.5621 -0.3839
  155SAPE  H15R17280   6.244   1.976   8.938  4.1939  0.3396  1.6764
  155SAPE  C21617281   6.175   2.180   9.002 -0.8119 -0.1826 -0.0764
  155SAPE  H16R17282   6.254   2.241   8.952 -0.8121 -0.6090 -0.6020
  155SAPE  H16S17283   6.170   2.236   9.098  1.4598 -0.2264  0.1033
  155SAPE  C21717284   6.051   2.183   8.912 -0.2105 -0.4496  0.0577
  155SAPE  H17R17285   5.960   2.125   8.942 -0.7965 -1.9625 -4.2841
  155SAPE  H17S17286   6.086   2.146   8.814  0.1786  0.9920 -0.3503
  155SAPE  C21817287   6.017   2.333   8.894  0.2996  0.2970  0.0999
  155SAPE  H18R17288   6.077   2.381   8.814  0.7430 -1.2744 -0.5358
  155SAPE  H18S17289   6.020   2.387   8.991 -1.5305  2.6422 -1.0889
  155SAPE  C21917290   5.865   2.354   8.848 -1.1883  0.0884 -0.0065
  155SAPE  H19R17291   5.797   2.304   8.919  0.7248 -2.0689  0.3688
  155SAPE  H19S17292   5.839   2.302   8.753  1.0414  0.7355 -1.0075
  155SAPE  C22017293   5.832   2.501   8.830  0.6058  0.2071 -0.6195
  155SAPE  H20R17294   5.856   2.577   8.907 -1.1779  1.2908 -1.0805
  155SAPE  H20S17295   5.727   2.502   8.793  0.3868 -3.6106 -0.2276
  155SAPE  H20T17296   5.891   2.533   8.741  0.8234 -2.8564 -1.6253
  155SAPE   C3317297   5.963   1.843  10.136 -0.4765 -0.8304 -0.1732
  155SAPE   H3X17298   6.036   1.898  10.073  1.2847 -2.8892  0.0101
  155SAPE   H3Y17299   5.897   1.924  10.174  0.7219  0.0557  0.0528
  155SAPE   C3417300   5.893   1.738  10.059  0.8777 -0.1827 -0.5617
  155SAPE   H4X17301   5.858   1.654  10.122 -0.0440  0.4972 -0.1574
  155SAPE   H4Y17302   5.958   1.682   9.988 -0.2485  0.1906 -1.9145
  155SAPE   C3517303   5.778   1.792   9.968 -0.2844 -0.2908  0.5291
  155SAPE   H5X17304   5.709   1.845  10.036  0.8081  1.3662  0.3621
  155SAPE   H5Y17305   5.725   1.704   9.924 -0.1326  0.1047 -0.4504
  155SAPE   C3617306   5.834   1.864   9.848 -0.3756  0.3126  0.1587
  155SAPE   H6X17307   5.894   1.796   9.783 -1.0547  0.2476 -0.4096
  155SAPE   H6Y17308   5.897   1.954   9.863  1.7939 -0.6426 -2.5931
  155SAPE   C3717309   5.713   1.901   9.756 -0.4914 -0.3622 -0.3867
  155SAPE   H7X17310   5.669   1.996   9.791  0.6091  0.7150 -1.8528
  155SAPE   H7Y17311   5.641   1.817   9.761 -1.2782  0.4129  1.6849
  155SAPE   C3817312   5.761   1.911   9.609  0.1885  0.0861 -0.0112
  155SAPE   H8X17313   5.789   1.807   9.582  1.1930  1.1424 -3.2747
  155SAPE   H8Y17314   5.853   1.973   9.607  2.3092 -2.9743 -2.1906
  155SAPE   C3917315   5.655   1.970   9.523  0.4412  0.0570  0.8670
  155SAPE   H9X17316   5.625   2.070   9.563  1.3832  0.7163 -0.0381
  155SAPE   H9Y17317   5.563   1.909   9.524  0.3495  0.1660 -0.2711
  155SAPE  C31017318   5.694   1.986   9.377 -0.9579 -0.4056  0.2220
  155SAPE  H10X17319   5.725   1.892   9.326  3.0799 -0.3932  2.4340
  155SAPE  H10Y17320   5.777   2.059   9.369 -1.3260 -0.1758 -1.8741
  155SAPE  C31117321   5.566   2.041   9.307  0.5751  0.4354 -0.1999
  155SAPE  H11X17322   5.527   2.129   9.363 -2.0996  0.0650 -1.4377
  155SAPE  H11Y17323   5.480   1.972   9.313  1.9672 -1.2798  0.3229
  155SAPE  C31217324   5.593   2.080   9.163 -0.2525 -0.0395 -0.6885
  155SAPE  H12X17325   5.689   2.135   9.157 -0.2373  0.1111  0.7177
  155SAPE  H12Y17326   5.513   2.144   9.120 -0.0038  0.7520  0.0063
  155SAPE  C31317327   5.621   1.963   9.062  0.3939 -0.0169  0.1306
  155SAPE  H13X17328   5.531   1.899   9.065  1.8157 -2.0066  2.7673
  155SAPE  H13Y17329   5.703   1.898   9.100 -0.5108  0.0808  2.3028
  155SAPE  C31417330   5.646   1.995   8.919 -0.1725 -0.9933  0.6679
  155SAPE  H14X17331   5.627   1.899   8.865 -2.6597  0.1541 -0.5657
  155SAPE  H14Y17332   5.750   2.029   8.899 -0.7262  1.1324  1.3161
  155SAPE  C31517333   5.552   2.096   8.853 -0.1815 -0.9241 -0.3821
  155SAPE  H15X17334   5.552   2.193   8.907 -2.0684 -1.1803  0.1188
  155SAPE  H15Y17335   5.446   2.063   8.857 -0.7162  0.1825 -3.5288
  155SAPE  C31617336   5.590   2.126   8.707 -0.8548  1.2324  0.3443
  155SAPE  H16X17337   5.555   2.043   8.641  2.5819 -0.1958  0.1782
  155SAPE  H16Y17338   5.701   2.120   8.700 -0.8477  0.4658  1.0432
  155SAPE  C31717339   5.546   2.261   8.652  0.5238 -0.1821  0.1441
  155SAPE  H17X17340   5.593   2.332   8.723  0.9520  1.1747 -1.4760
  155SAPE  H17Y17341   5.437   2.270   8.671  0.2641 -1.9767 -0.3777
  155SAPE  C31817342   5.584   2.290   8.508  0.6473 -0.8687  0.7656
  155SAPE  H18X17343   5.694   2.296   8.494  0.8571 -1.6614  1.9839
  155SAPE  H18Y17344   5.536   2.387   8.483 -0.0413 -2.0869 -2.9879
  155SAPE  H18Z17345   5.538   2.218   8.438  0.8530  0.5026 -0.7972
  156SAPE     N17346   4.066   0.240  10.807  0.2913 -0.2262  0.0462
  156SAPE   HN117347   4.167   0.245  10.832  0.2838 -0.5648  0.1525
  156SAPE   HN217348   4.048   0.255  10.706 -0.9843  2.0085  0.5888
  156SAPE   HN317349   4.023   0.323  10.853  0.9842  0.3019 -0.2558
  156SAPE   C1217350   4.007   0.119  10.864 -0.0629 -0.7256  0.1164
  156SAPE  H12A17351   3.898   0.132  10.852  0.1955  2.1248  0.6102
  156SAPE  H12B17352   4.030   0.127  10.972 -0.1923  0.4853  0.0552
  156SAPE   C1117353   4.066  -0.008  10.794  0.1368 -0.2616  0.0553
  156SAPE  H11A17354   4.030  -0.099  10.847  2.5706 -1.0244  0.4907
  156SAPE  H11B17355   4.176   0.007  10.795  0.2055 -0.7593  0.3823
  156SAPE     P17356   4.066  -0.120  10.563 -0.1595 -0.2559  0.3950
  156SAPE   O1317357   4.210  -0.119  10.529 -0.5153 -0.6782  0.2199
  156SAPE   O1417358   4.013  -0.246  10.618  0.3526 -0.0560 -0.2766
  156SAPE   O1217359   4.024   0.006  10.656  0.1155 -0.0253  0.2222
  156SAPE   O1117360   3.997  -0.102  10.428 -0.3159  0.2425  0.3028
  156SAPE    C117361   3.927   0.013  10.380  0.1004 -0.1645 -0.1684
  156SAPE    HA17362   3.818  -0.009  10.389  0.2754 -0.4598  1.5000
  156SAPE    HB17363   3.937   0.100  10.449  1.3932 -0.0327 -0.5258
  156SAPE    C217364   3.959   0.049  10.230  0.2674 -0.0364 -0.2141
  156SAPE    HS17365   3.892   0.131  10.195 -0.7046  0.3156  2.3622
  156SAPE   O2117366   3.931  -0.065  10.145 -0.0674  0.2448  0.1129
  156SAPE   C2117367   3.807  -0.094  10.115  0.2114  0.0449 -0.0961
  156SAPE   O2217368   3.704  -0.041  10.147 -0.4373 -0.2379  0.2190
  156SAPE   C2217369   3.806  -0.201  10.004 -0.6404  0.1009  0.4139
  156SAPE   H2R17370   3.891  -0.175   9.937 -2.4091  2.5629 -0.9499
  156SAPE   H2S17371   3.833  -0.297  10.054  1.5044  2.0721  3.2152
  156SAPE    C317372   4.109   0.089  10.215  0.4723 -0.2241 -0.5667
  156SAPE    HX17373   4.177   0.008  10.247 -0.0087 -0.7937 -0.9840
  156SAPE    HY17374   4.127   0.169  10.289  0.6561 -0.3102 -0.5195
  156SAPE   O3117375   4.128   0.120  10.079  0.6478 -0.1626  0.4993
  156SAPE   C3117376   4.207   0.225  10.052 -0.0471 -0.5472  0.4765
  156SAPE   O3217377   4.283   0.281  10.130  0.0688  0.0077  0.2467
  156SAPE   C3217378   4.181   0.262   9.902 -0.3169 -0.1927 -0.5679
  156SAPE   H2X17379   4.175   0.372   9.903  0.5310 -0.1552  0.6713
  156SAPE   H2Y17380   4.083   0.215   9.877 -1.4528  1.3401  0.9230
  156SAPE   C2317381   3.673  -0.210   9.921 -0.0033 -0.6098 -0.6881
  156SAPE   H3R17382   3.638  -0.110   9.889 -2.4704 -1.3373 -0.4036
  156SAPE   H3S17383   3.590  -0.244   9.987 -0.4223 -0.0880 -0.9442
  156SAPE   C2417384   3.696  -0.300   9.796 -0.5127  0.0844  0.2392
  156SAPE   H4R17385   3.744  -0.398   9.819 -1.0456  0.0357  1.1781
  156SAPE   H4S17386   3.773  -0.248   9.735 -1.5896  1.0435 -0.3197
  156SAPE   C2517387   3.573  -0.321   9.715  0.7587  0.6230  0.7883
  156SAPE   H5R17388   3.511  -0.403   9.754  1.9645 -0.7852 -0.1771
  156SAPE   C2617389   3.539  -0.273   9.589  0.1359 -0.4789  0.2253
  156SAPE   H6R17390   3.448  -0.301   9.534 -0.4361  0.6963  0.5442
  156SAPE   C2717391   3.627  -0.180   9.507  0.2756 -0.7557 -0.3568
  156SAPE   H7R17392   3.724  -0.228   9.484  0.0149 -1.4914  0.0646
  156SAPE   H7S17393   3.655  -0.087   9.560 -1.6993 -0.4553  0.2232
  156SAPE   C2817394   3.563  -0.150   9.378  0.0948  0.1470 -0.2613
  156SAPE   H8R17395   3.505  -0.057   9.368  0.1163  0.2223  0.2560
  156SAPE   C2917396   3.554  -0.226   9.267 -0.0016 -0.3733 -0.1864
  156SAPE   H9R17397   3.496  -0.184   9.184 -0.5102 -1.2035 -0.2570
  156SAPE  C21017398   3.615  -0.365   9.258 -0.3261 -0.0479  0.4088
  156SAPE  H10R17399   3.535  -0.442   9.251 -0.9922  0.7584 -1.1820
  156SAPE  H10S17400   3.683  -0.385   9.343  0.8124  4.2642  0.5847
  156SAPE  C21117401   3.689  -0.365   9.125 -0.7546 -0.4669 -0.2270
  156SAPE  H11R17402   3.740  -0.269   9.107  0.1859 -0.8613  0.3032
  156SAPE  C21217403   3.695  -0.471   9.042 -0.8461 -0.0789  0.5782
  156SAPE  H12R17404   3.747  -0.457   8.946 -1.2585 -1.6914  0.0973
  156SAPE  C21317405   3.620  -0.598   9.077  0.1069  0.0065  0.2992
  156SAPE  H13R17406   3.605  -0.663   8.988 -1.4007 -0.8062  1.1269
  156SAPE  H13S17407   3.515  -0.569   9.095 -0.1110  1.6523 -3.2368
  156SAPE  C21417408   3.683  -0.668   9.195 -0.5125  0.8118 -0.6965
  156SAPE  H14R17409   3.693  -0.601   9.282  0.9403  1.8860 -1.6632
  156SAPE  C21517410   3.734  -0.793   9.202 -0.2902 -0.5489 -0.5915
  156SAPE  H15R17411   3.770  -0.835   9.297 -0.4107  0.1002 -0.2584
  156SAPE  C21617412   3.723  -0.897   9.087 -0.2210  0.1477 -0.1311
  156SAPE  H16R17413   3.635  -0.874   9.023 -0.5849 -0.6830  0.0712
  156SAPE  H16S17414   3.690  -0.994   9.129 -2.7728 -0.3854 -3.2066
  156SAPE  C21717415   3.859  -0.901   9.002  0.3581  0.2290 -0.2170
  156SAPE  H17R17416   3.853  -0.988   8.933 -2.2532 -0.5449  0.9361
  156SAPE  H17S17417   3.944  -0.910   9.074  0.7502  1.4741 -0.5071
  156SAPE  C21817418   3.876  -0.772   8.919  0.0962  0.5187  0.8115
  156SAPE  H18R17419   3.918  -0.699   8.992  1.9736 -0.6273  0.9122
  156SAPE  H18S17420   3.784  -0.722   8.883  0.0055  3.0365  4.2837
  156SAPE  C21917421   3.972  -0.794   8.798 -0.5246 -0.5292 -0.2045
  156SAPE  H19R17422   3.948  -0.884   8.738  0.1828 -0.8064 -0.0754
  156SAPE  H19S17423   4.070  -0.810   8.847 -1.1901  0.4644  1.5124
  156SAPE  C22017424   3.974  -0.678   8.698  0.0770 -0.3579 -0.2926
  156SAPE  H20R17425   3.875  -0.659   8.651 -0.6881 -1.9875  0.6035
  156SAPE  H20S17426   4.052  -0.705   8.623 -0.5114 -3.0755  0.0021
  156SAPE  H20T17427   4.007  -0.588   8.754 -0.6310 -0.2634 -0.0200
  156SAPE   C3317428   4.302   0.224   9.810 -0.4776  0.0449 -0.1137
  156SAPE   H3X17429   4.275   0.117   9.802 -0.8134  0.1476 -0.3732
  156SAPE   H3Y17430   4.401   0.235   9.859 -0.6588  0.6502  0.1228
  156SAPE   C3417431   4.300   0.301   9.675 -1.0365  0.4330 -0.1747
  156SAPE   H4X17432   4.326   0.409   9.686 -1.1339  0.5154 -0.7387
  156SAPE   H4Y17433   4.203   0.283   9.624 -0.7305 -0.2069 -0.5423
  156SAPE   C3517434   4.402   0.233   9.576  0.0860  0.5936 -0.4975
  156SAPE   H5X17435   4.368   0.131   9.549 -0.1643  0.4350  0.4173
  156SAPE   H5Y17436   4.501   0.229   9.627  0.4004 -1.7609 -1.2090
  156SAPE   C3617437   4.414   0.319   9.450  0.0559  0.7511 -0.2819
  156SAPE   H6X17438   4.517   0.296   9.415  0.8826  1.5856  1.5082
  156SAPE   H6Y17439   4.413   0.426   9.480  0.2103  0.5078  0.6147
  156SAPE   C3717440   4.304   0.291   9.349  0.4482 -0.2890  0.2856
  156SAPE   H7X17441   4.247   0.386   9.348  1.7682  0.5506  2.1664
  156SAPE   H7Y17442   4.233   0.212   9.382 -0.6111  0.0231 -1.1844
  156SAPE   C3817443   4.373   0.268   9.213 -0.1826  0.6604 -0.4595
  156SAPE   H8X17444   4.452   0.190   9.226  1.7163  2.5546 -0.2815
  156SAPE   H8Y17445   4.427   0.361   9.182 -0.5789  0.7131 -1.0073
  156SAPE   C3917446   4.283   0.210   9.096 -0.4364 -0.7007  0.6570
  156SAPE   H9X17447   4.199   0.281   9.083 -0.9618 -1.8540 -2.6705
  156SAPE   H9Y17448   4.244   0.116   9.139 -0.7622 -0.4829  0.8385
  156SAPE  C31017449   4.345   0.197   8.957 -0.7083 -0.1742 -0.4833
  156SAPE  H10X17450   4.264   0.152   8.896 -1.3037  1.8805 -1.2355
  156SAPE  H10Y17451   4.425   0.120   8.949 -1.5377 -1.2100  0.7982
  156SAPE  C31117452   4.382   0.324   8.885  0.2882  0.1434 -0.7876
  156SAPE  H11X17453   4.446   0.393   8.945 -1.3422  2.2126 -1.3840
  156SAPE  H11Y17454   4.291   0.388   8.879  0.1305 -0.0419 -0.4155
  156SAPE  C31217455   4.430   0.298   8.738 -0.3356  0.2957  0.4287
  156SAPE  H12X17456   4.357   0.236   8.681 -1.5866  1.9019  0.2663
  156SAPE  H12Y17457   4.533   0.257   8.747  0.4221  1.3919 -2.7458
  156SAPE  C31317458   4.445   0.440   8.676 -0.1812  0.9289  0.7353
  156SAPE  H13X17459   4.538   0.482   8.720 -0.0486  0.3768  0.9807
  156SAPE  H13Y17460   4.353   0.499   8.699 -0.7521  0.1482  0.4702
  156SAPE  C31417461   4.469   0.440   8.522 -0.7730  0.3876  0.3575
  156SAPE  H14X17462   4.556   0.376   8.499 -1.3417 -0.0729 -0.5252
  156SAPE  H14Y17463   4.498   0.544   8.494  1.0448 -0.2771 -0.2966
  156SAPE  C31517464   4.361   0.390   8.432  0.2989 -0.2619 -0.5890
  156SAPE  H15X17465   4.260   0.434   8.445  0.2919 -0.2843 -0.5670
  156SAPE  H15Y17466   4.362   0.280   8.449 -0.3562 -0.2279 -0.3192
  156SAPE  C31617467   4.400   0.409   8.282  0.1270  0.3721  0.1283
  156SAPE  H16X17468   4.502   0.367   8.267 -0.0944  0.9224 -3.3110
  156SAPE  H16Y17469   4.395   0.519   8.268  1.4293  0.3089 -0.9529
  156SAPE  C31717470   4.297   0.350   8.178  0.0852  0.0734 -0.6326
  156SAPE  H17X17471   4.275   0.241   8.182 -1.4068  0.4423  3.1130
  156SAPE  H17Y17472   4.346   0.373   8.081  0.7633  1.5303  0.0420
  156SAPE  C31817473   4.161   0.418   8.188 -0.0472 -0.3314  0.9020
  156SAPE  H18X17474   4.099   0.404   8.096  1.2915 -2.6407  0.3059
  156SAPE  H18Y17475   4.174   0.528   8.177  0.4047 -0.5157 -0.5706
  156SAPE  H18Z17476   4.094   0.384   8.269 -1.0881  1.4521  0.8061
  157SAPE     N17477   2.565   0.452  10.627  0.2411 -0.2089 -0.1081
  157SAPE   HN117478   2.566   0.400  10.537  0.3526 -1.9627  0.8800
  157SAPE   HN217479   2.475   0.500  10.649  0.1877 -1.2279  2.0755
  157SAPE   HN317480   2.637   0.527  10.636 -0.2561  0.0223  2.3980
  157SAPE   C1217481   2.583   0.358  10.739  0.2627  0.8188  0.6613
  157SAPE  H12A17482   2.617   0.414  10.828  1.0827 -1.8566  2.0923
  157SAPE  H12B17483   2.673   0.296  10.720  0.9737  1.3735  2.1779
  157SAPE   C1117484   2.465   0.268  10.778 -0.5017  0.5429  0.1619
  157SAPE  H11A17485   2.366   0.317  10.790  0.0370  1.1619  2.3163
  157SAPE  H11B17486   2.475   0.231  10.882 -1.6021 -0.4739 -0.0840
  157SAPE     P17487   2.477   0.014  10.720  0.0347 -0.4107 -0.6291
  157SAPE   O1317488   2.598   0.031  10.811 -0.1994 -0.1441  0.0136
  157SAPE   O1417489   2.359  -0.062  10.780 -0.5826 -0.6756 -0.4671
  157SAPE   O1217490   2.434   0.162  10.684 -0.7172  0.2596 -0.2637
  157SAPE   O1117491   2.511  -0.058  10.585  0.5263  0.0017 -0.4009
  157SAPE    C117492   2.610   0.014  10.510 -0.1642  0.0678  0.2207
  157SAPE    HA17493   2.584   0.121  10.496  0.7772  0.2084 -0.5283
  157SAPE    HB17494   2.709   0.018  10.560 -0.3450  1.6376  0.4848
  157SAPE    C217495   2.627  -0.054  10.373 -0.2341  0.0491  0.2006
  157SAPE    HS17496   2.702   0.004  10.315  0.5856  0.2175  1.4094
  157SAPE   O2117497   2.502  -0.062  10.299 -0.1581 -0.2137  1.0924
  157SAPE   C2117498   2.471   0.053  10.253 -0.2396 -0.0506 -0.1879
  157SAPE   O2217499   2.533   0.160  10.258  0.1970  0.1424 -0.0042
  157SAPE   C2217500   2.343   0.034  10.179 -0.3414 -0.0369  0.2218
  157SAPE   H2R17501   2.353  -0.044  10.101 -0.9665  0.7135 -0.6155
  157SAPE   H2S17502   2.273  -0.008  10.254  1.4067 -1.4322  1.0831
  157SAPE    C317503   2.695  -0.190  10.386 -0.1699  0.1354 -0.2196
  157SAPE    HX17504   2.627  -0.231  10.464 -0.7915  1.2298 -0.1616
  157SAPE    HY17505   2.800  -0.184  10.421 -0.0929  2.5314 -0.7622
  157SAPE   O3117506   2.706  -0.264  10.259  0.3316 -1.2845 -0.9522
  157SAPE   C3117507   2.627  -0.369  10.237 -0.3376  1.3076  0.2050
  157SAPE   O3217508   2.531  -0.408  10.306 -0.2339  0.2981  0.2517
  157SAPE   C3217509   2.666  -0.420  10.097  0.1012 -0.0247 -0.6641
  157SAPE   H2X17510   2.770  -0.460  10.101  0.4674  0.8514 -1.2879
  157SAPE   H2Y17511   2.672  -0.326  10.038 -0.3077  0.9423  0.8139
  157SAPE   C2317512   2.291   0.176  10.123 -0.0801  0.4162  0.6096
  157SAPE   H3R17513   2.360   0.215  10.045  1.5937 -1.0515  1.3089
  157SAPE   H3S17514   2.288   0.254  10.201  0.4696 -0.3642  1.4278
  157SAPE   C2417515   2.146   0.143  10.075  0.4141  0.1602 -0.2265
  157SAPE   H4R17516   2.081   0.118  10.161  2.1502 -1.6450  0.5766
  157SAPE   H4S17517   2.134   0.059  10.003 -1.8420  0.3139 -0.0904
  157SAPE   C2517518   2.094   0.275  10.018  0.3497  0.3624 -0.0514
  157SAPE   H5R17519   2.081   0.357  10.090 -1.0529 -0.9022  1.1598
  157SAPE   C2617520   2.047   0.297   9.893 -0.3814  0.6653  0.6730
  157SAPE   H6R17521   2.015   0.399   9.867 -2.7626  0.1907  1.6633
  157SAPE   C2717522   2.051   0.203   9.773 -0.0405 -0.0887 -0.3684
  157SAPE   H7R17523   2.033   0.099   9.808 -0.5743  0.7800  2.0805
  157SAPE   H7S17524   2.149   0.200   9.722  1.2935  0.2750  2.1270
  157SAPE   C2817525   1.926   0.246   9.697  0.4139 -0.1450 -0.0282
  157SAPE   H8R17526   1.837   0.270   9.758  2.3897 -0.1558  2.9509
  157SAPE   C2917527   1.917   0.258   9.559  0.1012  0.8936 -0.0848
  157SAPE   H9R17528   1.817   0.288   9.525  1.4346  5.8583 -0.0056
  157SAPE  C21017529   2.021   0.239   9.454  0.3917 -0.4578 -0.1929
  157SAPE  H10R17530   2.126   0.244   9.490  0.1842  1.0926  0.2424
  157SAPE  H10S17531   2.020   0.314   9.372 -3.9459 -1.2068 -0.9387
  157SAPE  C21117532   2.001   0.109   9.388  0.4636 -0.4437  0.2571
  157SAPE  H11R17533   1.970   0.030   9.457  2.3014 -3.0281 -1.7582
  157SAPE  C21217534   2.048   0.078   9.265 -0.2909  0.8212 -0.4427
  157SAPE  H12R17535   2.015  -0.021   9.228 -1.1959  0.7819  0.4072
  157SAPE  C21317536   2.118   0.154   9.160  0.3484  0.1951 -0.3587
  157SAPE  H13R17537   2.181   0.087   9.099 -0.0495 -2.4164  1.9784
  157SAPE  H13S17538   2.181   0.233   9.205  0.1724 -0.2189  0.6429
  157SAPE  C21417539   2.010   0.219   9.069 -0.3467  0.3890 -0.8008
  157SAPE  H14R17540   1.948   0.298   9.114  1.6891  1.8558 -0.5174
  157SAPE  C21517541   1.996   0.189   8.937 -0.5503  0.0956  0.3386
  157SAPE  H15R17542   1.931   0.260   8.884  1.5838  1.3961 -0.6479
  157SAPE  C21617543   2.071   0.095   8.840  0.5740 -0.2274 -0.3820
  157SAPE  H16R17544   2.052  -0.013   8.858  2.5759 -0.6213 -0.6135
  157SAPE  H16S17545   2.180   0.115   8.850  0.9429 -0.8174 -3.0423
  157SAPE  C21717546   2.034   0.140   8.700  0.4988  0.1067 -0.6088
  157SAPE  H17R17547   1.924   0.130   8.686 -0.1496  2.1977  2.4101
  157SAPE  H17S17548   2.087   0.087   8.619  1.9044  0.7252 -0.1059
  157SAPE  C21817549   2.061   0.290   8.670 -0.8420 -0.4001 -0.4894
  157SAPE  H18R17550   2.170   0.306   8.655 -1.2974  2.2371 -1.2669
  157SAPE  H18S17551   2.034   0.363   8.749  0.7905  0.2594 -0.5333
  157SAPE  C21917552   1.983   0.331   8.547  0.3468  0.0543 -0.4479
  157SAPE  H19R17553   2.000   0.247   8.476 -1.1586  0.8576 -1.7984
  157SAPE  H19S17554   2.029   0.425   8.508 -1.1747  1.3258  0.7689
  157SAPE  C22017555   1.833   0.340   8.563  0.2244 -0.8416 -0.3017
  157SAPE  H20R17556   1.805   0.414   8.640 -2.5424  0.4218 -2.4309
  157SAPE  H20S17557   1.785   0.242   8.584 -1.7850 -0.5173 -3.0224
  157SAPE  H20T17558   1.770   0.371   8.477 -0.3946 -0.2009  0.3777
  157SAPE   C3317559   2.569  -0.530  10.049  0.2101  0.0913 -0.1730
  157SAPE   H3X17560   2.474  -0.481  10.018  1.0799 -0.0833 -3.2906
  157SAPE   H3Y17561   2.530  -0.594  10.131 -2.3404 -1.3737 -2.4427
  157SAPE   C3417562   2.627  -0.616   9.931 -0.2620  0.1031  0.0060
  157SAPE   H4X17563   2.555  -0.699   9.918 -0.6028  0.5279 -0.8409
  157SAPE   H4Y17564   2.734  -0.639   9.951  0.1140  0.9939 -0.9485
  157SAPE   C3517565   2.641  -0.537   9.797 -0.3671  0.1937 -0.4017
  157SAPE   H5X17566   2.733  -0.476   9.800  0.3797 -0.8821 -1.1461
  157SAPE   H5Y17567   2.548  -0.477   9.786  0.0666  0.7967 -0.7505
  157SAPE   C3617568   2.643  -0.630   9.674 -0.4160 -0.1805 -0.2067
  157SAPE   H6X17569   2.563  -0.707   9.664 -0.5115  0.2661 -3.2262
  157SAPE   H6Y17570   2.737  -0.690   9.678 -1.1328 -1.3159 -0.0727
  157SAPE   C3717571   2.637  -0.559   9.543 -0.1751  0.0531 -0.0401
  157SAPE   H7X17572   2.717  -0.485   9.520  0.9683 -0.9747  0.5636
  157SAPE   H7Y17573   2.540  -0.505   9.550 -1.5311 -2.2034 -0.8987
  157SAPE   C3817574   2.616  -0.660   9.428  0.5811  0.1251 -0.1662
  157SAPE   H8X17575   2.537  -0.732   9.461  0.2999 -0.5721 -2.2683
  157SAPE   H8Y17576   2.704  -0.721   9.397  0.9665  1.5685 -1.9269
  157SAPE   C3917577   2.553  -0.610   9.296  0.0806  0.5713 -0.6975
  157SAPE   H9X17578   2.560  -0.696   9.226  0.6868  0.3887 -0.4181
  157SAPE   H9Y17579   2.619  -0.527   9.262  0.2065  1.5406  1.8319
  157SAPE  C31017580   2.407  -0.561   9.320 -0.5357  0.4426  0.2109
  157SAPE  H10X17581   2.408  -0.478   9.394 -1.8336  0.6408  0.0236
  157SAPE  H10Y17582   2.348  -0.647   9.359  0.2683 -1.4839 -2.6957
  157SAPE  C31117583   2.336  -0.530   9.186  0.2819  0.5138 -0.2649
  157SAPE  H11X17584   2.229  -0.534   9.213  0.4083 -1.0692  0.0307
  157SAPE  H11Y17585   2.377  -0.597   9.107  0.4132 -0.3547  0.5287
  157SAPE  C31217586   2.357  -0.389   9.140 -0.4548 -0.0288 -0.1101
  157SAPE  H12X17587   2.466  -0.375   9.129 -0.4779  1.1397  1.0934
  157SAPE  H12Y17588   2.326  -0.315   9.216 -0.0196 -2.3989  2.4497
  157SAPE  C31317589   2.302  -0.347   9.003  0.0880 -0.3097 -0.9146
  157SAPE  H13X17590   2.198  -0.313   9.023 -0.1196 -1.2011 -0.4589
  157SAPE  H13Y17591   2.293  -0.442   8.946  0.8302 -1.6121  1.0874
  157SAPE  C31417592   2.387  -0.247   8.917 -0.3035 -0.1792 -0.0598
  157SAPE  H14X17593   2.422  -0.176   8.995 -0.8546  0.5371 -0.4556
  157SAPE  H14Y17594   2.330  -0.188   8.842 -0.4069  0.2940  0.3913
  157SAPE  C31517595   2.503  -0.319   8.846  0.3026 -0.1525 -0.3497
  157SAPE  H15X17596   2.463  -0.402   8.784 -0.0749 -0.4667  0.3047
  157SAPE  H15Y17597   2.580  -0.370   8.909  0.3491 -0.8327 -0.9563
  157SAPE  C31617598   2.574  -0.219   8.747  0.2500 -0.5348  0.2056
  157SAPE  H16X17599   2.606  -0.129   8.803  3.9556 -1.5092 -0.1804
  157SAPE  H16Y17600   2.503  -0.202   8.663  1.0050 -1.8822 -0.7197
  157SAPE  C31717601   2.700  -0.281   8.692 -0.7205  0.1303 -0.8321
  157SAPE  H17X17602   2.763  -0.311   8.778 -1.0613  1.2425 -0.1825
  157SAPE  H17Y17603   2.757  -0.203   8.636  1.1658 -0.4418  0.2653
  157SAPE  C31817604   2.672  -0.401   8.599  0.3639 -0.3808 -0.5603
  157SAPE  H18X17605   2.625  -0.485   8.653 -2.2145  0.3084 -1.6863
  157SAPE  H18Y17606   2.762  -0.439   8.546 -0.0223 -1.7551 -0.2362
  157SAPE  H18Z17607   2.591  -0.369   8.530  0.8010  0.9268 -0.4900
  158SAPE     N17608   3.989   0.846  10.630 -0.8144  0.0382  0.2711
  158SAPE   HN117609   3.987   0.854  10.527  0.2406 -1.0439  0.1515
  158SAPE   HN217610   4.019   0.937  10.668  1.4619 -0.3944 -0.4511
  158SAPE   HN317611   4.060   0.772  10.650 -1.5554 -0.7751 -0.0594
  158SAPE   C1217612   3.853   0.804  10.686  0.0112  0.2793  0.6708
  158SAPE  H12A17613   3.786   0.891  10.671 -0.2410 -0.1760 -0.8928
  158SAPE  H12B17614   3.876   0.775  10.791  1.7939 -1.7748 -0.2566
  158SAPE   C1117615   3.797   0.682  10.610  0.0360  0.4281  0.9231
  158SAPE  H11A17616   3.797   0.719  10.506  2.0703  2.2169  1.5256
  158SAPE  H11B17617   3.691   0.656  10.631  0.2683 -1.1447  0.2426
  158SAPE     P17618   3.837   0.436  10.551  0.4037 -0.1846  0.0427
  158SAPE   O1317619   3.943   0.340  10.572 -0.1966 -0.1802  0.3852
  158SAPE   O1417620   3.709   0.396  10.608  0.5833  0.0593 -0.0084
  158SAPE   O1217621   3.875   0.565  10.635 -0.3844 -0.6247  0.0736
  158SAPE   O1117622   3.820   0.490  10.403  0.0986 -0.3363  0.1447
  158SAPE    C117623   3.931   0.528  10.331  0.4292 -0.0528 -0.8013
  158SAPE    HA17624   3.982   0.613  10.382  0.6003  0.3334 -1.5968
  158SAPE    HB17625   4.004   0.447  10.310  0.4490 -0.4208  0.6649
  158SAPE    C217626   3.884   0.578  10.196  0.3383  0.4251 -0.1283
  158SAPE    HS17627   3.788   0.630  10.217  0.9174  1.0050  1.1451
  158SAPE   O2117628   3.865   0.464  10.111 -0.0074 -0.1425 -0.2202
  158SAPE   C2117629   3.745   0.412  10.102  1.1172 -0.0772 -0.0450
  158SAPE   O2217630   3.642   0.436  10.166  0.2574 -0.2573 -0.1373
  158SAPE   C2217631   3.755   0.290  10.006  0.6664  0.5847 -0.0594
  158SAPE   H2R17632   3.864   0.270   9.995  0.3454 -0.7853 -0.7674
  158SAPE   H2S17633   3.713   0.205  10.064  0.1238  1.4362  0.8097
  158SAPE    C317634   3.983   0.671  10.126 -0.1477 -0.4404  0.0976
  158SAPE    HX17635   4.083   0.629  10.100 -0.9191  0.0895 -4.1963
  158SAPE    HY17636   4.016   0.761  10.181  0.0344  0.9651 -2.2433
  158SAPE   O3117637   3.925   0.733  10.008 -0.7113 -0.3105  0.0984
  158SAPE   C3117638   3.953   0.677   9.885 -0.3068 -0.0337  0.0300
  158SAPE   O3217639   4.045   0.603   9.864 -0.3083 -0.4633  0.3706
  158SAPE   C3217640   3.850   0.731   9.785 -0.3607 -0.1375  1.1514
  158SAPE   H2X17641   3.875   0.837   9.762  1.3474 -0.3937  1.8237
  158SAPE   H2Y17642   3.755   0.716   9.840  0.2218 -2.3856  1.5602
  158SAPE   C2317643   3.684   0.317   9.872 -0.7985  0.6776 -0.9354
  158SAPE   H3R17644   3.724   0.411   9.829  0.0518 -0.5453 -2.8788
  158SAPE   H3S17645   3.577   0.335   9.896 -0.1920  0.5137  2.1809
  158SAPE   C2417646   3.683   0.209   9.758  0.0495 -0.3290  0.0690
  158SAPE   H4R17647   3.632   0.248   9.668  0.6058 -1.0956 -0.5806
  158SAPE   H4S17648   3.631   0.129   9.815  3.3156 -2.5404  0.0749
  158SAPE   C2517649   3.820   0.158   9.713 -0.2954  0.1914  0.3707
  158SAPE   H5R17650   3.895   0.129   9.788  0.4159  0.1920 -0.3330
  158SAPE   C2617651   3.872   0.153   9.588 -0.2708  0.7049  0.8240
  158SAPE   H6R17652   3.978   0.122   9.579 -0.1708  0.7865  1.7348
  158SAPE   C2717653   3.806   0.184   9.453  0.0971  0.2367 -0.2586
  158SAPE   H7R17654   3.729   0.264   9.452  0.7350  0.8577 -2.8338
  158SAPE   H7S17655   3.745   0.095   9.428 -1.3908  1.0848  0.2802
  158SAPE   C2817656   3.910   0.209   9.351 -0.3668  0.0319  0.3295
  158SAPE   H8R17657   4.014   0.233   9.379  0.2897 -1.3730 -0.8496
  158SAPE   C2917658   3.902   0.194   9.215  0.3503  0.1116  0.1062
  158SAPE   H9R17659   3.985   0.205   9.144  2.2296 -0.7205  2.1240
  158SAPE  C21017660   3.780   0.134   9.143  0.9649  0.0481 -0.8859
  158SAPE  H10R17661   3.728   0.052   9.196 -0.1696  0.2096 -1.7089
  158SAPE  H10S17662   3.805   0.081   9.049  1.6083 -0.5590 -0.3691
  158SAPE  C21117663   3.683   0.250   9.117  0.4214 -0.4731  0.3313
  158SAPE  H11R17664   3.614   0.271   9.200 -0.0991  4.7792 -1.2026
  158SAPE  C21217665   3.678   0.327   9.010  0.3815  0.6203  0.9362
  158SAPE  H12R17666   3.615   0.417   9.005  0.4222  0.6867  1.5470
  158SAPE  C21317667   3.764   0.327   8.880 -0.4310  0.0543 -0.2382
  158SAPE  H13R17668   3.691   0.334   8.796 -0.7060 -0.3389 -0.0317
  158SAPE  H13S17669   3.811   0.228   8.865 -1.1459 -0.4984  1.1198
  158SAPE  C21417670   3.870   0.430   8.873  0.5565 -0.2355  0.5315
  158SAPE  H14R17671   3.876   0.492   8.964  0.6266 -0.9687  1.0270
  158SAPE  C21517672   3.949   0.454   8.772 -0.2325 -0.3260  0.0408
  158SAPE  H15R17673   4.033   0.523   8.785 -0.1477 -0.4405  0.1017
  158SAPE  C21617674   3.955   0.378   8.645 -0.3612  0.1306 -0.3564
  158SAPE  H16R17675   3.891   0.288   8.634  0.6976 -0.4729 -1.7061
  158SAPE  H16S17676   4.059   0.345   8.626  0.2038  2.0333 -0.7025
  158SAPE  C21717677   3.922   0.469   8.527  0.1883 -0.8090  0.3777
  158SAPE  H17R17678   3.814   0.497   8.533  0.6747  0.7190  2.3072
  158SAPE  H17S17679   3.931   0.416   8.429  1.0737 -0.1666  0.1110
  158SAPE  C21817680   4.012   0.589   8.520 -0.2866 -0.3604 -0.4236
  158SAPE  H18R17681   4.116   0.554   8.501 -0.5338 -2.2187  1.5084
  158SAPE  H18S17682   4.012   0.641   8.619 -1.1753 -0.3823 -0.4152
  158SAPE  C21917683   3.973   0.679   8.406  0.3895 -0.1061  0.4505
  158SAPE  H19R17684   3.866   0.709   8.404 -0.1817 -2.1172 -0.7251
  158SAPE  H19S17685   3.980   0.625   8.309  2.8576  1.1113 -0.0797
  158SAPE  C22017686   4.063   0.799   8.409 -0.1581  0.3011  0.7660
  158SAPE  H20R17687   4.170   0.776   8.390  0.6468  1.7214  3.3378
  158SAPE  H20S17688   4.067   0.825   8.517  0.1412 -1.1228  1.0993
  158SAPE  H20T17689   4.015   0.876   8.344 -0.3603 -0.9188 -0.5645
  158SAPE   C3317690   3.852   0.647   9.650 -0.0872 -0.4421 -0.8689
  158SAPE   H3X17691   3.748   0.664   9.614 -0.4348  0.9447  0.7127
  158SAPE   H3Y17692   3.855   0.542   9.684 -0.4711 -0.1269  0.1814
  158SAPE   C3417693   3.945   0.684   9.533  0.0458  0.9037 -0.4281
  158SAPE   H4X17694   4.044   0.635   9.551 -0.5403  0.0579  0.5479
  158SAPE   H4Y17695   3.968   0.793   9.537  0.4628  0.8030  0.0468
  158SAPE   C3517696   3.877   0.653   9.400 -0.6519 -0.0925 -0.3302
  158SAPE   H5X17697   3.782   0.710   9.392 -0.2048  0.8474  0.9427
  158SAPE   H5Y17698   3.842   0.548   9.401  3.0073 -1.3939  0.1884
  158SAPE   C3617699   3.952   0.683   9.265 -0.7693  0.3246  0.1698
  158SAPE   H6X17700   3.907   0.631   9.178  2.0706  1.4561 -2.0908
  158SAPE   H6Y17701   4.057   0.647   9.252 -0.5876 -0.0029  2.3854
  158SAPE   C3717702   3.944   0.830   9.230 -0.7773 -0.9486  0.4534
  158SAPE   H7X17703   4.019   0.873   9.300  1.0025 -2.0650 -0.7200
  158SAPE   H7Y17704   3.845   0.871   9.259 -0.6869 -0.7971  0.5482
  158SAPE   C3817705   3.985   0.856   9.081  0.1148 -0.0098 -0.0444
  158SAPE   H8X17706   3.913   0.796   9.022 -0.3586  1.1341 -0.6623
  158SAPE   H8Y17707   4.085   0.814   9.056  1.8911  4.5729 -1.2054
  158SAPE   C3917708   3.987   1.000   9.035 -0.8638 -0.8303 -0.1381
  158SAPE   H9X17709   4.088   1.040   9.056 -0.9961 -0.0020 -1.0084
  158SAPE   H9Y17710   3.912   1.056   9.095 -1.2399 -0.6695 -0.7540
  158SAPE  C31017711   3.957   1.011   8.887 -0.4501 -0.6508  0.1688
  158SAPE  H10X17712   4.016   0.934   8.832 -0.6748  0.4671 -1.6726
  158SAPE  H10Y17713   3.986   1.111   8.847  1.5626 -1.4023 -0.3121
  158SAPE  C31117714   3.810   0.984   8.854 -0.2037  0.1677 -0.0676
  158SAPE  H11X17715   3.754   1.051   8.922  0.3081  0.0243  0.5007
  158SAPE  H11Y17716   3.769   0.884   8.877 -1.1473  0.3006 -1.1436
  158SAPE  C31217717   3.787   1.020   8.705 -0.1147 -0.3207 -0.0115
  158SAPE  H12X17718   3.789   0.917   8.662  0.2477 -0.7130  0.9436
  158SAPE  H12Y17719   3.869   1.079   8.657  0.2448 -0.4750  0.4134
  158SAPE  C31317720   3.648   1.081   8.682 -0.2752 -0.0626  0.0569
  158SAPE  H13X17721   3.643   1.165   8.755  0.1670 -1.4551  1.7159
  158SAPE  H13Y17722   3.573   1.004   8.710 -0.3422  0.3975  1.1772
  158SAPE  C31417723   3.626   1.131   8.540 -0.0591 -0.7733 -0.6263
  158SAPE  H14X17724   3.635   1.044   8.470 -0.4767 -1.0682 -0.3150
  158SAPE  H14Y17725   3.700   1.207   8.506  1.6786 -1.4491  1.5303
  158SAPE  C31517726   3.484   1.185   8.518  0.6909 -0.0698  0.0578
  158SAPE  H15X17727   3.452   1.251   8.602  0.9217  0.8465 -0.5751
  158SAPE  H15Y17728   3.404   1.107   8.519 -0.6287  1.2648  1.6039
  158SAPE  C31617729   3.481   1.245   8.376  0.8448  0.6860  0.4268
  158SAPE  H16X17730   3.517   1.165   8.309  0.9754  1.0535  0.0591
  158SAPE  H16Y17731   3.557   1.327   8.370  0.3630  1.0111 -1.4282
  158SAPE  C31717732   3.345   1.320   8.338 -0.4752 -0.0139 -0.1310
  158SAPE  H17X17733   3.330   1.397   8.417  0.8330  1.7042 -1.5249
  158SAPE  H17Y17734   3.266   1.242   8.345 -0.5084 -0.1953 -2.3500
  158SAPE  C31817735   3.349   1.401   8.208  0.1205 -0.3220  1.2247
  158SAPE  H18X17736   3.404   1.497   8.209  0.0141 -0.2540  0.3627
  158SAPE  H18Y17737   3.252   1.408   8.155  0.8538  4.2140  0.3291
  158SAPE  H18Z17738   3.417   1.353   8.135 -0.7074  0.5955 -0.1505
  159SAPE     N17739   3.733   4.715   6.406 -0.0466 -0.2831  0.1915
  159SAPE   HN117740   3.631   4.701   6.420  0.0005 -1.2277 -0.3960
  159SAPE   HN217741   3.783   4.632   6.368 -1.4407 -0.1574 -1.9431
  159SAPE   HN317742   3.779   4.742   6.496  2.2988 -0.1691 -0.9873
  159SAPE   C1217743   3.751   4.841   6.321 -0.1071  0.0396  0.4338
  159SAPE  H12A17744   3.758   4.809   6.215  1.9082  0.9006  0.2764
  159SAPE  H12B17745   3.851   4.887   6.339  0.9755 -1.5138 -1.4173
  159SAPE   C1117746   3.638   4.945   6.349  0.2601  0.4507 -0.5345
  159SAPE  H11A17747   3.668   5.039   6.298  1.0643  0.7415  0.4631
  159SAPE  H11B17748   3.627   4.975   6.455 -2.1734  2.3029 -1.2540
  159SAPE     P17749   3.402   4.845   6.382 -0.3123  0.1741 -0.1251
  159SAPE   O1317750   3.273   4.828   6.311  0.2669 -0.4722  0.3939
  159SAPE   O1417751   3.467   4.726   6.439  0.0294  0.0295  0.7979
  159SAPE   O1217752   3.513   4.907   6.296 -0.1290  0.1044 -0.3795
  159SAPE   O1117753   3.386   4.942   6.507  0.4800 -0.4800 -0.0562
  159SAPE    C117754   3.292   4.922   6.617 -0.6729 -0.7570  0.2665
  159SAPE    HA17755   3.249   5.019   6.651  2.2654  0.4665  0.6895
  159SAPE    HB17756   3.203   4.864   6.586 -0.9521 -0.8343  1.2018
  159SAPE    C217757   3.352   4.835   6.733  0.6200 -0.7516 -0.0876
  159SAPE    HS17758   3.375   4.738   6.684 -0.3648 -1.7032  1.3089
  159SAPE   O2117759   3.269   4.816   6.849 -0.8539  0.4011 -0.2840
  159SAPE   C2117760   3.171   4.724   6.836 -0.5697 -0.9904  0.3015
  159SAPE   O2217761   3.157   4.656   6.738  0.0492 -0.4043  0.7793
  159SAPE   C2217762   3.086   4.723   6.956 -0.1816  0.2876 -0.0698
  159SAPE   H2R17763   3.150   4.753   7.041 -1.9327  1.0465  0.9942
  159SAPE   H2S17764   3.014   4.807   6.944 -0.6533 -0.3991 -2.3991
  159SAPE    C317765   3.493   4.903   6.769  0.4679  0.7692  0.0063
  159SAPE    HX17766   3.476   5.010   6.793  2.1743  0.4585  2.7924
  159SAPE    HY17767   3.569   4.897   6.688  0.2568 -0.9153 -0.0674
  159SAPE   O3117768   3.559   4.851   6.891  0.1096  0.0593 -0.0737
  159SAPE   C3117769   3.619   4.735   6.874 -0.0097 -0.5592 -0.2321
  159SAPE   O3217770   3.614   4.671   6.768 -0.6734 -0.2830  0.0687
  159SAPE   C3217771   3.681   4.675   6.998 -0.0304 -0.2904  0.1948
  159SAPE   H2X17772   3.693   4.753   7.077  2.2263 -1.4739  1.0701
  159SAPE   H2Y17773   3.782   4.632   6.985  0.1268  0.0957  0.1242
  159SAPE   C2317774   3.019   4.586   6.993  0.1484 -0.2784 -0.4177
  159SAPE   H3R17775   3.000   4.536   6.895  4.9663 -0.3130 -1.4579
  159SAPE   H3S17776   2.927   4.601   7.053  0.9086  1.6719  0.3067
  159SAPE   C2417777   3.108   4.495   7.079 -0.4782 -0.4657  0.2005
  159SAPE   H4R17778   3.207   4.485   7.029 -1.0541  0.5412 -1.1815
  159SAPE   H4S17779   3.061   4.395   7.063  0.2012 -0.3651 -2.8796
  159SAPE   C2517780   3.133   4.552   7.220  0.1449  0.0498  0.3054
  159SAPE   H5R17781   3.189   4.647   7.224  1.1834 -0.4542 -1.5945
  159SAPE   C2617782   3.086   4.492   7.335  0.1051 -0.3403 -0.6205
  159SAPE   H6R17783   3.110   4.537   7.432  2.2839 -0.2723 -1.1554
  159SAPE   C2717784   3.001   4.372   7.334  0.2074 -0.2342  0.5182
  159SAPE   H7R17785   3.056   4.275   7.326  0.5529  0.1900 -2.7244
  159SAPE   H7S17786   2.932   4.371   7.248  2.2405 -1.1587 -1.1507
  159SAPE   C2817787   2.904   4.363   7.449 -0.3392 -0.6042  0.1911
  159SAPE   H8R17788   2.804   4.392   7.412 -0.6324  1.8826  2.8159
  159SAPE   C2917789   2.932   4.328   7.573  0.1761 -0.4285 -0.1758
  159SAPE   H9R17790   2.853   4.334   7.649  1.8181  0.3473  1.5196
  159SAPE  C21017791   3.065   4.295   7.629 -0.0551 -0.1972 -0.0633
  159SAPE  H10R17792   3.141   4.354   7.572  0.9236  0.3076  1.7198
  159SAPE  H10S17793   3.100   4.191   7.611  0.5431 -0.4587  2.4752
  159SAPE  C21117794   3.081   4.316   7.779 -0.5102 -0.6255  0.0106
  159SAPE  H11R17795   3.120   4.417   7.798 -0.6155 -0.3852 -1.0296
  159SAPE  C21217796   3.057   4.228   7.876  0.4619 -0.4722 -0.1090
  159SAPE  H12R17797   3.061   4.264   7.980 -2.7369 -0.7281  0.1397
  159SAPE  C21317798   3.012   4.086   7.864  0.2461 -0.1760 -0.3479
  159SAPE  H13R17799   3.047   4.034   7.956 -3.4800  0.2698  1.4322
  159SAPE  H13S17800   3.064   4.028   7.784  1.3590  0.3202  0.0141
  159SAPE  C21417801   2.869   4.084   7.831  0.2988 -0.1504  0.2375
  159SAPE  H14R17802   2.806   4.151   7.892  1.0985  0.1803  0.7058
  159SAPE  C21517803   2.810   4.015   7.733  0.2813 -0.5580  0.2598
  159SAPE  H15R17804   2.701   4.009   7.739  0.0878  1.2237 -1.0588
  159SAPE  C21617805   2.869   3.919   7.627  0.0141  0.1592 -0.2913
  159SAPE  H16R17806   2.976   3.898   7.650  0.3796  1.8644 -0.3526
  159SAPE  H16S17807   2.867   3.983   7.536 -0.7919  1.4435  0.6166
  159SAPE  C21717808   2.799   3.784   7.598 -0.2574  0.2644 -0.9432
  159SAPE  H17R17809   2.799   3.732   7.696  0.8504  1.1269 -0.4790
  159SAPE  H17S17810   2.870   3.733   7.530 -1.2114  0.9816 -2.5036
  159SAPE  C21817811   2.653   3.789   7.547  0.0040 -0.2257 -0.1511
  159SAPE  H18R17812   2.642   3.861   7.464  1.0183 -1.0712 -1.0367
  159SAPE  H18S17813   2.602   3.828   7.638 -0.0197 -0.8784  0.1190
  159SAPE  C21917814   2.621   3.644   7.490  1.5854  0.4179 -0.5001
  159SAPE  H19R17815   2.529   3.607   7.541  1.4836  0.0662 -0.9335
  159SAPE  H19S17816   2.704   3.575   7.517  0.4493 -1.0373 -0.6632
  159SAPE  C22017817   2.584   3.647   7.342 -0.6005 -0.2881  0.2780
  159SAPE  H20R17818   2.662   3.706   7.288 -2.2007  1.3143 -0.3249
  159SAPE  H20S17819   2.488   3.703   7.331  0.0756  1.3888  2.4889
  159SAPE  H20T17820   2.561   3.546   7.301 -0.0961 -0.9951  1.7153
  159SAPE   C3317821   3.593   4.558   7.062 -0.3988 -0.7131 -0.2086
  159SAPE   H3X17822   3.647   4.489   7.130 -2.3502 -0.8715  1.2187
  159SAPE   H3Y17823   3.573   4.490   6.977 -1.5090 -0.1383 -0.4127
  159SAPE   C3417824   3.458   4.605   7.121 -1.0546  0.1182  0.4981
  159SAPE   H4X17825   3.396   4.514   7.133  0.5215 -0.8039  1.9089
  159SAPE   H4Y17826   3.414   4.680   7.052 -0.4856 -1.3943 -1.5366
  159SAPE   C3517827   3.473   4.677   7.260 -0.1024 -0.0639  0.2954
  159SAPE   H5X17828   3.376   4.711   7.302 -0.3395  1.7567 -1.6336
  159SAPE   H5Y17829   3.525   4.776   7.256 -0.5621  0.1019 -2.2097
  159SAPE   C3617830   3.534   4.597   7.369 -0.0946  0.1647 -0.0622
  159SAPE   H6X17831   3.639   4.568   7.346 -0.6143 -1.5890 -0.3310
  159SAPE   H6Y17832   3.472   4.505   7.376 -1.8912  1.5604  3.6066
  159SAPE   C3717833   3.524   4.667   7.514  0.3483 -0.1109 -0.0637
  159SAPE   H7X17834   3.555   4.774   7.509 -0.4432  0.2939  2.7047
  159SAPE   H7Y17835   3.584   4.598   7.577 -3.5623 -2.6932  1.0110
  159SAPE   C3817836   3.379   4.658   7.571 -0.0278  0.1915 -0.4948
  159SAPE   H8X17837   3.353   4.550   7.575 -0.9374  0.4800  4.4547
  159SAPE   H8Y17838   3.313   4.712   7.499  0.0217 -0.6025 -1.1401
  159SAPE   C3917839   3.359   4.713   7.717 -0.3264 -0.8933 -0.0266
  159SAPE   H9X17840   3.250   4.713   7.739 -0.3612 -0.5274 -0.1860
  159SAPE   H9Y17841   3.391   4.819   7.720 -0.3848 -0.8315 -1.0788
  159SAPE  C31017842   3.449   4.643   7.819  0.2533  0.0442  1.2249
  159SAPE  H10X17843   3.554   4.642   7.784 -0.5006  1.6314 -1.1360
  159SAPE  H10Y17844   3.425   4.535   7.829  1.5576 -0.2937  0.8722
  159SAPE  C31117845   3.449   4.715   7.955  0.3887 -0.5012 -0.2783
  159SAPE  H11X17846   3.436   4.826   7.950 -1.0294 -0.6976 -1.6188
  159SAPE  H11Y17847   3.553   4.709   7.991 -0.7356 -0.9121  3.1057
  159SAPE  C31217848   3.336   4.674   8.052 -1.2165 -0.1186 -0.2403
  159SAPE  H12X17849   3.239   4.717   8.017 -1.5820 -0.6201  0.1522
  159SAPE  H12Y17850   3.353   4.721   8.151  0.1848 -0.5631 -0.2637
  159SAPE  C31317851   3.332   4.524   8.090  0.2811 -0.3846  0.3691
  159SAPE  H13X17852   3.438   4.492   8.102  0.9080  0.7260 -1.9552
  159SAPE  H13Y17853   3.300   4.468   8.000 -1.1305 -2.1838  1.9294
  159SAPE  C31417854   3.226   4.495   8.191  0.3051 -0.1780  0.0592
  159SAPE  H14X17855   3.124   4.520   8.153  0.0273 -2.0869 -0.5477
  159SAPE  H14Y17856   3.251   4.566   8.272 -1.1192  0.0410  0.3233
  159SAPE  C31517857   3.208   4.344   8.234  0.6730 -0.7708 -0.1726
  159SAPE  H15X17858   3.292   4.315   8.301  1.6083 -0.0970 -1.0340
  159SAPE  H15Y17859   3.228   4.282   8.144 -1.8000 -0.6067 -0.8713
  159SAPE  C31617860   3.079   4.305   8.306 -0.1456 -0.0268 -0.0493
  159SAPE  H16X17861   2.991   4.342   8.250  1.1623  1.3062 -1.2474
  159SAPE  H16Y17862   3.061   4.358   8.403  0.5182 -0.0488  0.0870
  159SAPE  C31717863   3.069   4.151   8.325 -0.1248 -0.3589  0.4080
  159SAPE  H17X17864   3.137   4.137   8.411  1.2249  0.0201 -0.5658
  159SAPE  H17Y17865   3.118   4.100   8.239  0.7927 -0.6071  1.0765
  159SAPE  C31817866   2.927   4.102   8.360 -0.1859 -0.0507 -0.0686
  159SAPE  H18X17867   2.845   4.118   8.287 -1.2202 -0.8976  0.9127
  159SAPE  H18Y17868   2.906   4.158   8.454  0.4474 -1.8338  1.1602
  159SAPE  H18Z17869   2.920   3.996   8.391 -1.2921 -0.2798 -1.0881
  160SAPE     N17870   2.351   6.158   6.107  0.1526  0.4350  0.5135
  160SAPE   HN117871   2.454   6.162   6.093  0.3936 -0.9586  1.7433
  160SAPE   HN217872   2.310   6.062   6.103 -1.1548  0.9948  0.3968
  160SAPE   HN317873   2.314   6.208   6.025 -0.3466  0.0102  0.4777
  160SAPE   C1217874   2.318   6.241   6.224  0.1571 -0.5658  0.2905
  160SAPE  H12A17875   2.207   6.246   6.231  0.1710 -1.1070  0.9524
  160SAPE  H12B17876   2.350   6.345   6.201  1.1376 -0.0882  3.5514
  160SAPE   C1117877   2.387   6.199   6.357 -0.0466  0.4162  0.4022
  160SAPE  H11A17878   2.365   6.271   6.439  1.7802  0.9499  0.4322
  160SAPE  H11B17879   2.495   6.209   6.337  0.0638  1.6173  1.5090
  160SAPE     P17880   2.283   6.002   6.498 -0.1461 -0.1977  0.2989
  160SAPE   O1317881   2.222   5.873   6.453 -0.5541  0.9428  0.6355
  160SAPE   O1417882   2.361   6.000   6.623  0.2071 -0.2693  0.0104
  160SAPE   O1217883   2.369   6.055   6.378 -0.4097  0.5863  0.4567
  160SAPE   O1117884   2.173   6.117   6.507  0.8232  0.3080  0.3439
  160SAPE    C117885   2.152   6.181   6.636 -0.1753  0.2304 -0.2410
  160SAPE    HA17886   2.249   6.221   6.671 -0.0042  0.7557 -1.2962
  160SAPE    HB17887   2.088   6.271   6.622 -5.7058 -3.5640 -1.3612
  160SAPE    C217888   2.088   6.082   6.744 -0.9587 -0.7528  0.9306
  160SAPE    HS17889   2.138   5.984   6.734  0.3179 -0.0634  0.4803
  160SAPE   O2117890   1.946   6.066   6.717 -0.0616  0.4650 -0.3235
  160SAPE   C2117891   1.890   5.961   6.761  0.1560 -0.1030 -0.6196
  160SAPE   O2217892   1.941   5.872   6.824  0.3165  0.5361 -0.4834
  160SAPE   C2217893   1.739   5.963   6.722  0.6315 -0.7431 -0.2814
  160SAPE   H2R17894   1.712   6.070   6.710  1.4294 -0.4567  0.4950
  160SAPE   H2S17895   1.742   5.914   6.622  0.3257  0.2013 -0.7652
  160SAPE    C317896   2.107   6.127   6.893 -0.4175 -0.3791 -0.6892
  160SAPE    HX17897   2.072   6.041   6.954 -0.0581 -0.3533 -0.4440
  160SAPE    HY17898   2.028   6.205   6.901  0.7091  0.6627  0.3574
  160SAPE   O3117899   2.241   6.175   6.916  0.2053 -0.0839 -0.4932
  160SAPE   C3117900   2.328   6.075   6.958  0.0374 -0.0803  0.9290
  160SAPE   O3217901   2.296   5.958   6.963 -0.2040 -0.2796 -0.2243
  160SAPE   C3217902   2.462   6.136   7.004 -0.1957 -0.4414  0.1512
  160SAPE   H2X17903   2.480   6.233   6.954  3.0930 -0.4542  1.1785
  160SAPE   H2Y17904   2.541   6.068   6.966 -2.1000 -0.7115 -3.4591
  160SAPE   C2317905   1.645   5.872   6.813  0.0958 -0.8106  0.4110
  160SAPE   H3R17906   1.679   5.768   6.794 -1.7201 -1.4620  0.6243
  160SAPE   H3S17907   1.543   5.895   6.775  1.1544 -0.2401 -2.1973
  160SAPE   C2417908   1.658   5.893   6.964 -0.0746 -0.5910 -0.9984
  160SAPE   H4R17909   1.642   6.000   6.988 -0.6464 -0.6171 -1.2718
  160SAPE   H4S17910   1.763   5.863   6.984 -0.4233 -1.5391 -0.5253
  160SAPE   C2517911   1.576   5.793   7.046 -0.3893 -0.2459  0.8975
  160SAPE   H5R17912   1.473   5.772   7.014  0.2983 -1.2165 -0.7900
  160SAPE   C2617913   1.625   5.714   7.145 -0.4335 -0.0525 -0.1357
  160SAPE   H6R17914   1.560   5.641   7.195 -0.2520  0.9152  1.5517
  160SAPE   C2717915   1.765   5.712   7.204  0.0353 -0.7231 -0.6483
  160SAPE   H7R17916   1.832   5.761   7.130 -0.3668  1.3768  0.3542
  160SAPE   H7S17917   1.791   5.604   7.203  0.1630 -0.6892 -1.4524
  160SAPE   C2817918   1.781   5.795   7.333 -0.9220  0.3909  0.5806
  160SAPE   H8R17919   1.771   5.904   7.320  0.5668  0.5082  0.2369
  160SAPE   C2917920   1.798   5.749   7.461  0.3405 -0.6850 -0.5729
  160SAPE   H9R17921   1.795   5.823   7.542  2.2683 -1.9856  0.7251
  160SAPE  C21017922   1.813   5.606   7.507 -0.2334 -0.1433 -0.4463
  160SAPE  H10R17923   1.909   5.601   7.561 -0.3000  0.9509 -0.2083
  160SAPE  H10S17924   1.826   5.540   7.418 -3.9000  0.2014 -1.3223
  160SAPE  C21117925   1.713   5.549   7.598  0.4369 -1.0380 -0.8266
  160SAPE  H11R17926   1.627   5.501   7.549  0.8182 -0.5679 -1.9486
  160SAPE  C21217927   1.702   5.548   7.736 -0.2455  0.0790  0.2566
  160SAPE  H12R17928   1.613   5.510   7.788 -0.6589 -3.8443 -3.0821
  160SAPE  C21317929   1.809   5.610   7.823  0.3928 -0.0980  0.5185
  160SAPE  H13R17930   1.908   5.582   7.780  1.0303 -0.9740  2.5224
  160SAPE  H13S17931   1.797   5.564   7.923  1.3369  1.2058  1.2445
  160SAPE  C21417932   1.807   5.761   7.826 -0.1774 -0.0144 -0.4054
  160SAPE  H14R17933   1.889   5.808   7.769 -0.7574  0.2080 -1.0706
  160SAPE  C21517934   1.723   5.841   7.895  0.0100 -1.0561  0.1405
  160SAPE  H15R17935   1.741   5.949   7.888  1.8949 -1.3091  0.7476
  160SAPE  C21617936   1.609   5.797   7.987 -0.0181  0.4818 -0.1141
  160SAPE  H16R17937   1.618   5.688   8.011  1.0389  0.7203  0.6037
  160SAPE  H16S17938   1.519   5.806   7.922 -0.1204 -0.7181 -0.1565
  160SAPE  C21717939   1.598   5.880   8.110 -0.1440  0.1014 -0.4964
  160SAPE  H17R17940   1.508   5.843   8.164 -1.4869  1.8777 -1.4745
  160SAPE  H17S17941   1.598   5.989   8.091  1.4636  0.0421 -0.8926
  160SAPE  C21817942   1.705   5.843   8.217 -0.1037 -0.5350 -0.3000
  160SAPE  H18R17943   1.803   5.847   8.164 -0.4493 -0.4436 -0.9312
  160SAPE  H18S17944   1.687   5.740   8.253 -2.8733  0.0676  0.1100
  160SAPE  C21917945   1.722   5.935   8.338 -0.3266 -0.3259  0.3819
  160SAPE  H19R17946   1.626   5.935   8.394 -0.0807 -1.5112  0.7944
  160SAPE  H19S17947   1.745   6.041   8.312  0.8298 -1.2154 -2.3993
  160SAPE  C22017948   1.835   5.888   8.426  0.0802  0.6777 -0.2715
  160SAPE  H20R17949   1.929   5.932   8.386  0.7986  0.9869  1.6969
  160SAPE  H20S17950   1.848   5.778   8.420 -0.0330  0.6918 -0.7763
  160SAPE  H20T17951   1.814   5.916   8.532 -0.6701 -1.7379  0.2544
  160SAPE   C3317952   2.481   6.145   7.160 -0.2869 -0.6254 -1.0914
  160SAPE   H3X17953   2.586   6.133   7.194 -0.5669  0.7967  0.3561
  160SAPE   H3Y17954   2.442   6.051   7.204 -1.1402 -0.9449 -2.5239
  160SAPE   C3417955   2.407   6.266   7.224  0.2732  0.2099  0.1436
  160SAPE   H4X17956   2.323   6.283   7.153 -1.4329  1.1468  2.3146
  160SAPE   H4Y17957   2.464   6.361   7.222 -0.0961  0.4411  0.5269
  160SAPE   C3517958   2.355   6.235   7.366  0.9876  0.0711 -0.1630
  160SAPE   H5X17959   2.444   6.257   7.429  0.0875 -2.4610  2.0687
  160SAPE   H5Y17960   2.326   6.127   7.369 -2.5509  0.8560 -2.5674
  160SAPE   C3617961   2.240   6.316   7.408  0.0817 -0.0974  0.7855
  160SAPE   H6X17962   2.148   6.284   7.353 -1.2565 -1.6054  3.8097
  160SAPE   H6Y17963   2.242   6.427   7.398 -0.3410 -0.1121  0.4888
  160SAPE   C3717964   2.196   6.298   7.556  0.7236  0.6116 -0.3070
  160SAPE   H7X17965   2.225   6.199   7.598  1.2782  0.4881 -0.9743
  160SAPE   H7Y17966   2.087   6.317   7.564  0.8895  1.1167  0.8056
  160SAPE   C3817967   2.263   6.403   7.637 -0.4160 -0.4585  0.0211
  160SAPE   H8X17968   2.232   6.503   7.601 -3.6323 -1.5562 -0.4154
  160SAPE   H8Y17969   2.372   6.382   7.634 -0.5941 -1.3061 -1.0492
  160SAPE   C3917970   2.227   6.391   7.791  0.3185  0.9553 -1.0259
  160SAPE   H9X17971   2.287   6.307   7.832  0.6165  0.8341 -1.7040
  160SAPE   H9Y17972   2.117   6.376   7.798  0.6999 -1.2912  0.9273
  160SAPE  C31017973   2.269   6.521   7.855  0.0717  0.9788  1.1182
  160SAPE  H10X17974   2.201   6.599   7.814 -0.7417  0.3459  1.2624
  160SAPE  H10Y17975   2.375   6.542   7.830  0.5465 -1.0247  1.4080
  160SAPE  C31117976   2.243   6.534   8.006 -0.2854 -0.0021  0.0592
  160SAPE  H11X17977   2.318   6.597   8.058  0.9331 -1.9942  0.8021
  160SAPE  H11Y17978   2.261   6.439   8.061 -0.6040 -0.2519 -0.2738
  160SAPE  C31217979   2.103   6.576   8.049  0.1591 -0.4632 -0.0535
  160SAPE  H12X17980   2.034   6.507   7.996  0.4447 -2.4777  2.1038
  160SAPE  H12Y17981   2.075   6.683   8.033  0.2670 -0.3484  0.5182
  160SAPE  C31317982   2.076   6.550   8.199  0.0231  0.3726 -0.5407
  160SAPE  H13X17983   2.170   6.578   8.251 -1.8002 -0.0299  3.1130
  160SAPE  H13Y17984   2.073   6.439   8.207 -1.1376  0.4152 -0.2441
  160SAPE  C31417985   1.958   6.620   8.255 -0.3552 -0.1371 -0.8429
  160SAPE  H14X17986   1.861   6.592   8.210 -1.5604  0.6503  1.1799
  160SAPE  H14Y17987   1.973   6.727   8.230 -0.7128  0.4261  1.2368
  160SAPE  C31517988   1.965   6.610   8.407  0.5025  0.4964 -0.1118
  160SAPE  H15X17989   2.055   6.669   8.435  1.3344 -0.0881 -1.5105
  160SAPE  H15Y17990   2.003   6.513   8.447 -1.5358 -0.0535  0.5503
  160SAPE  C31617991   1.840   6.680   8.476  0.7334  0.0374 -0.5304
  160SAPE  H16X17992   1.748   6.645   8.425  0.9311 -1.8331  0.3362
  160SAPE  H16Y17993   1.851   6.791   8.472 -1.2184  0.2617 -0.3936
  160SAPE  C31717994   1.832   6.636   8.618  0.1910  0.3844  0.2604
  160SAPE  H17X17995   1.925   6.656   8.675 -0.3093  2.1858  0.4647
  160SAPE  H17Y17996   1.829   6.525   8.616 -0.1510  0.4003 -0.2673
  160SAPE  C31817997   1.712   6.695   8.689  0.3497  0.4893  0.3720
  160SAPE  H18X17998   1.712   6.652   8.791  0.5704  1.5635  0.8254
  160SAPE  H18Y17999   1.614   6.672   8.641  0.9689  1.0374 -1.2080
  160SAPE  H18Z18000   1.712   6.806   8.690 -0.1035  0.4846  1.2672
  161SAPE     N18001   4.664   3.685   6.420 -0.4802  0.2462 -0.1334
  161SAPE   HN118002   4.679   3.774   6.368  2.1458 -0.1614 -0.1571
  161SAPE   HN218003   4.588   3.708   6.487 -0.9220 -1.5866  0.0248
  161SAPE   HN318004   4.749   3.664   6.476  0.6085 -1.9734 -2.4942
  161SAPE   C1218005   4.619   3.573   6.327 -0.3900 -0.2636 -0.0467
  161SAPE  H12A18006   4.647   3.474   6.370  0.6107  0.2795  0.5459
  161SAPE  H12B18007   4.674   3.588   6.232 -1.2633  1.9415 -0.2278
  161SAPE   C1118008   4.463   3.558   6.322  0.2712 -0.0979 -0.9466
  161SAPE  H11A18009   4.420   3.536   6.422 -1.9046 -0.8256 -2.0040
  161SAPE  H11B18010   4.421   3.484   6.251  0.1587 -0.0991 -0.8795
  161SAPE     P18011   4.269   3.724   6.271  0.2365  0.4031  0.0931
  161SAPE   O1318012   4.254   3.861   6.213 -0.6615  0.1194 -0.0363
  161SAPE   O1418013   4.199   3.613   6.208  0.3848 -0.2620 -0.2335
  161SAPE   O1218014   4.422   3.686   6.276  0.5677  0.0397 -0.1589
  161SAPE   O1118015   4.221   3.721   6.422 -0.2409  0.1393 -0.0498
  161SAPE    C118016   4.265   3.816   6.518  0.5211 -0.3150  0.6455
  161SAPE    HA18017   4.376   3.809   6.531  0.6725 -0.0893 -0.4525
  161SAPE    HB18018   4.235   3.919   6.489 -0.0377 -0.1384  1.8294
  161SAPE    C218019   4.204   3.788   6.660 -0.8726  0.7709 -0.2337
  161SAPE    HS18020   4.252   3.694   6.694 -1.2976 -0.0722 -1.9038
  161SAPE   O2118021   4.061   3.786   6.640  0.1153  0.0866  0.8046
  161SAPE   C2118022   4.000   3.717   6.733 -0.5133  0.4999 -0.3885
  161SAPE   O2218023   4.052   3.665   6.833 -0.0142 -0.7056  0.2798
  161SAPE   C2218024   3.859   3.713   6.692 -0.1305  0.5207  0.5499
  161SAPE   H2R18025   3.825   3.810   6.650 -0.9015  0.0747  0.1352
  161SAPE   H2S18026   3.841   3.651   6.601 -1.7904  2.6654 -0.6374
  161SAPE    C318027   4.248   3.901   6.769  0.1468 -0.2595  0.8221
  161SAPE    HX18028   4.214   3.998   6.727 -0.8472 -0.1948  1.7423
  161SAPE    HY18029   4.358   3.913   6.768 -0.1394  2.6044  1.2723
  161SAPE   O3118030   4.198   3.886   6.904 -0.0516  0.0250 -0.2168
  161SAPE   C3118031   4.273   3.807   6.977 -0.0999 -0.4959 -0.1433
  161SAPE   O3218032   4.384   3.763   6.952  0.0585  0.0343  0.2759
  161SAPE   C3218033   4.195   3.796   7.110 -0.5685  0.0186  1.3453
  161SAPE   H2X18034   4.143   3.698   7.101 -1.8042  0.7779  0.0753
  161SAPE   H2Y18035   4.110   3.863   7.133  0.0680  0.7421  1.6192
  161SAPE   C2318036   3.763   3.668   6.805  0.7138  0.5406  0.3728
  161SAPE   H3R18037   3.817   3.592   6.865  1.5414 -0.7356 -1.9208
  161SAPE   H3S18038   3.670   3.633   6.756  1.4173  1.3194 -1.5773
  161SAPE   C2418039   3.725   3.785   6.895 -0.0608  0.2735 -0.4819
  161SAPE   H4R18040   3.708   3.867   6.822  0.1684  1.0434  0.3301
  161SAPE   H4S18041   3.814   3.814   6.953 -0.7050  1.4937 -0.0840
  161SAPE   C2518042   3.603   3.770   6.983  0.3855 -0.4662 -0.1321
  161SAPE   H5R18043   3.505   3.772   6.934 -0.5702 -3.5350  1.5268
  161SAPE   C2618044   3.593   3.761   7.119 -0.5250 -0.1999 -0.0241
  161SAPE   H6R18045   3.490   3.754   7.156  0.0106 -2.5069  1.1443
  161SAPE   C2718046   3.702   3.761   7.224  0.1263 -0.4112 -0.0842
  161SAPE   H7R18047   3.682   3.840   7.300  1.1190  0.2029 -0.4454
  161SAPE   H7S18048   3.798   3.793   7.176  0.9152  0.3542  1.9292
  161SAPE   C2818049   3.714   3.625   7.284 -0.2395 -0.0821 -0.5671
  161SAPE   H8R18050   3.686   3.546   7.213 -0.2873  0.4522 -1.1564
  161SAPE   C2918051   3.767   3.599   7.404  0.1507  0.2805  0.4381
  161SAPE   H9R18052   3.772   3.496   7.441  1.4342 -0.5128 -1.8658
  161SAPE  C21018053   3.820   3.707   7.505  0.0549  0.5627 -0.1631
  161SAPE  H10R18054   3.856   3.793   7.445  4.4426 -2.0621 -1.5471
  161SAPE  H10S18055   3.907   3.663   7.559  0.0004 -1.6602 -1.8115
  161SAPE  C21118056   3.713   3.764   7.597 -0.0569 -0.2716 -0.0047
  161SAPE  H11R18057   3.616   3.787   7.551  0.0580 -0.8977 -0.5651
  161SAPE  C21218058   3.720   3.799   7.726  0.2278  0.3750  0.0044
  161SAPE  H12R18059   3.638   3.855   7.774  1.8263  1.1367  1.9169
  161SAPE  C21318060   3.835   3.800   7.819 -0.3582  0.2397 -0.3557
  161SAPE  H13R18061   3.929   3.777   7.764 -0.1526  1.9747 -0.7521
  161SAPE  H13S18062   3.816   3.727   7.902  0.6350 -0.0284 -0.3443
  161SAPE  C21418063   3.874   3.929   7.879  0.0358  0.1792 -0.3722
  161SAPE  H14R18064   3.826   4.020   7.841 -2.0430 -0.7511 -0.0340
  161SAPE  C21518065   3.956   3.939   7.987  0.3953 -0.3999  0.0975
  161SAPE  H15R18066   3.977   4.036   8.034  1.7994 -0.9811  0.6841
  161SAPE  C21618067   4.021   3.821   8.057 -0.3118 -0.4578  0.4051
  161SAPE  H16R18068   4.119   3.839   8.106 -0.6263  0.4627  0.6927
  161SAPE  H16S18069   4.027   3.722   8.007 -0.1152 -0.5668  0.6398
  161SAPE  C21718070   3.923   3.791   8.175 -0.1071 -0.1222  0.0570
  161SAPE  H17R18071   3.970   3.713   8.239 -0.6640 -0.2351  0.3343
  161SAPE  H17S18072   3.836   3.739   8.130  0.0685  0.9640 -1.5657
  161SAPE  C21818073   3.879   3.901   8.278  0.0832 -0.0653 -0.0080
  161SAPE  H18R18074   3.804   3.854   8.346 -0.9654 -0.6139 -1.5195
  161SAPE  H18S18075   3.827   3.980   8.220 -0.6208  0.8594  1.8370
  161SAPE  C21918076   3.996   3.955   8.359  0.1461 -0.0335 -0.4274
  161SAPE  H19R18077   4.064   4.006   8.288  0.9752 -0.7314 -0.1457
  161SAPE  H19S18078   4.050   3.873   8.412 -1.1672 -1.5969 -1.4760
  161SAPE  C22018079   3.959   4.064   8.457 -0.0024 -0.2346 -0.2329
  161SAPE  H20R18080   4.052   4.086   8.514  0.1030  0.9970 -0.8697
  161SAPE  H20S18081   3.890   4.022   8.533 -0.3316  2.3786  0.9638
  161SAPE  H20T18082   3.915   4.161   8.426 -0.8131 -0.6277 -0.3376
  161SAPE   C3318083   4.272   3.800   7.238 -0.9564 -0.0119 -0.2981
  161SAPE   H3X18084   4.320   3.900   7.236 -0.3790 -0.2999 -1.0228
  161SAPE   H3Y18085   4.362   3.735   7.235 -0.8302  0.1668 -0.3310
  161SAPE   C3418086   4.197   3.762   7.371  0.0087 -0.6383  0.1272
  161SAPE   H4X18087   4.169   3.655   7.382 -0.0499 -0.5023  1.4205
  161SAPE   H4Y18088   4.100   3.814   7.386  0.9940  1.3945 -0.5007
  161SAPE   C3518089   4.275   3.803   7.496 -0.1724 -0.4635  0.1561
  161SAPE   H5X18090   4.257   3.912   7.506 -0.1134 -0.4409  0.0307
  161SAPE   H5Y18091   4.386   3.800   7.494 -0.1189  0.2898  1.3426
  161SAPE   C3618092   4.232   3.728   7.622 -0.1036  0.3766 -0.2733
  161SAPE   H6X18093   4.243   3.618   7.607 -1.1773  0.2723 -0.3260
  161SAPE   H6Y18094   4.125   3.752   7.640  0.2351  1.2492  0.5874
  161SAPE   C3718095   4.310   3.763   7.751 -0.5753  0.0354  0.3523
  161SAPE   H7X18096   4.270   3.857   7.796  1.5577  1.5462 -0.8046
  161SAPE   H7Y18097   4.418   3.785   7.743 -0.6665  0.7573  1.0256
  161SAPE   C3818098   4.318   3.640   7.836  0.3453  0.1443 -0.0856
  161SAPE   H8X18099   4.385   3.570   7.782  0.4937 -1.4281  2.0515
  161SAPE   H8Y18100   4.221   3.586   7.850  0.3646  0.0853 -0.1772
  161SAPE   C3918101   4.361   3.665   7.978  0.1014  0.0592 -0.4952
  161SAPE   H9X18102   4.274   3.715   8.023 -0.9720 -1.7515 -0.4956
  161SAPE   H9Y18103   4.442   3.741   7.982 -2.9642  3.3478  1.2720
  161SAPE  C31018104   4.392   3.540   8.053  0.2905 -0.3829 -0.0269
  161SAPE  H10X18105   4.476   3.484   8.005 -0.8080 -2.4223  0.3756
  161SAPE  H10Y18106   4.306   3.469   8.052 -0.8239  0.9719 -1.3637
  161SAPE  C31118107   4.429   3.575   8.195 -0.1015  0.0497  0.0261
  161SAPE  H11X18108   4.524   3.632   8.182  0.3553 -0.1206  2.3960
  161SAPE  H11Y18109   4.472   3.484   8.242  0.2584  0.7453  1.0756
  161SAPE  C31218110   4.322   3.649   8.288  0.1899 -0.0815 -0.1223
  161SAPE  H12X18111   4.233   3.584   8.288 -0.4687  0.7901  2.5019
  161SAPE  H12Y18112   4.284   3.742   8.240 -2.3406 -0.6232  0.7876
  161SAPE  C31318113   4.388   3.672   8.424 -0.4077  0.3626 -0.3443
  161SAPE  H13X18114   4.475   3.737   8.398  0.0898  0.5844  1.7941
  161SAPE  H13Y18115   4.414   3.570   8.459 -1.8743 -0.3702 -1.3585
  161SAPE  C31418116   4.293   3.747   8.518 -0.8359  0.3310  0.0825
  161SAPE  H14X18117   4.245   3.835   8.471 -1.9371  0.0613  0.6546
  161SAPE  H14Y18118   4.355   3.787   8.601  0.1772  0.0285 -0.5287
  161SAPE  C31518119   4.190   3.671   8.591  1.3275 -0.2276  0.7021
  161SAPE  H15X18120   4.221   3.567   8.613  0.4068 -1.9960 -5.4091
  161SAPE  H15Y18121   4.107   3.665   8.517  1.3500  0.8824  0.5779
  161SAPE  C31618122   4.132   3.743   8.711 -0.5525 -0.3427 -0.2978
  161SAPE  H16X18123   4.105   3.847   8.682 -1.0892 -0.6186 -0.7992
  161SAPE  H16Y18124   4.216   3.755   8.783 -1.1698 -1.7649  0.6868
  161SAPE  C31718125   4.016   3.673   8.792  0.4256 -0.1485  0.5504
  161SAPE  H17X18126   3.978   3.754   8.857 -2.1384 -0.0569 -0.9938
  161SAPE  H17Y18127   4.065   3.593   8.852  0.3151 -0.4866  0.1938
  161SAPE  C31818128   3.918   3.600   8.702 -0.0920 -0.1219  0.3031
  161SAPE  H18X18129   3.860   3.670   8.639 -1.6678 -0.8935  0.8596
  161SAPE  H18Y18130   3.847   3.539   8.762  1.5745 -0.4184  2.0303
  161SAPE  H18Z18131   3.977   3.533   8.635 -0.3464 -0.1197  0.0768
  162SAPE     N18132   2.493   6.779   5.857 -0.0225  0.0367  0.1611
  162SAPE   HN118133   2.548   6.748   5.775  2.0428  0.3144  1.3940
  162SAPE   HN218134   2.405   6.823   5.824 -1.3104 -0.5173  2.7305
  162SAPE   HN318135   2.556   6.850   5.900 -0.1393  0.2152  0.0354
  162SAPE   C1218136   2.466   6.680   5.961  0.1640  0.4044 -0.1768
  162SAPE  H12A18137   2.392   6.612   5.915 -0.1123 -1.2558  2.6283
  162SAPE  H12B18138   2.429   6.730   6.052  1.3289  0.7130  0.1409
  162SAPE   C1118139   2.592   6.599   5.994 -0.2079 -0.0986 -0.1606
  162SAPE  H11A18140   2.669   6.666   6.039 -0.9875  0.2962  0.5812
  162SAPE  H11B18141   2.638   6.562   5.900  0.0799 -0.3261  0.0672
  162SAPE     P18142   2.663   6.368   6.082  0.1640 -0.2803 -0.1640
  162SAPE   O1318143   2.591   6.247   6.030  0.0129  0.4203  0.5034
  162SAPE   O1418144   2.790   6.400   6.018 -0.4138 -0.2432 -0.2307
  162SAPE   O1218145   2.565   6.495   6.082 -0.1557 -0.2238 -0.0915
  162SAPE   O1118146   2.695   6.343   6.243 -0.0937  0.1756  0.1188
  162SAPE    C118147   2.629   6.428   6.336  0.0174 -1.0710 -0.2495
  162SAPE    HA18148   2.537   6.482   6.304 -0.6501 -1.4132  1.0619
  162SAPE    HB18149   2.592   6.371   6.424 -0.5681 -0.3668 -0.0320
  162SAPE    C218150   2.730   6.540   6.385  0.0596  0.2026  0.5358
  162SAPE    HS18151   2.738   6.609   6.298 -1.9916  0.1655  0.2983
  162SAPE   O2118152   2.863   6.493   6.418 -0.1813  0.2624  0.1767
  162SAPE   C2118153   2.957   6.597   6.430  0.2513  0.9033  0.1828
  162SAPE   O2218154   2.937   6.711   6.402 -0.1185  0.4054 -0.2145
  162SAPE   C2218155   3.097   6.551   6.486 -0.0033  0.1812  0.6416
  162SAPE   H2R18156   3.142   6.494   6.402  0.3910 -0.2148  1.1193
  162SAPE   H2S18157   3.152   6.646   6.501 -1.9837  1.8003 -1.8624
  162SAPE    C318158   2.675   6.619   6.508 -0.6474 -0.0999 -0.5320
  162SAPE    HX18159   2.564   6.620   6.503 -0.7090  1.1737  0.9509
  162SAPE    HY18160   2.711   6.724   6.505 -0.1586 -0.2894 -1.3930
  162SAPE   O3118161   2.722   6.569   6.633  0.5523  0.7916 -0.4337
  162SAPE   C3118162   2.644   6.481   6.696  0.1762 -0.7639 -0.0308
  162SAPE   O3218163   2.534   6.444   6.658  0.1680  0.3729 -0.3088
  162SAPE   C3218164   2.723   6.416   6.812  0.1015 -0.0014 -0.1618
  162SAPE   H2X18165   2.821   6.384   6.769 -0.3713 -0.8543 -0.6189
  162SAPE   H2Y18166   2.669   6.329   6.855  0.0849 -0.1667 -0.5139
  162SAPE   C2318167   3.093   6.475   6.625 -0.5090  0.3691 -0.0349
  162SAPE   H3R18168   3.197   6.448   6.653 -0.5922  0.0231 -0.0544
  162SAPE   H3S18169   3.044   6.377   6.606 -1.7775  0.7022  1.3727
  162SAPE   C2418170   3.043   6.547   6.747 -0.3370 -0.3370  0.1256
  162SAPE   H4R18171   3.017   6.487   6.837  2.1211  0.7002  1.5719
  162SAPE   H4S18172   2.943   6.593   6.727  0.1834  0.9257  0.3719
  162SAPE   C2518173   3.130   6.665   6.784  0.3850 -0.5663 -0.1950
  162SAPE   H5R18174   3.133   6.750   6.714  1.1560  0.6367  1.2482
  162SAPE   C2618175   3.205   6.684   6.890  0.3937  0.1723 -0.2871
  162SAPE   H6R18176   3.248   6.785   6.896  2.2584 -0.4997 -1.9988
  162SAPE   C2718177   3.213   6.590   7.009 -1.0892 -0.2159  0.3957
  162SAPE   H7R18178   3.311   6.606   7.058  0.1932 -3.7013 -0.8529
  162SAPE   H7S18179   3.213   6.481   6.985  1.2318 -0.1139 -0.1865
  162SAPE   C2818180   3.091   6.618   7.101  0.3036  0.6236  0.2025
  162SAPE   H8R18181   2.994   6.587   7.059  0.6302 -3.4157  2.2038
  162SAPE   C2918182   3.097   6.673   7.223 -0.7838  0.2595 -0.0681
  162SAPE   H9R18183   3.005   6.703   7.276  0.6016  1.3462  1.7727
  162SAPE  C21018184   3.217   6.720   7.292 -0.6797  0.3163 -0.3358
  162SAPE  H10R18185   3.206   6.829   7.310  0.4933  0.5732 -1.1191
  162SAPE  H10S18186   3.302   6.705   7.223 -0.3614 -0.8309  0.2884
  162SAPE  C21118187   3.242   6.641   7.420  0.5690  0.3240 -0.6966
  162SAPE  H11R18188   3.277   6.538   7.401  0.1916  0.2982 -1.2667
  162SAPE  C21218189   3.243   6.690   7.546  0.6267  0.4125  0.2242
  162SAPE  H12R18190   3.266   6.614   7.622 -0.2785 -0.2179 -0.1231
  162SAPE  C21318191   3.216   6.825   7.603 -0.9613  0.2241  0.5504
  162SAPE  H13R18192   3.151   6.879   7.531 -1.8705 -1.6680 -0.0857
  162SAPE  H13S18193   3.307   6.890   7.606 -1.6070  1.1871 -0.3365
  162SAPE  C21418194   3.141   6.820   7.731  0.1316  0.8057  0.9807
  162SAPE  H14R18195   3.086   6.726   7.747  0.7031  0.2898 -0.0988
  162SAPE  C21518196   3.119   6.921   7.815 -0.8785  0.1259  0.1182
  162SAPE  H15R18197   3.070   6.902   7.912  1.4351 -1.9188  0.9147
  162SAPE  C21618198   3.173   7.056   7.810  0.2390 -0.5886  0.8055
  162SAPE  H16R18199   3.083   7.118   7.788 -0.0781 -1.6262 -0.9288
  162SAPE  H16S18200   3.240   7.071   7.723 -1.0558  0.6328 -0.0233
  162SAPE  C21718201   3.243   7.112   7.930  0.4335  0.0426 -0.1389
  162SAPE  H17R18202   3.283   7.212   7.902  2.8266 -0.5185  1.1218
  162SAPE  H17S18203   3.330   7.050   7.960  2.3351  3.4544  1.6931
  162SAPE  C21818204   3.163   7.129   8.062  1.3751 -0.0222 -0.7370
  162SAPE  H18R18205   3.110   7.033   8.078 -0.0335  0.9205  0.5184
  162SAPE  H18S18206   3.083   7.206   8.051  1.0330 -0.5364 -1.9712
  162SAPE  C21918207   3.249   7.143   8.181  0.2752  0.2890  0.4530
  162SAPE  H19R18208   3.307   7.237   8.170  0.3002  0.1773 -0.4308
  162SAPE  H19S18209   3.331   7.068   8.172  0.3184  0.5927 -2.3747
  162SAPE  C22018210   3.191   7.141   8.325 -0.1960  0.4424  0.3464
  162SAPE  H20R18211   3.277   7.161   8.392  0.2171 -1.0901  0.2984
  162SAPE  H20S18212   3.167   7.039   8.362  0.8046  0.0834  0.0192
  162SAPE  H20T18213   3.100   7.204   8.336  0.8665  2.0907 -0.0774
  162SAPE   C3318214   2.736   6.522   6.925 -0.3435 -0.3087  0.5687
  162SAPE   H3X18215   2.729   6.626   6.889 -0.9399 -0.1547  1.1164
  162SAPE   H3Y18216   2.833   6.495   6.973 -1.4663 -0.7436  2.6433
  162SAPE   C3418217   2.612   6.512   7.020  0.1308 -0.3861  0.2485
  162SAPE   H4X18218   2.623   6.418   7.079  0.7689 -1.4061 -1.4501
  162SAPE   H4Y18219   2.514   6.506   6.968  0.0197  1.1023  0.2669
  162SAPE   C3518220   2.586   6.630   7.115 -0.0297 -0.3339  0.0104
  162SAPE   H5X18221   2.487   6.605   7.159  0.0302  0.5478  0.6670
  162SAPE   H5Y18222   2.594   6.728   7.064 -1.1599 -0.1261  0.2166
  162SAPE   C3618223   2.684   6.645   7.237  0.7326  0.2583 -0.5703
  162SAPE   H6X18224   2.675   6.751   7.272 -2.6887 -0.5804  1.3244
  162SAPE   H6Y18225   2.780   6.613   7.193  1.3870  0.8461  0.4125
  162SAPE   C3718226   2.655   6.542   7.353  0.1551 -0.5889  0.3404
  162SAPE   H7X18227   2.742   6.543   7.422  0.2808  0.5728  0.1651
  162SAPE   H7Y18228   2.663   6.440   7.308 -1.8108  1.0076 -3.8770
  162SAPE   C3818229   2.531   6.574   7.431  0.1108  0.4192  0.2650
  162SAPE   H8X18230   2.484   6.482   7.472  2.9091 -1.7786 -1.3393
  162SAPE   H8Y18231   2.451   6.620   7.370 -1.7185 -1.5131  1.1560
  162SAPE   C3918232   2.566   6.664   7.551 -0.1660  0.4626  0.5164
  162SAPE   H9X18233   2.472   6.706   7.594 -2.3570 -0.6117 -3.0005
  162SAPE   H9Y18234   2.622   6.753   7.515  3.0548 -0.7216  2.3901
  162SAPE  C31018235   2.634   6.603   7.675 -1.0965 -1.2969  0.6648
  162SAPE  H10X18236   2.711   6.528   7.648  1.5627  0.7334  2.3320
  162SAPE  H10Y18237   2.567   6.540   7.738 -1.0700 -0.2894  1.7274
  162SAPE  C31118238   2.705   6.713   7.752 -0.9878 -0.3615  0.2416
  162SAPE  H11X18239   2.648   6.806   7.772  1.1675  0.9676  0.3325
  162SAPE  H11Y18240   2.799   6.741   7.700 -0.8976 -2.2212 -0.6145
  162SAPE  C31218241   2.755   6.670   7.887 -0.1372 -0.1159  0.6930
  162SAPE  H12X18242   2.838   6.741   7.911  0.2105 -0.2044 -0.2495
  162SAPE  H12Y18243   2.799   6.568   7.886 -0.8651 -0.4114 -1.6661
  162SAPE  C31318244   2.647   6.684   7.998 -0.3607  0.0512  0.3891
  162SAPE  H13X18245   2.556   6.623   7.978 -0.4724  0.0005  1.0490
  162SAPE  H13Y18246   2.609   6.787   8.011 -3.1107 -0.9748  0.8187
  162SAPE  C31418247   2.703   6.621   8.135  0.5422  0.1397 -0.0464
  162SAPE  H14X18248   2.782   6.546   8.113  0.2560  0.0564 -0.8090
  162SAPE  H14Y18249   2.619   6.561   8.176 -1.0271  1.0302 -1.8717
  162SAPE  C31518250   2.748   6.726   8.240  0.6299  0.0590 -0.3256
  162SAPE  H15X18251   2.725   6.675   8.337 -0.8856 -0.2282 -0.8206
  162SAPE  H15Y18252   2.674   6.808   8.226  1.3464  1.0007  1.3264
  162SAPE  C31618253   2.898   6.765   8.227  0.4611  0.4750 -0.6209
  162SAPE  H16X18254   2.911   6.846   8.151  0.2860 -0.5361 -1.7384
  162SAPE  H16Y18255   2.964   6.681   8.197 -0.0991 -0.0565 -0.3761
  162SAPE  C31718256   2.962   6.815   8.362  0.2984 -0.1207  0.1228
  162SAPE  H17X18257   3.064   6.844   8.326 -0.7053 -0.3832 -3.1067
  162SAPE  H17Y18258   2.965   6.723   8.423  3.9468 -0.8212 -0.9909
  162SAPE  C31818259   2.880   6.926   8.428  0.4005 -0.1291  0.9009
  162SAPE  H18X18260   2.779   6.890   8.455  0.4673 -1.4532 -0.5683
  162SAPE  H18Y18261   2.866   7.012   8.359  1.1993 -0.4253  0.3611
  162SAPE  H18Z18262   2.931   6.963   8.520  1.4210  1.7558 -0.3874
  163SAPE     N18263   2.034   4.534   6.529 -0.2942  0.2596  0.4683
  163SAPE   HN118264   2.046   4.632   6.562 -0.3961  0.4589 -0.0975
  163SAPE   HN218265   2.086   4.475   6.598 -1.0687 -0.2526  0.6242
  163SAPE   HN318266   2.059   4.546   6.429  0.5065 -1.6675  0.4031
  163SAPE   C1218267   1.898   4.481   6.547 -0.4557 -0.2976  0.0802
  163SAPE  H12A18268   1.888   4.463   6.656 -0.0595 -1.6624 -0.1011
  163SAPE  H12B18269   1.884   4.392   6.481 -1.7559  1.7020 -2.4238
  163SAPE   C1118270   1.789   4.583   6.501  0.4207  0.1935 -0.2210
  163SAPE  H11A18271   1.694   4.529   6.519 -1.1879  2.8755 -0.4718
  163SAPE  H11B18272   1.801   4.604   6.393 -1.7907 -1.4801 -0.8234
  163SAPE     P18273   1.861   4.826   6.571  0.1975  0.1946 -0.0759
  163SAPE   O1318274   2.008   4.796   6.584 -0.0751  0.4081  0.7265
  163SAPE   O1418275   1.822   4.898   6.451  0.5179 -0.7382 -0.7108
  163SAPE   O1218276   1.782   4.695   6.585 -0.3399 -0.3838 -0.1203
  163SAPE   O1118277   1.816   4.902   6.696  0.0016 -0.1319 -0.3329
  163SAPE    C118278   1.680   4.951   6.703 -0.3873 -0.3826 -0.1531
  163SAPE    HA18279   1.610   4.893   6.638  0.5422 -1.4302 -0.2407
  163SAPE    HB18280   1.648   4.929   6.807 -0.0096  1.2146  0.3046
  163SAPE    C218281   1.677   5.112   6.700 -0.1695  0.7217  0.7818
  163SAPE    HS18282   1.713   5.135   6.597 -2.6179 -1.5309 -0.6401
  163SAPE   O2118283   1.758   5.165   6.802  0.1181  0.4855 -0.1159
  163SAPE   C2118284   1.876   5.203   6.768  0.7851 -0.3335 -0.1587
  163SAPE   O2218285   1.926   5.204   6.651  0.3139 -0.8674  0.2321
  163SAPE   C2218286   1.951   5.252   6.894 -0.7792 -0.3494 -0.1129
  163SAPE   H2R18287   2.010   5.162   6.921 -0.3111 -0.0288 -0.0689
  163SAPE   H2S18288   2.022   5.325   6.849 -1.4933  0.7952  0.5652
  163SAPE    C318289   1.529   5.174   6.709 -0.7902 -0.6743 -0.1885
  163SAPE    HX18290   1.468   5.134   6.625  3.1201 -1.2972 -2.8644
  163SAPE    HY18291   1.547   5.279   6.676 -1.3038 -0.0240  1.5556
  163SAPE   O3118292   1.475   5.161   6.844  0.0391 -0.0273 -0.1733
  163SAPE   C3118293   1.408   5.049   6.867  0.2853 -0.5013  0.4239
  163SAPE   O3218294   1.394   4.952   6.796  0.2245 -0.4217  0.0677
  163SAPE   C3218295   1.359   5.061   7.008 -0.6009 -0.4655 -0.1983
  163SAPE   H2X18296   1.283   5.141   7.020  0.7701  0.6071  1.5419
  163SAPE   H2Y18297   1.441   5.086   7.078 -0.2189  2.1738 -1.5308
  163SAPE   C2318298   1.879   5.314   7.015 -0.0831  0.1736 -0.3288
  163SAPE   H3R18299   1.793   5.375   6.981 -0.3653 -0.5891 -0.9738
  163SAPE   H3S18300   1.950   5.383   7.067  1.4166 -1.0671 -0.7058
  163SAPE   C2418301   1.827   5.198   7.108  0.2615 -0.1484 -0.4944
  163SAPE   H4R18302   1.919   5.139   7.129  1.9086  1.3780 -3.0823
  163SAPE   H4S18303   1.751   5.144   7.049 -0.8481 -0.3552  1.0889
  163SAPE   C2518304   1.771   5.237   7.241 -0.3354  1.0469 -0.4659
  163SAPE   H5R18305   1.674   5.288   7.231 -0.3923  0.9369 -0.4686
  163SAPE   C2618306   1.824   5.226   7.367  0.5505  0.4562 -0.5863
  163SAPE   H6R18307   1.777   5.272   7.455  0.8531 -0.6030  0.1428
  163SAPE   C2718308   1.962   5.169   7.398 -0.2089  0.7483 -0.4747
  163SAPE   H7R18309   2.024   5.170   7.306 -1.2307  0.9238 -1.1837
  163SAPE   H7S18310   1.960   5.068   7.443 -0.5523  1.3604  0.8826
  163SAPE   C2818311   2.030   5.260   7.495 -0.2513 -0.8013 -0.6132
  163SAPE   H8R18312   2.105   5.331   7.456  0.1385  0.2687  2.0251
  163SAPE   C2918313   2.016   5.264   7.630 -0.6827  0.0153  0.6480
  163SAPE   H9R18314   2.072   5.342   7.684 -0.5952  0.1137  0.4146
  163SAPE  C21018315   1.923   5.183   7.705  0.0094 -0.3333 -0.3488
  163SAPE  H10R18316   1.946   5.075   7.697 -0.2677 -0.3305 -1.3275
  163SAPE  H10S18317   1.819   5.181   7.664 -1.1068  1.2920  2.2458
  163SAPE  C21118318   1.890   5.227   7.843 -0.2052  0.3167  0.1993
  163SAPE  H11R18319   1.794   5.280   7.855 -0.7678 -0.9579  1.4617
  163SAPE  C21218320   1.951   5.193   7.958 -0.0922 -1.6165 -0.3660
  163SAPE  H12R18321   1.904   5.221   8.054  0.0693  1.5278 -1.1528
  163SAPE  C21318322   2.066   5.105   7.982 -0.2026 -0.1287  0.1194
  163SAPE  H13R18323   2.078   5.032   7.899  0.3519  0.9061 -0.7216
  163SAPE  H13S18324   2.057   5.050   8.079 -0.7350  2.4024  1.5440
  163SAPE  C21418325   2.200   5.181   7.971 -0.4017  0.3700  0.4164
  163SAPE  H14R18326   2.246   5.194   7.872 -0.8010 -1.1122  0.0201
  163SAPE  C21518327   2.278   5.216   8.075 -0.1198  0.4043 -0.2554
  163SAPE  H15R18328   2.365   5.281   8.061  2.6428 -2.0054  4.3732
  163SAPE  C21618329   2.238   5.192   8.220  0.0108 -0.2072  0.1449
  163SAPE  H16R18330   2.229   5.083   8.244  0.0695  0.3026  2.7086
  163SAPE  H16S18331   2.146   5.250   8.243  1.7715  2.4801  0.5034
  163SAPE  C21718332   2.346   5.239   8.321  0.2345 -0.9321  0.2991
  163SAPE  H17R18333   2.351   5.345   8.290  0.3076 -0.5132  1.6811
  163SAPE  H17S18334   2.446   5.196   8.302  1.1699  1.5442 -0.5771
  163SAPE  C21818335   2.288   5.232   8.466  0.4724 -0.1304  0.4514
  163SAPE  H18R18336   2.247   5.130   8.479  2.5326 -0.7995  2.0284
  163SAPE  H18S18337   2.202   5.302   8.472  0.9795  0.3402  2.4088
  163SAPE  C21918338   2.396   5.262   8.562 -0.4184  0.0349 -0.3402
  163SAPE  H19R18339   2.401   5.369   8.591  5.2732 -0.4070  0.9561
  163SAPE  H19S18340   2.498   5.243   8.523  0.6288  1.5605  1.5321
  163SAPE  C22018341   2.384   5.187   8.693  0.5128 -0.3000 -0.2292
  163SAPE  H20R18342   2.284   5.206   8.737  0.2211 -0.3380 -0.8595
  163SAPE  H20S18343   2.451   5.211   8.777 -0.1113  2.2074 -0.4042
  163SAPE  H20T18344   2.391   5.077   8.677  0.5664 -0.5269  1.3179
  163SAPE   C3318345   1.293   4.936   7.054  0.1792 -0.4590 -0.2650
  163SAPE   H3X18346   1.367   4.852   7.053 -0.5757 -1.1662  1.3891
  163SAPE   H3Y18347   1.212   4.896   6.989 -0.4259 -0.2615  0.3672
  163SAPE   C3418348   1.255   4.948   7.203 -0.0774  0.2486  0.2048
  163SAPE   H4X18349   1.155   4.996   7.202 -0.0848  0.2534  0.8494
  163SAPE   H4Y18350   1.327   5.016   7.254 -1.3099  0.7275  1.3337
  163SAPE   C3518351   1.242   4.827   7.295  0.2230  0.5083  0.1394
  163SAPE   H5X18352   1.329   4.759   7.290 -0.0696 -0.0958  2.7695
  163SAPE   H5Y18353   1.159   4.755   7.279  0.8763 -1.0083  3.2281
  163SAPE   C3618354   1.219   4.876   7.439  0.2187  0.5450  0.1145
  163SAPE   H6X18355   1.136   4.950   7.443  0.5374  0.8199  2.2665
  163SAPE   H6Y18356   1.306   4.924   7.489 -0.4847  1.8730  0.0808
  163SAPE   C3718357   1.162   4.759   7.528  0.2298 -0.1158  0.6063
  163SAPE   H7X18358   1.224   4.668   7.515  0.0019 -0.6088  2.8809
  163SAPE   H7Y18359   1.065   4.721   7.490 -0.7806  1.5862  1.4092
  163SAPE   C3818360   1.152   4.780   7.678  0.0913  0.0568  0.0196
  163SAPE   H8X18361   1.070   4.853   7.697  0.6699  0.7173 -0.0279
  163SAPE   H8Y18362   1.245   4.831   7.710 -0.4946  1.4941 -0.5550
  163SAPE   C3918363   1.139   4.643   7.751  0.4158  0.3988  0.0584
  163SAPE   H9X18364   1.237   4.596   7.726  0.8176  1.2562 -0.0090
  163SAPE   H9Y18365   1.058   4.586   7.702  0.4465  0.4504 -0.0525
  163SAPE  C31018366   1.114   4.657   7.902  0.2302 -0.2344  0.5782
  163SAPE  H10X18367   1.108   4.562   7.959  1.6006 -0.5628  0.2161
  163SAPE  H10Y18368   1.014   4.702   7.914  0.8150  1.1529  0.3202
  163SAPE  C31118369   1.224   4.738   7.970  0.7532 -0.0991 -0.0508
  163SAPE  H11X18370   1.229   4.844   7.938 -2.4768 -0.2747 -1.2582
  163SAPE  H11Y18371   1.322   4.703   7.931 -0.8007 -2.6396 -1.8225
  163SAPE  C31218372   1.221   4.723   8.123 -0.1164 -0.4952 -0.1406
  163SAPE  H12X18373   1.237   4.620   8.161 -1.2548 -0.4151  0.6109
  163SAPE  H12Y18374   1.127   4.763   8.167  1.5520  1.1391  2.0096
  163SAPE  C31318375   1.338   4.795   8.195  0.4070 -0.1540  0.5734
  163SAPE  H13X18376   1.387   4.875   8.136 -1.7466  1.6308  1.1658
  163SAPE  H13Y18377   1.416   4.718   8.216  1.7140  0.9356 -0.1459
  163SAPE  C31418378   1.291   4.860   8.323  0.4273 -0.1112 -1.0098
  163SAPE  H14X18379   1.237   4.781   8.379 -2.1895  0.4164 -2.6999
  163SAPE  H14Y18380   1.227   4.946   8.294 -0.5211 -1.2335 -2.2769
  163SAPE  C31518381   1.399   4.910   8.412  0.3093 -0.4221  0.0981
  163SAPE  H15X18382   1.361   4.919   8.516 -0.4329  0.5259 -0.2506
  163SAPE  H15Y18383   1.433   5.013   8.389 -0.1197 -0.9326 -2.9417
  163SAPE  C31618384   1.521   4.822   8.437 -0.3163 -0.2481 -0.4634
  163SAPE  H16X18385   1.585   4.809   8.347  0.1448 -1.2720 -0.0005
  163SAPE  H16Y18386   1.489   4.720   8.469  0.1222 -0.9804 -2.2887
  163SAPE  C31718387   1.599   4.874   8.558  0.0132  0.2046  0.3002
  163SAPE  H17X18388   1.525   4.887   8.640 -0.5488 -2.1356  0.1884
  163SAPE  H17Y18389   1.661   4.967   8.550  0.8624 -0.4374 -0.7496
  163SAPE  C31818390   1.700   4.764   8.615  0.2547  0.2076 -0.3621
  163SAPE  H18X18391   1.742   4.703   8.532  0.0541 -2.4553  1.4596
  163SAPE  H18Y18392   1.638   4.692   8.672 -2.0449  2.2886 -0.1414
  163SAPE  H18Z18393   1.785   4.811   8.669 -0.8320  1.1660  0.5492
  164SAPE     N18394   5.093   1.094   6.161 -0.4188  0.3718  0.0867
  164SAPE   HN118395   5.053   1.187   6.184 -2.6096 -0.7149  0.8065
  164SAPE   HN218396   5.185   1.074   6.206 -0.1135  0.1647 -0.6254
  164SAPE   HN318397   5.122   1.097   6.061  1.1022 -0.1493  0.4812
  164SAPE   C1218398   4.999   0.973   6.183 -0.7389 -0.9488 -0.7245
  164SAPE  H12A18399   4.945   0.981   6.279 -1.0113 -0.2897 -0.9290
  164SAPE  H12B18400   5.059   0.880   6.192  0.4040 -0.1183  0.4831
  164SAPE   C1118401   4.902   0.968   6.066 -0.3302 -0.0590 -0.3427
  164SAPE  H11A18402   4.832   0.888   6.099 -0.0209 -0.6027 -0.9768
  164SAPE  H11B18403   4.955   0.925   5.978  2.8811  0.0781  1.4382
  164SAPE     P18404   4.704   1.128   6.110 -0.1110 -0.2231 -0.4588
  164SAPE   O1318405   4.668   1.266   6.063 -0.1871  0.9487 -0.5287
  164SAPE   O1418406   4.604   1.021   6.104  0.5185  0.2620  0.5272
  164SAPE   O1218407   4.827   1.086   6.034 -0.7618 -0.6497  0.8303
  164SAPE   O1118408   4.754   1.130   6.264  0.2586 -0.2706 -0.3428
  164SAPE    C118409   4.705   1.225   6.362 -0.2176 -0.3890 -0.2411
  164SAPE    HA18410   4.790   1.268   6.419 -0.4678  0.8624 -0.8053
  164SAPE    HB18411   4.656   1.309   6.309 -1.2429  0.2410  1.6533
  164SAPE    C218412   4.601   1.161   6.461 -0.1442  0.4797  0.2816
  164SAPE    HS18413   4.505   1.154   6.405  0.9280  0.7082 -1.6151
  164SAPE   O2118414   4.578   1.243   6.572  0.0514 -0.2861  0.6996
  164SAPE   C2118415   4.516   1.360   6.553 -0.3830  0.0304 -0.3386
  164SAPE   O2218416   4.475   1.403   6.444 -0.8879  0.1412 -0.5502
  164SAPE   C2218417   4.524   1.447   6.683  0.9154  0.3499 -0.7996
  164SAPE   H2R18418   4.426   1.440   6.733  1.8770  0.9624  1.2195
  164SAPE   H2S18419   4.602   1.397   6.745  0.6433  0.5267 -0.3135
  164SAPE    C318420   4.646   1.024   6.514 -0.3931  0.7924  0.1721
  164SAPE    HX18421   4.740   1.033   6.572  0.0323 -1.3463 -0.1380
  164SAPE    HY18422   4.658   0.953   6.430  1.0945 -1.8480  2.4947
  164SAPE   O3118423   4.537   0.967   6.592  0.0132  0.1288  0.4663
  164SAPE   C3118424   4.567   0.852   6.652 -0.5803  0.3010 -0.3165
  164SAPE   O3218425   4.669   0.791   6.633 -0.8735  0.0082  0.1896
  164SAPE   C3218426   4.456   0.809   6.746  0.4582  0.0689  1.3952
  164SAPE   H2X18427   4.423   0.709   6.712  0.6194  0.6569 -0.5755
  164SAPE   H2Y18428   4.368   0.877   6.733  0.3985 -0.7073 -3.1450
  164SAPE   C2318429   4.562   1.591   6.657  0.1043 -0.3287 -0.0078
  164SAPE   H3R18430   4.520   1.625   6.560 -0.9594  0.4386  0.7165
  164SAPE   H3S18431   4.672   1.583   6.645  0.1981 -1.3578  1.3539
  164SAPE   C2418432   4.518   1.689   6.761  0.0043 -0.1626 -0.9871
  164SAPE   H4R18433   4.407   1.677   6.759 -0.1284  0.5715  1.1436
  164SAPE   H4S18434   4.547   1.791   6.728  0.8313  0.2209  0.8480
  164SAPE   C2518435   4.570   1.667   6.901 -0.0421  0.4239  0.3901
  164SAPE   H5R18436   4.539   1.576   6.954  1.0457 -1.7409 -2.5583
  164SAPE   C2618437   4.650   1.752   6.974  0.5359  0.5667 -0.5119
  164SAPE   H6R18438   4.668   1.725   7.079  0.8022  1.7588 -0.2501
  164SAPE   C2718439   4.717   1.882   6.940  0.3927  0.1061  0.0535
  164SAPE   H7R18440   4.681   1.906   6.838 -1.1223  0.4667  0.6631
  164SAPE   H7S18441   4.828   1.875   6.936  0.5877  2.4383  0.6742
  164SAPE   C2818442   4.670   1.996   7.023  0.3048  0.5583  0.4678
  164SAPE   H8R18443   4.599   2.069   6.983  0.5613  1.4790  1.6524
  164SAPE   C2918444   4.703   2.010   7.150 -0.8761  0.1569 -0.4249
  164SAPE   H9R18445   4.645   2.089   7.200  1.4576  1.9141 -0.4102
  164SAPE  C21018446   4.796   1.924   7.231  0.0594  0.0237 -0.0397
  164SAPE  H10R18447   4.867   1.858   7.177 -0.7918 -3.2456  2.6483
  164SAPE  H10S18448   4.734   1.847   7.281  0.3633 -0.6460 -0.6783
  164SAPE  C21118449   4.873   1.998   7.342 -0.2947  0.0604 -0.1720
  164SAPE  H11R18450   4.981   2.011   7.322 -0.5200  1.3697 -0.5725
  164SAPE  C21218451   4.833   2.033   7.465 -0.0709  0.1314  0.8566
  164SAPE  H12R18452   4.915   2.054   7.535  1.2470 -0.5172 -0.4660
  164SAPE  C21318453   4.696   2.004   7.520  0.1778  0.5458  0.3509
  164SAPE  H13R18454   4.646   1.924   7.461 -0.2908 -0.1996  1.7262
  164SAPE  H13S18455   4.644   2.101   7.506  1.1584  0.7151 -2.4224
  164SAPE  C21418456   4.684   1.978   7.671 -0.4654  0.1274 -0.4128
  164SAPE  H14R18457   4.691   2.074   7.724  2.7088 -1.1954  1.6962
  164SAPE  C21518458   4.652   1.865   7.737  0.0232 -0.4359  0.6976
  164SAPE  H15R18459   4.644   1.866   7.847 -1.2391 -1.0201  0.6267
  164SAPE  C21618460   4.626   1.733   7.672 -0.7810 -0.6105  0.0271
  164SAPE  H16R18461   4.594   1.745   7.567 -1.7550  3.8159  0.7547
  164SAPE  H16S18462   4.540   1.677   7.715 -1.9555 -0.0091 -1.4802
  164SAPE  C21718463   4.754   1.648   7.678 -0.6890  0.1596 -0.7987
  164SAPE  H17R18464   4.727   1.541   7.668 -1.7484  0.3765 -0.2572
  164SAPE  H17S18465   4.817   1.659   7.769 -1.1864 -1.6639 -0.2218
  164SAPE  C21818466   4.855   1.657   7.560  0.2520 -0.1066  1.1091
  164SAPE  H18R18467   4.922   1.744   7.580 -0.2526  0.3200  0.9829
  164SAPE  H18S18468   4.809   1.670   7.459 -1.5666  1.7290  2.1413
  164SAPE  C21918469   4.954   1.548   7.540  0.5869 -0.5507 -0.1034
  164SAPE  H19R18470   4.899   1.452   7.528  1.4337 -1.3281  1.9487
  164SAPE  H19S18471   5.017   1.538   7.631  0.6665  0.0032 -0.0930
  164SAPE  C22018472   5.043   1.563   7.418  0.1979 -0.3981 -0.0664
  164SAPE  H20R18473   4.979   1.576   7.328 -0.0591 -1.1189  0.0036
  164SAPE  H20S18474   5.095   1.467   7.398  1.5244  0.8089 -2.6891
  164SAPE  H20T18475   5.109   1.651   7.422  0.0537 -0.3157  0.5248
  164SAPE   C3318476   4.500   0.804   6.897 -1.0395 -0.1051 -0.5518
  164SAPE   H3X18477   4.596   0.749   6.904 -0.5179  0.8524 -0.1239
  164SAPE   H3Y18478   4.419   0.754   6.955 -1.2136  0.3870 -0.3648
  164SAPE   C3418479   4.517   0.942   6.972  0.2346  0.6713  0.5618
  164SAPE   H4X18480   4.537   0.933   7.081  0.5283 -2.0953  0.3188
  164SAPE   H4Y18481   4.419   0.995   6.969  1.1438  2.4003  0.7716
  164SAPE   C3518482   4.625   1.033   6.911 -0.3944 -0.6134  0.5715
  164SAPE   H5X18483   4.588   1.061   6.811 -0.1118 -0.1694  0.5840
  164SAPE   H5Y18484   4.717   0.970   6.911  0.1238  0.0935 -2.0828
  164SAPE   C3618485   4.646   1.184   6.958  0.6203  0.1027  0.9238
  164SAPE   H6X18486   4.571   1.248   6.906  0.7892 -0.3963  0.0639
  164SAPE   H6Y18487   4.743   1.225   6.924  2.1314 -1.7934  2.7963
  164SAPE   C3718488   4.651   1.203   7.115 -0.4336 -0.5510 -0.3441
  164SAPE   H7X18489   4.557   1.169   7.164 -0.4403  1.6053  1.2350
  164SAPE   H7Y18490   4.655   1.313   7.132 -1.5588 -0.2736 -1.7405
  164SAPE   C3818491   4.767   1.127   7.181  0.9458  0.4875  0.1125
  164SAPE   H8X18492   4.858   1.191   7.188  1.3800 -0.2143  0.9601
  164SAPE   H8Y18493   4.798   1.049   7.108 -1.0104  0.6162 -0.8845
  164SAPE   C3918494   4.737   1.064   7.316 -0.2437 -0.5930 -0.0820
  164SAPE   H9X18495   4.829   1.025   7.363 -1.3586 -2.0401  0.9236
  164SAPE   H9Y18496   4.662   0.983   7.310 -0.9126  0.0393 -0.4030
  164SAPE  C31018497   4.689   1.167   7.421  1.0650  0.0358 -0.6005
  164SAPE  H10X18498   4.587   1.205   7.401  1.2186  1.0542  0.4646
  164SAPE  H10Y18499   4.752   1.259   7.430  0.7214  0.0500  2.1439
  164SAPE  C31118500   4.685   1.101   7.562 -0.3018 -0.0325 -0.3571
  164SAPE  H11X18501   4.787   1.079   7.602 -0.0676 -1.2721 -1.5830
  164SAPE  H11Y18502   4.633   1.003   7.553  0.8988 -0.6752 -0.4357
  164SAPE  C31218503   4.617   1.195   7.656  0.1154 -0.9071  0.3125
  164SAPE  H12X18504   4.520   1.216   7.606 -0.1410 -1.7705  0.4305
  164SAPE  H12Y18505   4.678   1.287   7.653 -1.5684  0.1905 -1.7898
  164SAPE  C31318506   4.589   1.135   7.794  0.2061 -0.2992 -0.5860
  164SAPE  H13X18507   4.682   1.099   7.841  0.8289  3.4098  1.2264
  164SAPE  H13Y18508   4.514   1.053   7.796 -0.3516  0.1520 -1.9231
  164SAPE  C31418509   4.548   1.245   7.897  0.1625  0.2647 -0.3818
  164SAPE  H14X18510   4.468   1.310   7.857  2.6545  3.6065 -0.1891
  164SAPE  H14Y18511   4.632   1.319   7.897  0.5651 -0.1903 -0.2358
  164SAPE  C31518512   4.517   1.182   8.030  0.2896  0.1515 -0.1381
  164SAPE  H15X18513   4.614   1.136   8.058  0.2506 -0.0162 -0.2778
  164SAPE  H15Y18514   4.441   1.102   8.018  0.4026 -0.2587  1.7277
  164SAPE  C31618515   4.476   1.277   8.142 -0.3201  0.5413 -0.1476
  164SAPE  H16X18516   4.559   1.344   8.171  1.4090 -1.8917  0.6964
  164SAPE  H16Y18517   4.466   1.219   8.237  2.3085 -1.8371 -1.2517
  164SAPE  C31718518   4.354   1.360   8.126  0.4394  0.1242  0.2832
  164SAPE  H17X18519   4.263   1.298   8.135  0.8187 -0.8404 -2.1826
  164SAPE  H17Y18520   4.351   1.409   8.026  0.3582  1.6636  1.0194
  164SAPE  C31818521   4.350   1.469   8.229  0.0264  0.1369 -0.4360
  164SAPE  H18X18522   4.440   1.533   8.220  1.2084 -1.1379  1.9063
  164SAPE  H18Y18523   4.348   1.427   8.332 -0.0478  1.8831  0.3053
  164SAPE  H18Z18524   4.258   1.532   8.219 -0.1763 -0.2383 -0.9323
  165SAPE     N18525   4.486   4.405   6.289 -0.4764 -0.1500 -0.7895
  165SAPE   HN118526   4.414   4.459   6.238  0.0131  0.3123 -0.9949
  165SAPE   HN218527   4.437   4.335   6.348  1.5459 -0.0536  1.0714
  165SAPE   HN318528   4.529   4.475   6.353  0.5390 -0.4035 -1.1764
  165SAPE   C1218529   4.592   4.356   6.191  0.6705  0.1766  0.4670
  165SAPE  H12A18530   4.643   4.448   6.155  0.9055 -0.2844 -0.3890
  165SAPE  H12B18531   4.541   4.301   6.109  0.2581  1.6193 -0.2447
  165SAPE   C1118532   4.699   4.275   6.263  0.8621  0.4136 -0.2259
  165SAPE  H11A18533   4.746   4.332   6.345 -0.6680  1.2099  0.1243
  165SAPE  H11B18534   4.765   4.252   6.177  1.1646  3.0852 -0.7230
  165SAPE     P18535   4.729   4.049   6.391  0.4642 -0.1963  0.2320
  165SAPE   O1318536   4.716   3.927   6.310 -0.8329 -0.8058 -0.2524
  165SAPE   O1418537   4.864   4.099   6.417  0.2043 -0.2224  0.5376
  165SAPE   O1218538   4.630   4.160   6.317  0.2891 -1.3001 -0.6004
  165SAPE   O1118539   4.655   4.017   6.522 -0.1204  0.4243 -0.6282
  165SAPE    C118540   4.554   4.103   6.581 -0.3944  0.4301  0.9123
  165SAPE    HA18541   4.465   4.106   6.515  0.6547  0.9448 -0.4868
  165SAPE    HB18542   4.527   4.051   6.676  2.6246 -0.8401  1.1373
  165SAPE    C218543   4.621   4.239   6.623 -0.0516  0.2465 -0.6169
  165SAPE    HS18544   4.629   4.305   6.534  0.6629  1.4674  0.3353
  165SAPE   O2118545   4.742   4.210   6.689 -0.1772 -0.2063 -0.1408
  165SAPE   C2118546   4.848   4.292   6.684  0.2181 -0.1712  0.2727
  165SAPE   O2218547   4.841   4.401   6.622 -0.0143  0.2810  0.4432
  165SAPE   C2218548   4.965   4.242   6.768 -0.4790 -0.0712  0.0038
  165SAPE   H2R18549   4.964   4.131   6.775 -0.3846  0.0445  1.9861
  165SAPE   H2S18550   5.057   4.281   6.718 -0.5878 -1.4505 -1.3015
  165SAPE    C318551   4.523   4.314   6.716 -0.5373  0.4030 -0.1757
  165SAPE    HX18552   4.449   4.358   6.647 -1.1321 -0.7935 -0.3095
  165SAPE    HY18553   4.583   4.394   6.765  0.5323 -2.4868  3.5584
  165SAPE   O3118554   4.467   4.235   6.818  0.0225  0.7225  0.5915
  165SAPE   C3118555   4.410   4.302   6.913 -1.1187  0.1272 -0.4318
  165SAPE   O3218556   4.404   4.423   6.925 -0.4092  0.1788  0.4630
  165SAPE   C3218557   4.356   4.205   7.022  1.3236  0.1028 -0.0586
  165SAPE   H2X18558   4.380   4.099   6.997 -1.1533 -0.8717  1.5523
  165SAPE   H2Y18559   4.246   4.217   7.019  1.2773  0.3723  1.8821
  165SAPE   C2318560   4.963   4.294   6.913 -0.4070 -0.6768 -0.1799
  165SAPE   H3R18561   4.871   4.254   6.960 -1.3381 -0.0541 -1.4511
  165SAPE   H3S18562   4.956   4.405   6.913  1.2102 -0.5583 -0.1651
  165SAPE   C2418563   5.090   4.246   6.982  0.7014 -0.0156 -0.1577
  165SAPE   H4R18564   5.096   4.307   7.074  0.0777  0.9827 -0.7720
  165SAPE   H4S18565   5.182   4.273   6.927  0.0497  0.6147 -0.9493
  165SAPE   C2518566   5.101   4.099   7.016  0.4283 -0.1430 -0.1816
  165SAPE   H5R18567   5.112   4.028   6.933  1.9714 -0.2750  0.1265
  165SAPE   C2618568   5.144   4.047   7.132  0.1713  0.6996  0.4108
  165SAPE   H6R18569   5.154   3.938   7.141  1.8868  0.6635 -1.5168
  165SAPE   C2718570   5.169   4.123   7.261  0.0662 -0.1842 -0.8966
  165SAPE   H7R18571   5.101   4.079   7.338  1.2750 -1.5458 -0.6005
  165SAPE   H7S18572   5.138   4.228   7.242 -2.0300 -0.7184 -0.6054
  165SAPE   C2818573   5.315   4.114   7.301  0.0717  0.0643 -0.1380
  165SAPE   H8R18574   5.389   4.130   7.220  1.1480 -0.7285  0.6776
  165SAPE   C2918575   5.363   4.081   7.422  0.5105  0.7622 -0.5988
  165SAPE   H9R18576   5.468   4.095   7.449  0.5372 -1.0619  0.2661
  165SAPE  C21018577   5.279   4.047   7.541 -0.4007  0.0104  0.2515
  165SAPE  H10R18578   5.315   3.957   7.594 -0.9858  0.4120  1.3678
  165SAPE  H10S18579   5.174   4.018   7.519 -0.2592 -0.5536  0.3191
  165SAPE  C21118580   5.276   4.177   7.626 -0.3392 -0.4157 -0.0942
  165SAPE  H11R18581   5.251   4.273   7.580 -1.9634 -0.3935  0.7979
  165SAPE  C21218582   5.294   4.177   7.764  0.7086 -0.3896 -0.1788
  165SAPE  H12R18583   5.288   4.275   7.815 -2.2137 -0.4391 -0.3233
  165SAPE  C21318584   5.324   4.057   7.851 -0.1520 -0.5310 -0.0545
  165SAPE  H13R18585   5.423   4.009   7.836  0.8053  0.8347  1.6972
  165SAPE  H13S18586   5.235   3.991   7.841 -0.6879 -0.4131  3.3931
  165SAPE  C21418587   5.327   4.084   7.997  0.2818  0.0044  0.0745
  165SAPE  H14R18588   5.407   4.150   8.033  0.1174  0.0976  0.2711
  165SAPE  C21518589   5.255   4.021   8.096 -0.2171 -0.5751 -0.3498
  165SAPE  H15R18590   5.276   4.054   8.199  2.5702  0.8637 -1.3284
  165SAPE  C21618591   5.150   3.914   8.085 -0.7703 -0.7345 -0.5090
  165SAPE  H16R18592   5.189   3.842   8.010  0.9411 -1.5392  1.1063
  165SAPE  H16S18593   5.049   3.952   8.058  0.2208  1.6303 -1.0722
  165SAPE  C21718594   5.146   3.852   8.227 -0.8482  0.5726  0.2586
  165SAPE  H17R18595   5.060   3.781   8.220 -0.3097  0.0090 -0.8409
  165SAPE  H17S18596   5.104   3.922   8.302 -0.4736  1.9230 -0.7623
  165SAPE  C21818597   5.271   3.785   8.273  0.1427 -0.0141 -0.0580
  165SAPE  H18R18598   5.350   3.861   8.295 -0.9421  0.9397  0.5696
  165SAPE  H18S18599   5.316   3.717   8.197 -1.1356 -2.0940  1.0140
  165SAPE  C21918600   5.243   3.715   8.407 -0.3768 -0.2048 -0.0534
  165SAPE  H19R18601   5.338   3.664   8.430 -2.5542 -4.1730  0.6048
  165SAPE  H19S18602   5.176   3.627   8.393  0.5630 -0.6828 -1.6166
  165SAPE  C22018603   5.191   3.802   8.525  0.3445 -0.4411  0.2531
  165SAPE  H20R18604   5.087   3.840   8.519 -0.0579 -1.7858 -1.5097
  165SAPE  H20S18605   5.254   3.893   8.535  0.1638 -0.0342 -2.0637
  165SAPE  H20T18606   5.188   3.733   8.612  0.3927 -0.6369  0.0991
  165SAPE   C3318607   4.406   4.220   7.168 -0.0411  0.3395 -0.1756
  165SAPE   H3X18608   4.515   4.216   7.188  0.3796  2.5431 -1.8009
  165SAPE   H3Y18609   4.369   4.127   7.215  0.0954  0.2219 -0.2970
  165SAPE   C3418610   4.356   4.344   7.244  0.0387 -0.5698  0.3902
  165SAPE   H4X18611   4.248   4.359   7.224  0.0608  1.7790  1.9284
  165SAPE   H4Y18612   4.402   4.434   7.199  1.7147 -1.9923 -0.8109
  165SAPE   C3518613   4.378   4.330   7.398 -0.4294 -0.0830 -0.1187
  165SAPE   H5X18614   4.476   4.290   7.432 -0.4139 -0.5764 -0.7297
  165SAPE   H5Y18615   4.294   4.261   7.422 -0.8113  0.4735  0.1570
  165SAPE   C3618616   4.349   4.456   7.484  0.8117 -0.6999  0.9348
  165SAPE   H6X18617   4.250   4.505   7.479  1.4574  0.3891 -1.9385
  165SAPE   H6Y18618   4.420   4.534   7.448 -2.7117  1.8945 -0.6104
  165SAPE   C3718619   4.383   4.436   7.639  0.3278 -0.3847 -0.4153
  165SAPE   H7X18620   4.362   4.528   7.697 -0.8533 -1.8258  1.4753
  165SAPE   H7Y18621   4.491   4.415   7.652  0.7594  0.9270 -1.7323
  165SAPE   C3818622   4.304   4.314   7.691 -1.2104 -0.5562 -0.0469
  165SAPE   H8X18623   4.311   4.223   7.628  0.6647  0.2114 -0.9759
  165SAPE   H8Y18624   4.197   4.345   7.694 -0.4860  2.2852 -1.6081
  165SAPE   C3918625   4.334   4.267   7.833 -0.1205 -0.8088  0.0746
  165SAPE   H9X18626   4.338   4.345   7.912 -1.3075 -1.4285  0.7652
  165SAPE   H9Y18627   4.442   4.242   7.818  0.9278  1.9364  2.5535
  165SAPE  C31018628   4.246   4.157   7.889  0.2029  0.1510 -0.0479
  165SAPE  H10X18629   4.233   4.077   7.813 -0.8078  0.0886  0.1744
  165SAPE  H10Y18630   4.148   4.199   7.922  0.3727  1.5115 -1.2124
  165SAPE  C31118631   4.314   4.092   8.010 -0.7772 -0.1116 -0.3766
  165SAPE  H11X18632   4.420   4.062   7.995 -0.6066  0.4852 -0.3393
  165SAPE  H11Y18633   4.261   4.002   8.048 -1.8157 -0.2456 -2.0971
  165SAPE  C31218634   4.324   4.181   8.139  0.4222 -0.8415  0.6673
  165SAPE  H12X18635   4.236   4.245   8.162  0.8269  0.6249 -1.7446
  165SAPE  H12Y18636   4.405   4.251   8.111 -1.1629  0.1928 -1.4877
  165SAPE  C31318637   4.377   4.101   8.262 -0.1214  0.7204 -0.7536
  165SAPE  H13X18638   4.465   4.034   8.253 -0.8074 -0.3415  0.2763
  165SAPE  H13Y18639   4.299   4.023   8.272  0.7906  0.1200  2.4026
  165SAPE  C31418640   4.390   4.175   8.398 -0.6907 -0.0900  0.1822
  165SAPE  H14X18641   4.393   4.117   8.492 -1.7221  1.4931  1.2134
  165SAPE  H14Y18642   4.297   4.236   8.395 -1.9086 -1.9654 -2.9229
  165SAPE  C31518643   4.518   4.267   8.398 -0.2636 -0.1411 -1.0707
  165SAPE  H15X18644   4.512   4.332   8.308  0.1167  0.4308 -0.6872
  165SAPE  H15Y18645   4.604   4.196   8.392  2.0247  2.5910 -1.4397
  165SAPE  C31618646   4.506   4.370   8.517 -0.2000  0.0235 -0.4125
  165SAPE  H16X18647   4.396   4.376   8.529  0.0494  1.0165  1.4620
  165SAPE  H16Y18648   4.557   4.461   8.478 -2.2356  1.2444 -0.2631
  165SAPE  C31718649   4.582   4.316   8.640  0.2014  0.5174  0.4899
  165SAPE  H17X18650   4.661   4.247   8.603  1.3120  1.1108  1.7235
  165SAPE  H17Y18651   4.506   4.250   8.687 -1.4420  0.7498 -1.7607
  165SAPE  C31818652   4.659   4.422   8.715  0.1801  0.3152  0.4509
  165SAPE  H18X18653   4.582   4.484   8.766 -1.8987 -1.8702  0.0548
  165SAPE  H18Y18654   4.731   4.485   8.660 -1.0711  1.5132  0.1593
  165SAPE  H18Z18655   4.722   4.373   8.793  0.4220 -1.9507 -1.1162
  166SAPE     N18656   4.258   0.986   5.864  0.2915 -0.7109  0.2579
  166SAPE   HN118657   4.343   0.945   5.820  0.8745  0.8702 -0.1021
  166SAPE   HN218658   4.278   0.961   5.963  0.8027 -0.2290  0.2786
  166SAPE   HN318659   4.188   0.922   5.822  0.5008  0.2265 -1.5362
  166SAPE   C1218660   4.245   1.131   5.828 -0.4944 -0.7223  0.3876
  166SAPE  H12A18661   4.276   1.153   5.723  0.1339 -1.5196  0.3979
  166SAPE  H12B18662   4.314   1.184   5.897 -1.5673 -0.7258  1.4660
  166SAPE   C1118663   4.101   1.182   5.845  0.1923 -0.4719  0.0189
  166SAPE  H11A18664   4.061   1.157   5.945  0.9154  1.8425  0.9290
  166SAPE  H11B18665   4.028   1.130   5.779  1.4525 -0.0548 -1.7406
  166SAPE     P18666   4.008   1.428   5.874 -0.0737  0.1357  0.3035
  166SAPE   O1318667   4.082   1.560   5.887  0.4241  0.4286 -0.2023
  166SAPE   O1418668   3.891   1.449   5.781 -0.2707 -0.2825 -0.4247
  166SAPE   O1218669   4.100   1.321   5.806 -0.8606  0.1775  0.1548
  166SAPE   O1118670   3.969   1.358   6.005 -0.1800  0.0496 -0.7698
  166SAPE    C118671   3.912   1.425   6.120 -0.5722 -0.4200 -0.1812
  166SAPE    HA18672   3.912   1.536   6.114  4.8282 -0.1709  1.2110
  166SAPE    HB18673   3.806   1.393   6.124 -0.5362 -0.4697  0.3975
  166SAPE    C218674   3.974   1.384   6.257  0.1626  0.4758  0.2146
  166SAPE    HS18675   3.912   1.405   6.347  1.2583 -1.2092  1.3984
  166SAPE   O2118676   4.097   1.445   6.278 -0.1263  0.4758 -0.1091
  166SAPE   C2118677   4.087   1.575   6.325  0.3047 -0.0297 -0.2178
  166SAPE   O2218678   3.979   1.636   6.325 -0.4929  0.2686  0.5557
  166SAPE   C2218679   4.218   1.636   6.369 -0.0438  0.0789 -0.4862
  166SAPE   H2R18680   4.294   1.558   6.390  1.6776  1.6580 -0.6895
  166SAPE   H2S18681   4.254   1.705   6.290 -4.8456  1.5610 -1.5739
  166SAPE    C318682   4.002   1.235   6.263  0.4582  0.3086  0.8354
  166SAPE    HX18683   4.072   1.196   6.186 -1.0526 -1.2097  0.1907
  166SAPE    HY18684   3.901   1.190   6.247 -0.4269  1.4524  2.9783
  166SAPE   O3118685   4.033   1.201   6.401 -0.1977 -0.0187 -0.4145
  166SAPE   C3118686   4.162   1.153   6.417 -0.1624 -0.0333 -0.3158
  166SAPE   O3218687   4.241   1.140   6.329  0.1966 -0.0752  0.4154
  166SAPE   C3218688   4.171   1.104   6.561  0.5695 -0.1755  0.0703
  166SAPE   H2X18689   4.266   1.048   6.576  0.1397 -1.2594 -1.2049
  166SAPE   H2Y18690   4.086   1.034   6.568  0.7096 -0.0703  3.4043
  166SAPE   C2318691   4.198   1.728   6.489 -0.0387  0.3285 -0.9801
  166SAPE   H3R18692   4.123   1.807   6.468  0.3607  0.6327 -1.2918
  166SAPE   H3S18693   4.290   1.791   6.494 -0.3296  0.9824 -3.2418
  166SAPE   C2418694   4.168   1.647   6.617  0.6042 -0.7720  0.3118
  166SAPE   H4R18695   4.248   1.579   6.654  0.6405 -1.4766 -1.0631
  166SAPE   H4S18696   4.078   1.583   6.609 -1.0567  1.5948 -0.1319
  166SAPE   C2518697   4.118   1.749   6.726  0.2729 -0.7635  0.3773
  166SAPE   H5R18698   4.201   1.817   6.749  0.7351 -1.0749 -0.3468
  166SAPE   C2618699   4.006   1.748   6.800  0.0032  0.2340  0.4288
  166SAPE   H6R18700   3.984   1.836   6.863  2.2048  1.5377 -0.5719
  166SAPE   C2718701   3.893   1.644   6.794 -1.2375 -0.4344  0.9581
  166SAPE   H7R18702   3.889   1.613   6.900 -2.3118  4.0282  2.3291
  166SAPE   H7S18703   3.922   1.557   6.731  0.7016  0.4535  0.5874
  166SAPE   C2818704   3.765   1.686   6.742  0.5511  0.1735 -0.0727
  166SAPE   H8R18705   3.784   1.748   6.652  0.4038 -0.2680 -0.4100
  166SAPE   C2918706   3.640   1.661   6.782 -0.1149 -0.3430 -0.3423
  166SAPE   H9R18707   3.554   1.694   6.722  0.2650  0.2798 -0.5448
  166SAPE  C21018708   3.604   1.583   6.908  0.2922  0.1737  0.2673
  166SAPE  H10R18709   3.696   1.542   6.956  0.8153  1.9185  0.7837
  166SAPE  H10S18710   3.541   1.496   6.878  2.9767 -2.5190  2.1577
  166SAPE  C21118711   3.524   1.681   6.991  0.0385  0.1651  0.0047
  166SAPE  H11R18712   3.447   1.739   6.939  1.1979  0.7419 -1.0821
  166SAPE  C21218713   3.528   1.708   7.130  0.3759 -0.3007  0.2945
  166SAPE  H12R18714   3.465   1.790   7.169  2.7604  2.0555 -0.6233
  166SAPE  C21318715   3.620   1.650   7.237  0.6096 -0.6500  0.2486
  166SAPE  H13R18716   3.608   1.542   7.212 -0.1124 -0.5891  0.3185
  166SAPE  H13S18717   3.587   1.663   7.342  1.8874  0.4622  0.5316
  166SAPE  C21418718   3.761   1.683   7.234 -0.1661 -0.0415  0.2356
  166SAPE  H14R18719   3.789   1.770   7.172  2.1907  0.5285  2.0021
  166SAPE  C21518720   3.849   1.628   7.321  0.4615 -0.0089  0.0336
  166SAPE  H15R18721   3.952   1.666   7.325  0.1114  0.9412  0.3550
  166SAPE  C21618722   3.817   1.518   7.424  0.1685  0.1747 -0.5531
  166SAPE  H16R18723   3.881   1.429   7.406 -1.0228 -0.6093 -1.0011
  166SAPE  H16S18724   3.710   1.487   7.413 -0.5713  2.2860  0.5832
  166SAPE  C21718725   3.856   1.556   7.571 -1.1364  0.3307  0.3084
  166SAPE  H17R18726   3.958   1.600   7.565 -0.5386 -0.6586  2.8903
  166SAPE  H17S18727   3.869   1.464   7.631  2.8809 -1.4735 -3.0408
  166SAPE  C21818728   3.776   1.665   7.639 -0.0750  0.1336  0.4903
  166SAPE  H18R18729   3.796   1.761   7.586  0.4769  0.6827  1.6947
  166SAPE  H18S18730   3.825   1.682   7.737 -2.1146  0.5907  1.4742
  166SAPE  C21918731   3.627   1.639   7.663 -0.0245 -0.7154  0.8074
  166SAPE  H19R18732   3.576   1.616   7.567  0.0666  1.0211  0.3105
  166SAPE  H19S18733   3.574   1.725   7.711 -1.1541 -0.0647 -1.4745
  166SAPE  C22018734   3.605   1.524   7.761 -0.8421 -0.3756  0.0593
  166SAPE  H20R18735   3.500   1.486   7.768 -0.6250 -1.0087 -0.1319
  166SAPE  H20S18736   3.627   1.567   7.861 -2.6392  0.2198  0.2191
  166SAPE  H20T18737   3.680   1.446   7.741 -0.1204 -0.0451  1.3994
  166SAPE   C3318738   4.162   1.220   6.660 -0.2504  0.7231  0.1111
  166SAPE   H3X18739   4.061   1.265   6.665 -0.3796  0.5845 -1.1164
  166SAPE   H3Y18740   4.221   1.308   6.628  1.2765 -0.8026 -1.4552
  166SAPE   C3418741   4.190   1.175   6.804  0.7099  0.1836  0.5400
  166SAPE   H4X18742   4.293   1.134   6.801  1.1591  1.3365  0.0332
  166SAPE   H4Y18743   4.113   1.101   6.836  0.4140 -1.3453 -3.4431
  166SAPE   C3518744   4.175   1.300   6.891 -1.3795 -0.3556  0.1334
  166SAPE   H5X18745   4.073   1.341   6.872 -1.9447 -3.2004 -3.5348
  166SAPE   H5Y18746   4.225   1.396   6.865 -0.4391 -0.7419  0.5066
  166SAPE   C3618747   4.195   1.266   7.037  0.1004  0.1013 -0.2137
  166SAPE   H6X18748   4.302   1.245   7.059 -0.0645  0.9644  1.4441
  166SAPE   H6Y18749   4.131   1.179   7.062  0.7107  0.4256  2.6726
  166SAPE   C3718750   4.141   1.383   7.129 -0.1559  0.5569 -0.4351
  166SAPE   H7X18751   4.137   1.346   7.234  1.5420  0.9551 -0.2151
  166SAPE   H7Y18752   4.035   1.402   7.101 -0.1446  2.1412  0.5176
  166SAPE   C3818753   4.212   1.517   7.129  0.0343 -0.1584  0.4001
  166SAPE   H8X18754   4.154   1.594   7.184 -0.7217  1.2910 -2.3068
  166SAPE   H8Y18755   4.216   1.556   7.025  1.5821 -2.1843 -0.3299
  166SAPE   C3918756   4.360   1.515   7.183 -0.2309 -0.5174 -0.2395
  166SAPE   H9X18757   4.392   1.621   7.190 -3.1794  0.3752  0.6610
  166SAPE   H9Y18758   4.432   1.466   7.114  1.0515  1.5296 -0.3823
  166SAPE  C31018759   4.387   1.448   7.319  0.0242 -0.5508  1.1385
  166SAPE  H10X18760   4.494   1.464   7.342  0.3379 -2.0617  0.7983
  166SAPE  H10Y18761   4.354   1.342   7.316  2.6478 -1.3648 -0.3999
  166SAPE  C31118762   4.308   1.514   7.430 -0.2789  0.1908  0.0742
  166SAPE  H11X18763   4.199   1.499   7.414  0.2706 -1.5882 -2.1625
  166SAPE  H11Y18764   4.336   1.622   7.437 -2.2418  0.7703 -0.5625
  166SAPE  C31218765   4.350   1.449   7.564 -0.5739  0.2165 -1.1274
  166SAPE  H12X18766   4.461   1.456   7.566 -0.5875  1.0473 -2.5297
  166SAPE  H12Y18767   4.335   1.340   7.573 -1.1465  0.3703 -0.0824
  166SAPE  C31318768   4.318   1.526   7.697 -0.3706  0.1276  0.5129
  166SAPE  H13X18769   4.325   1.634   7.671 -2.0837  0.2618  0.5903
  166SAPE  H13Y18770   4.405   1.491   7.756 -0.7087  0.5640  1.2682
  166SAPE  C31418771   4.179   1.483   7.750  0.8072  0.5795  0.2976
  166SAPE  H14X18772   4.173   1.373   7.764 -0.8511  0.9605  2.8252
  166SAPE  H14Y18773   4.107   1.511   7.671 -1.5012  2.8227  3.1033
  166SAPE  C31518774   4.141   1.560   7.874 -0.4184  0.7532 -0.1152
  166SAPE  H15X18775   4.143   1.670   7.860 -1.8222  1.3989  3.9725
  166SAPE  H15Y18776   4.217   1.538   7.952 -0.2385  0.7161 -0.3018
  166SAPE  C31618777   4.011   1.524   7.942  0.1083  0.0333  0.1147
  166SAPE  H16X18778   4.010   1.417   7.972  1.5066  0.1695  0.6885
  166SAPE  H16Y18779   3.924   1.530   7.873 -1.6957 -0.3412  2.2933
  166SAPE  C31718780   3.984   1.610   8.065  0.1963  0.2637  0.0645
  166SAPE  H17X18781   3.987   1.714   8.026  0.4467  0.0121 -0.6008
  166SAPE  H17Y18782   4.068   1.602   8.138  0.2525 -0.4985 -0.0749
  166SAPE  C31818783   3.842   1.584   8.122  0.1891  0.0558  0.1845
  166SAPE  H18X18784   3.828   1.475   8.140  0.5260  0.3142  2.1022
  166SAPE  H18Y18785   3.764   1.607   8.046  0.5499  0.2501 -0.1215
  166SAPE  H18Z18786   3.832   1.637   8.220  0.0977 -0.7572  0.6188
  167SAPE     N18787   5.884   0.943   6.124 -0.0443  0.2072 -0.0104
  167SAPE   HN118788   5.837   0.917   6.035  0.5706 -2.9071  0.4944
  167SAPE   HN218789   5.837   1.023   6.170 -1.3865 -1.0517  0.8649
  167SAPE   HN318790   5.980   0.983   6.111 -0.2069  1.4155  2.1988
  167SAPE   C1218791   5.883   0.818   6.194  0.6449  0.6074 -0.3130
  167SAPE  H12A18792   5.913   0.834   6.300  2.6664 -0.1512 -0.7393
  167SAPE  H12B18793   5.934   0.732   6.146  1.3302  1.1851 -0.6196
  167SAPE   C1118794   5.737   0.770   6.212 -0.7215 -0.6051 -0.6708
  167SAPE  H11A18795   5.679   0.843   6.271 -0.0805 -1.0360  0.5150
  167SAPE  H11B18796   5.745   0.674   6.267 -1.5150 -0.9466 -1.1331
  167SAPE     P18797   5.547   0.673   6.068 -0.3936 -0.0285 -0.0358
  167SAPE   O1318798   5.440   0.760   6.009  0.6168  0.3494 -0.7261
  167SAPE   O1418799   5.577   0.551   5.992  0.5890 -0.1082  0.2126
  167SAPE   O1218800   5.680   0.758   6.078  0.1734  0.0143  0.7823
  167SAPE   O1118801   5.513   0.642   6.221  0.2463 -0.1039 -0.0251
  167SAPE    C118802   5.413   0.727   6.283 -0.3527  0.3936  0.8181
  167SAPE    HA18803   5.432   0.836   6.282 -0.0714  0.3608  2.0103
  167SAPE    HB18804   5.315   0.717   6.232 -0.1204  1.2271  0.2127
  167SAPE    C218805   5.385   0.690   6.436  0.6111  0.8032  0.6271
  167SAPE    HS18806   5.307   0.763   6.468 -0.1004  1.1540 -1.7692
  167SAPE   O2118807   5.496   0.691   6.521  0.5289  0.0698 -0.1152
  167SAPE   C2118808   5.531   0.818   6.550  1.2206  0.1524 -0.3080
  167SAPE   O2218809   5.463   0.917   6.524 -0.3098 -0.6348 -0.5352
  167SAPE   C2218810   5.665   0.809   6.623  0.6173 -0.1011  0.2505
  167SAPE   H2R18811   5.681   0.718   6.685  1.6544  1.0614  1.7409
  167SAPE   H2S18812   5.744   0.827   6.547  0.1222  0.3899 -0.1495
  167SAPE    C318813   5.335   0.540   6.431  0.2082 -0.1572 -0.5252
  167SAPE    HX18814   5.417   0.473   6.400  1.2426  0.5877  0.5543
  167SAPE    HY18815   5.252   0.541   6.357 -0.8108  2.3366  0.5561
  167SAPE   O3118816   5.278   0.485   6.561  0.8763 -0.1215 -0.5481
  167SAPE   C3118817   5.369   0.429   6.645  0.2477 -0.1651 -0.1089
  167SAPE   O3218818   5.482   0.400   6.618  0.2196 -0.1939  0.2390
  167SAPE   C3218819   5.291   0.401   6.770 -0.4249  0.9378 -0.2675
  167SAPE   H2X18820   5.279   0.496   6.825  0.5437  0.4716  0.7506
  167SAPE   H2Y18821   5.366   0.346   6.830 -0.3946  1.1719 -0.0929
  167SAPE   C2318822   5.696   0.935   6.714 -0.3032 -0.3350  0.2339
  167SAPE   H3R18823   5.653   1.033   6.685 -1.4048 -0.9270 -0.1344
  167SAPE   H3S18824   5.805   0.957   6.708 -0.2071 -1.4303 -2.5924
  167SAPE   C2418825   5.654   0.897   6.857 -0.2701  0.2134  0.4203
  167SAPE   H4R18826   5.700   0.978   6.918  0.5779 -0.4786  0.7014
  167SAPE   H4S18827   5.711   0.803   6.871 -1.7003 -0.9770 -1.4496
  167SAPE   C2518828   5.507   0.875   6.887 -0.8464  0.1670  0.3875
  167SAPE   H5R18829   5.434   0.942   6.838 -0.1066  0.3791 -0.4347
  167SAPE   C2618830   5.449   0.782   6.963 -0.6942  0.3029 -0.1575
  167SAPE   H6R18831   5.342   0.769   6.986 -0.0465 -0.6591  2.3614
  167SAPE   C2718832   5.536   0.676   7.036  0.0142  0.2964 -0.3169
  167SAPE   H7R18833   5.565   0.721   7.133  0.4814 -2.2519  0.7899
  167SAPE   H7S18834   5.635   0.656   6.990  1.3189  0.6541  2.2280
  167SAPE   C2818835   5.467   0.543   7.044 -0.1239 -0.2879  0.7603
  167SAPE   H8R18836   5.480   0.484   6.952  0.4489 -1.3223  1.4926
  167SAPE   C2918837   5.388   0.502   7.150 -0.1200 -0.3213  0.6930
  167SAPE   H9R18838   5.342   0.402   7.139  2.7296 -1.3278 -3.5799
  167SAPE  C21018839   5.356   0.565   7.284 -0.2518  0.1188  0.3870
  167SAPE  H10R18840   5.258   0.529   7.323 -0.9112 -0.1119 -1.4652
  167SAPE  H10S18841   5.351   0.675   7.271 -1.5701  0.3671  2.6468
  167SAPE  C21118842   5.459   0.533   7.387 -0.2561  0.1482  0.3129
  167SAPE  H11R18843   5.564   0.518   7.357 -0.3141 -2.8874  1.4817
  167SAPE  C21218844   5.446   0.516   7.517  0.6204 -0.9616 -0.4267
  167SAPE  H12R18845   5.533   0.480   7.574 -0.9738 -2.4015  1.1924
  167SAPE  C21318846   5.319   0.540   7.598 -0.6948  0.7287 -0.1120
  167SAPE  H13R18847   5.316   0.467   7.681  0.4583  2.3085  1.3692
  167SAPE  H13S18848   5.243   0.509   7.524 -1.0909  1.9448 -0.2234
  167SAPE  C21418849   5.316   0.675   7.665  0.3441 -0.4955 -0.5799
  167SAPE  H14R18850   5.381   0.756   7.629 -0.9484  0.5347 -0.6100
  167SAPE  C21518851   5.229   0.697   7.763  0.1521 -0.8326 -0.3266
  167SAPE  H15R18852   5.239   0.793   7.814  0.4180 -0.5870 -0.8384
  167SAPE  C21618853   5.131   0.599   7.820  0.4570  0.6722  0.5814
  167SAPE  H16R18854   5.116   0.514   7.750  0.3053  1.4814 -0.3776
  167SAPE  H16S18855   5.038   0.659   7.829  0.3136  0.7285 -1.1806
  167SAPE  C21718856   5.169   0.540   7.954 -0.4014 -0.4348  0.1278
  167SAPE  H17R18857   5.250   0.469   7.929  0.3957  0.1362  1.0635
  167SAPE  H17S18858   5.073   0.493   7.984 -0.1950 -0.8994  0.0554
  167SAPE  C21818859   5.200   0.651   8.057  0.4017  0.8573  0.3624
  167SAPE  H18R18860   5.121   0.730   8.057 -0.6713 -0.1955 -0.0538
  167SAPE  H18S18861   5.291   0.702   8.020  0.4137  0.0122 -0.7915
  167SAPE  C21918862   5.230   0.595   8.188 -0.4035  0.0164 -1.0062
  167SAPE  H19R18863   5.301   0.509   8.187 -1.6722 -1.0765  0.6256
  167SAPE  H19S18864   5.142   0.552   8.240  0.5597  1.4526  1.9816
  167SAPE  C22018865   5.289   0.699   8.279 -0.4694  0.3063  0.5041
  167SAPE  H20R18866   5.310   0.645   8.374 -0.0664  1.8040  1.2831
  167SAPE  H20S18867   5.209   0.776   8.286 -0.4506  0.2236  1.6437
  167SAPE  H20T18868   5.380   0.744   8.233 -2.4368  0.5063 -3.4479
  167SAPE   C3318869   5.173   0.309   6.740  0.0442 -0.2499  0.1666
  167SAPE   H3X18870   5.205   0.220   6.681  1.2229  0.1685  0.1530
  167SAPE   H3Y18871   5.102   0.366   6.676  0.4068  0.4155  0.3465
  167SAPE   C3418872   5.101   0.245   6.861  0.1697  0.5770 -0.1522
  167SAPE   H4X18873   5.177   0.198   6.928 -0.4276 -1.4412 -0.8525
  167SAPE   H4Y18874   5.034   0.165   6.822  0.0600  0.4788  0.2272
  167SAPE   C3518875   5.022   0.346   6.943 -0.5151  0.3181  0.2672
  167SAPE   H5X18876   4.952   0.389   6.868 -1.8899 -1.6654  0.3640
  167SAPE   H5Y18877   5.082   0.425   6.991 -0.9042  0.3428  0.7164
  167SAPE   C3618878   4.947   0.279   7.059 -0.5009  0.0327  0.1738
  167SAPE   H6X18879   4.891   0.191   7.020  0.2365 -0.4270  0.1479
  167SAPE   H6Y18880   4.872   0.347   7.104 -1.6796  1.8861 -4.3047
  167SAPE   C3718881   5.051   0.230   7.163 -0.0711  0.1497 -0.1450
  167SAPE   H7X18882   5.123   0.312   7.185 -1.0290  0.9624 -0.0207
  167SAPE   H7Y18883   5.113   0.148   7.121  0.1961  0.3569 -0.1543
  167SAPE   C3818884   4.986   0.175   7.283  0.4635  0.2314 -0.6525
  167SAPE   H8X18885   5.060   0.104   7.325 -0.0074 -0.7122 -1.3973
  167SAPE   H8Y18886   4.905   0.106   7.255  0.5390 -0.3847  0.6062
  167SAPE   C3918887   4.941   0.277   7.388 -0.2934  0.1254 -0.2834
  167SAPE   H9X18888   4.859   0.333   7.337 -0.2982  0.4821  0.1159
  167SAPE   H9Y18889   5.021   0.350   7.410  0.7547 -1.4793  1.2914
  167SAPE  C31018890   4.897   0.223   7.524 -0.2513 -0.4439 -0.1394
  167SAPE  H10X18891   4.967   0.149   7.569  0.9838  1.1958  0.7064
  167SAPE  H10Y18892   4.805   0.164   7.509 -0.3078 -0.3452 -0.1793
  167SAPE  C31118893   4.866   0.322   7.638  0.6114  0.4288 -1.1158
  167SAPE  H11X18894   4.782   0.387   7.604 -0.8292  0.1632  1.8202
  167SAPE  H11Y18895   4.960   0.378   7.658  0.6343 -0.2321  0.7080
  167SAPE  C31218896   4.821   0.271   7.776 -0.0654 -0.4959 -0.1844
  167SAPE  H12X18897   4.902   0.203   7.809  0.5970 -0.3095 -1.4120
  167SAPE  H12Y18898   4.732   0.206   7.760  1.2667 -2.3003 -0.4903
  167SAPE  C31318899   4.797   0.394   7.866 -0.2927  0.0184  0.7259
  167SAPE  H13X18900   4.699   0.437   7.839 -0.2996 -2.2283 -3.1081
  167SAPE  H13Y18901   4.874   0.470   7.844  2.2337 -2.9153 -1.0619
  167SAPE  C31418902   4.820   0.361   8.010 -0.7103  0.0649  0.1867
  167SAPE  H14X18903   4.930   0.348   8.013 -0.3216  3.2161  1.8416
  167SAPE  H14Y18904   4.757   0.280   8.051 -0.4391  0.2062  0.8844
  167SAPE  C31518905   4.794   0.476   8.105 -0.0114  0.1877  0.1221
  167SAPE  H15X18906   4.685   0.493   8.112 -0.1743  0.2165 -2.0989
  167SAPE  H15Y18907   4.835   0.575   8.074 -2.5415  1.5116  0.8591
  167SAPE  C31618908   4.857   0.456   8.245  0.2723  0.0589  0.2883
  167SAPE  H16X18909   4.956   0.410   8.227  1.3614  1.9605  1.2129
  167SAPE  H16Y18910   4.806   0.376   8.304  0.8093 -1.1333 -0.8442
  167SAPE  C31718911   4.860   0.584   8.329  0.4652 -0.4130 -0.1486
  167SAPE  H17X18912   4.754   0.618   8.332 -0.2499 -2.6450  1.8422
  167SAPE  H17Y18913   4.915   0.670   8.285 -2.2986  1.5571  0.0948
  167SAPE  C31818914   4.905   0.548   8.473  0.0445 -1.1067 -0.6333
  167SAPE  H18X18915   4.928   0.638   8.534  1.1501 -0.2801 -2.2426
  167SAPE  H18Y18916   4.998   0.492   8.449  0.7795  0.9983 -2.9291
  167SAPE  H18Z18917   4.830   0.482   8.522 -0.3175  1.9045  3.0965
  168SAPE     N18918   6.592   2.505   6.044 -0.1280  0.0909  0.0112
  168SAPE   HN118919   6.518   2.524   5.974 -0.3421 -0.1152  0.1810
  168SAPE   HN218920   6.683   2.518   5.994 -1.4395  1.4354 -2.1370
  168SAPE   HN318921   6.582   2.405   6.069  0.6774  0.2927  1.1682
  168SAPE   C1218922   6.583   2.600   6.163 -0.6783  0.2749  0.6255
  168SAPE  H12A18923   6.485   2.576   6.209 -1.0521  1.4374  0.4605
  168SAPE  H12B18924   6.576   2.707   6.133  2.1695 -0.1337 -1.6800
  168SAPE   C1118925   6.689   2.586   6.267 -0.4903  0.3753 -0.8483
  168SAPE  H11A18926   6.664   2.648   6.355  1.4783 -1.2095  0.8879
  168SAPE  H11B18927   6.778   2.623   6.210 -0.6143 -0.1866 -1.4169
  168SAPE     P18928   6.833   2.413   6.387  0.0672 -0.0655 -0.1061
  168SAPE   O1318929   6.857   2.266   6.380  0.0535 -0.0358  0.0784
  168SAPE   O1418930   6.942   2.500   6.346  0.2082  0.6958  0.8537
  168SAPE   O1218931   6.713   2.450   6.302 -0.3924  0.0068 -0.2319
  168SAPE   O1118932   6.786   2.453   6.528  0.5385 -0.5858  0.7279
  168SAPE    C118933   6.826   2.580   6.583  0.3019 -0.5026 -0.8041
  168SAPE    HA18934   6.909   2.634   6.533 -1.1152  2.0418 -0.5221
  168SAPE    HB18935   6.733   2.641   6.583  0.5051 -0.0378 -5.6071
  168SAPE    C218936   6.888   2.567   6.722  0.2681  0.4212 -0.6008
  168SAPE    HS18937   6.989   2.526   6.706  0.5514  0.7993  0.1778
  168SAPE   O2118938   6.809   2.478   6.807  0.5394 -0.3578 -0.4632
  168SAPE   C2118939   6.858   2.367   6.841 -0.5201  0.6233  0.2155
  168SAPE   O2218940   6.974   2.328   6.821  0.7434 -0.3195 -0.2946
  168SAPE   C2218941   6.759   2.301   6.929  0.0460 -0.3294 -0.1541
  168SAPE   H2R18942   6.741   2.370   7.014 -0.1659 -0.0396 -0.4324
  168SAPE   H2S18943   6.659   2.299   6.881 -1.0177 -1.2456  2.0139
  168SAPE    C318944   6.902   2.712   6.787 -0.7386 -0.1450  0.1642
  168SAPE    HX18945   6.802   2.761   6.782 -0.0874  1.1871  0.1537
  168SAPE    HY18946   6.976   2.761   6.721 -2.3936  2.4031  0.1386
  168SAPE   O3118947   6.946   2.709   6.922  0.1781  0.3812 -0.5282
  168SAPE   C3118948   7.074   2.708   6.936 -0.5038 -0.1406 -0.6599
  168SAPE   O3218949   7.160   2.712   6.852 -0.5572  0.3171  0.0282
  168SAPE   C3218950   7.109   2.705   7.085 -0.3980  0.7251  0.1406
  168SAPE   H2X18951   7.108   2.811   7.119  2.1544  0.7274  0.3287
  168SAPE   H2Y18952   7.215   2.675   7.099 -0.3446 -0.4018 -2.3846
  168SAPE   C2318953   6.800   2.162   6.987  0.2074 -0.4977 -0.1170
  168SAPE   H3R18954   6.898   2.165   7.039  0.6786  1.0642 -1.0683
  168SAPE   H3S18955   6.801   2.079   6.913  2.3922 -1.3350  0.8141
  168SAPE   C2418956   6.690   2.115   7.089  0.1054 -0.3060 -0.1176
  168SAPE   H4R18957   6.707   2.007   7.109  1.4556  0.3931  2.8782
  168SAPE   H4S18958   6.592   2.122   7.036  1.2506  0.9370 -2.1386
  168SAPE   C2518959   6.669   2.202   7.210  0.6753  0.1665  0.3008
  168SAPE   H5R18960   6.651   2.310   7.194 -0.7833 -0.5224 -3.0992
  168SAPE   C2618961   6.673   2.158   7.336  0.4218 -0.1372  0.3713
  168SAPE   H6R18962   6.683   2.240   7.408  1.7027  1.3176 -1.4221
  168SAPE   C2718963   6.696   2.025   7.400 -0.1795  0.8290  1.0577
  168SAPE   H7R18964   6.802   2.027   7.435  0.9090 -0.5155 -1.9919
  168SAPE   H7S18965   6.690   1.944   7.325  0.2504 -0.1916  2.1220
  168SAPE   C2818966   6.610   1.978   7.520  0.2631 -0.0671 -1.1639
  168SAPE   H8R18967   6.529   1.909   7.494 -1.6823  2.0425 -0.8793
  168SAPE   C2918968   6.621   2.024   7.644 -0.1891 -0.4584  0.8960
  168SAPE   H9R18969   6.556   1.985   7.724 -0.7496  0.4213  0.8704
  168SAPE  C21018970   6.711   2.133   7.704  0.7442  0.4561  1.2429
  168SAPE  H10R18971   6.734   2.211   7.628  2.2454 -0.6532  0.5426
  168SAPE  H10S18972   6.805   2.078   7.727  2.1107  2.6803  1.1358
  168SAPE  C21118973   6.668   2.211   7.820  0.3902  0.2872 -0.3371
  168SAPE  H11R18974   6.588   2.283   7.795  0.2788  0.0143 -0.7745
  168SAPE  C21218975   6.714   2.212   7.951 -0.3871  0.2310  0.6612
  168SAPE  H12R18976   6.684   2.291   8.022 -0.5863  1.2251 -0.5096
  168SAPE  C21318977   6.832   2.126   7.999  0.6189  0.1139  0.0006
  168SAPE  H13R18978   6.891   2.192   8.067  2.2758 -0.2894 -1.0323
  168SAPE  H13S18979   6.898   2.113   7.911  1.1612 -2.2763  0.7358
  168SAPE  C21418980   6.773   2.006   8.059  0.1617  0.3165 -0.1913
  168SAPE  H14R18981   6.734   1.922   7.999 -0.7753 -1.3372  2.6276
  168SAPE  C21518982   6.787   1.978   8.190 -0.5791 -0.2580  0.7031
  168SAPE  H15R18983   6.743   1.892   8.243  0.8703 -0.9575  0.7947
  168SAPE  C21618984   6.863   2.070   8.290 -0.0704  0.4319 -0.3601
  168SAPE  H16R18985   6.795   2.141   8.343  1.9916  1.1020  1.4515
  168SAPE  H16S18986   6.943   2.123   8.234  0.2953 -2.7275 -2.9840
  168SAPE  C21718987   6.932   1.981   8.399 -0.0201 -0.4155  0.0459
  168SAPE  H17R18988   6.865   1.899   8.434  0.7207  0.6574  4.3060
  168SAPE  H17S18989   6.937   2.046   8.489 -2.3749  0.2109 -0.2497
  168SAPE  C21818990   7.067   1.936   8.351 -0.4068 -0.3297  0.1069
  168SAPE  H18R18991   7.137   2.015   8.316 -1.6567  0.6151 -0.3415
  168SAPE  H18S18992   7.068   1.881   8.255 -0.1366  3.5491 -2.2469
  168SAPE  C21918993   7.129   1.837   8.450 -0.9103 -0.2928 -0.0759
  168SAPE  H19R18994   7.098   1.731   8.432 -0.8661 -0.2302 -0.5256
  168SAPE  H19S18995   7.098   1.861   8.554  1.2691  1.3000  0.2273
  168SAPE  C22018996   7.274   1.843   8.449 -0.5368  0.3938 -0.2466
  168SAPE  H20R18997   7.320   1.789   8.535 -0.0909  0.4693 -0.4374
  168SAPE  H20S18998   7.306   1.949   8.459 -2.3523  1.0424 -1.1126
  168SAPE  H20T18999   7.317   1.797   8.358 -0.6268 -1.3453  0.5782
  168SAPE   C3319000   7.015   2.610   7.171 -0.3155 -0.2881  0.8648
  168SAPE   H3X19001   7.001   2.508   7.130  0.4951 -0.4309  0.9403
  168SAPE   H3Y19002   6.915   2.653   7.195 -0.6565  0.2232 -1.3703
  168SAPE   C3419003   7.079   2.592   7.306 -0.7994 -0.7706  1.0655
  168SAPE   H4X19004   7.103   2.689   7.355 -1.6440 -1.2284  2.4239
  168SAPE   H4Y19005   7.173   2.533   7.303 -0.3620 -0.0103 -2.3035
  168SAPE   C3519006   6.986   2.512   7.397  0.0104  0.0966 -0.0622
  168SAPE   H5X19007   6.952   2.411   7.366 -0.0520  0.9405 -2.8899
  168SAPE   H5Y19008   6.903   2.583   7.418  0.5758  0.5675  0.5985
  168SAPE   C3619009   7.053   2.479   7.530  0.2134 -0.3574 -0.2806
  168SAPE   H6X19010   7.070   2.570   7.592 -2.3341 -1.0118  1.4554
  168SAPE   H6Y19011   7.158   2.445   7.515  0.2280 -0.5435  0.2579
  168SAPE   C3719012   6.960   2.387   7.613  0.1950 -0.3222  0.4553
  168SAPE   H7X19013   6.941   2.298   7.550  0.1928 -1.0060  1.4188
  168SAPE   H7Y19014   6.861   2.438   7.623  1.3586  2.0395  0.2315
  168SAPE   C3819015   7.027   2.334   7.740 -0.1362 -0.4833 -0.6922
  168SAPE   H8X19016   7.122   2.284   7.711  0.5769  0.7736 -0.5478
  168SAPE   H8Y19017   6.970   2.247   7.781  1.6828 -1.4100 -0.1000
  168SAPE   C3919018   7.042   2.445   7.844 -0.3036 -0.8131  0.2438
  168SAPE   H9X19019   6.942   2.473   7.882 -1.7687 -3.4093 -1.5351
  168SAPE   H9Y19020   7.080   2.536   7.792 -1.1737 -0.6559 -0.1277
  168SAPE  C31019021   7.136   2.389   7.950 -0.8360  0.1979 -0.6320
  168SAPE  H10X19022   7.237   2.417   7.911  0.1704 -1.0487  0.9897
  168SAPE  H10Y19023   7.137   2.278   7.944  0.0002  0.0977  1.1081
  168SAPE  C31119024   7.113   2.452   8.087  0.2304  0.1960 -0.4571
  168SAPE  H11X19025   7.006   2.469   8.108  0.5887 -0.8678  2.5831
  168SAPE  H11Y19026   7.160   2.551   8.105  1.7438 -1.0241  2.9026
  168SAPE  C31219027   7.180   2.360   8.195  0.6032  0.2394  0.3711
  168SAPE  H12X19028   7.282   2.335   8.158  0.3905  0.8298 -0.6376
  168SAPE  H12Y19029   7.112   2.273   8.210 -0.2224  0.7751 -0.2410
  168SAPE  C31319030   7.200   2.432   8.329 -0.2704 -0.0700  0.2277
  168SAPE  H13X19031   7.102   2.461   8.372  0.6941  2.9065  0.5047
  168SAPE  H13Y19032   7.267   2.519   8.312  0.9567 -1.5923 -3.4698
  168SAPE  C31419033   7.274   2.349   8.436  0.0278 -0.2184  0.8800
  168SAPE  H14X19034   7.373   2.320   8.395  0.0339 -0.0266  0.7584
  168SAPE  H14Y19035   7.215   2.259   8.463  0.5619 -1.6346 -2.4511
  168SAPE  C31519036   7.291   2.423   8.569  0.1319  0.8937  0.4173
  168SAPE  H15X19037   7.328   2.352   8.646  2.0514  0.0122 -1.2690
  168SAPE  H15Y19038   7.191   2.456   8.606  0.0712  1.4784 -0.2473
  168SAPE  C31619039   7.390   2.536   8.555  0.8035  0.6081  0.1471
  168SAPE  H16X19040   7.347   2.616   8.491  0.7163  0.7499  0.3829
  168SAPE  H16Y19041   7.476   2.488   8.503  0.6937 -0.0802  0.5953
  168SAPE  C31719042   7.432   2.604   8.682 -0.5808 -0.5787  0.0698
  168SAPE  H17X19043   7.474   2.530   8.753 -2.1682 -1.6046 -0.0595
  168SAPE  H17Y19044   7.340   2.641   8.733 -0.5338 -2.4580  1.5552
  168SAPE  C31819045   7.526   2.718   8.661  0.5127 -0.0127 -0.1387
  168SAPE  H18X19046   7.626   2.696   8.619  1.1971  0.9507  0.9585
  168SAPE  H18Y19047   7.550   2.761   8.761 -0.9435 -4.2699  2.2082
  168SAPE  H18Z19048   7.475   2.799   8.606  0.5573  0.6251  0.7528
  169SAPE     N19049   5.958   3.931   6.118 -0.3827 -0.1617  0.0521
  169SAPE   HN119050   5.952   3.993   6.034  1.0895  4.4515  3.1462
  169SAPE   HN219051   6.056   3.904   6.140 -0.7021 -2.2022 -0.9273
  169SAPE   HN319052   5.915   3.841   6.089 -0.4086 -0.1188 -0.0401
  169SAPE   C1219053   5.886   3.989   6.234  0.3021  0.7956 -0.5712
  169SAPE  H12A19054   5.823   4.062   6.179  1.7228  0.9705 -2.0000
  169SAPE  H12B19055   5.960   4.046   6.294 -0.0364  0.4967  0.1349
  169SAPE   C1119056   5.806   3.893   6.321  0.5235 -0.4389  0.6001
  169SAPE  H11A19057   5.742   3.961   6.383 -1.1392 -1.2894 -0.1461
  169SAPE  H11B19058   5.856   3.839   6.404 -0.9809 -2.0710  0.4773
  169SAPE     P19059   5.767   3.648   6.208 -0.3292 -0.1687 -0.6494
  169SAPE   O1319060   5.654   3.579   6.141 -0.2694  0.5200 -0.1951
  169SAPE   O1419061   5.884   3.658   6.122 -0.4268  0.3293 -0.2425
  169SAPE   O1219062   5.723   3.799   6.246 -0.5783 -0.4123  0.2088
  169SAPE   O1119063   5.811   3.579   6.348  0.5764  0.0321  0.4610
  169SAPE    C119064   5.693   3.536   6.422 -0.0101 -0.6507  0.1719
  169SAPE    HA19065   5.617   3.479   6.365 -1.0439  1.8208 -1.0022
  169SAPE    HB19066   5.733   3.461   6.493  2.1913  0.0565 -0.2799
  169SAPE    C219067   5.639   3.646   6.512  0.3947  0.1425 -0.1352
  169SAPE    HS19068   5.618   3.740   6.457  0.6949  0.9541  1.1205
  169SAPE   O2119069   5.725   3.673   6.627  0.3303 -0.2021 -0.3073
  169SAPE   C2119070   5.706   3.795   6.677 -0.4085  0.9188  0.5038
  169SAPE   O2219071   5.618   3.868   6.640  0.8212 -0.1810  0.2027
  169SAPE   C2219072   5.808   3.833   6.786  0.3691  0.5303 -0.2860
  169SAPE   H2R19073   5.817   3.936   6.825  0.8309  1.2790 -2.2970
  169SAPE   H2S19074   5.787   3.766   6.872  3.2034  0.8066  0.7024
  169SAPE    C319075   5.501   3.591   6.561 -0.0115  0.7351 -0.4198
  169SAPE    HX19076   5.436   3.606   6.472  0.8130  0.3983 -1.0965
  169SAPE    HY19077   5.449   3.658   6.633 -1.6928 -0.9529 -0.0400
  169SAPE   O3119078   5.509   3.451   6.606 -0.4579  0.2329  0.6939
  169SAPE   C3119079   5.528   3.443   6.744  0.0998 -0.4356  0.7420
  169SAPE   O3219080   5.549   3.538   6.813 -0.2354  0.0764  0.2242
  169SAPE   C3219081   5.516   3.297   6.785  0.1006 -0.8064  0.0829
  169SAPE   H2X19082   5.575   3.238   6.713  1.4240  2.8959 -1.9686
  169SAPE   H2Y19083   5.409   3.276   6.760  0.5949  0.2949 -3.1407
  169SAPE   C2319084   5.956   3.808   6.754 -1.0744  0.3069  0.4466
  169SAPE   H3R19085   5.965   3.746   6.662 -0.4060  1.4248 -0.2470
  169SAPE   H3S19086   5.994   3.735   6.829 -1.6711 -1.3618 -0.8451
  169SAPE   C2419087   6.060   3.919   6.743  0.3485 -0.2266 -0.6129
  169SAPE   H4R19088   6.160   3.872   6.734  1.2792  2.0873 -3.0105
  169SAPE   H4S19089   6.073   3.969   6.842 -0.6129 -1.9088  0.3814
  169SAPE   C2519090   6.044   4.014   6.627 -0.0384 -0.3614  0.4010
  169SAPE   H5R19091   6.066   3.968   6.529  0.1331  3.2740 -1.3430
  169SAPE   C2619092   6.001   4.144   6.632 -0.1625  0.1572 -0.3283
  169SAPE   H6R19093   5.975   4.190   6.535  0.3050  0.9651 -0.0710
  169SAPE   C2719094   5.961   4.214   6.759 -0.5316 -0.2366 -0.0314
  169SAPE   H7R19095   6.043   4.192   6.831 -0.7986  0.0294  0.3578
  169SAPE   H7S19096   5.864   4.172   6.791 -1.0478  0.9265 -0.0523
  169SAPE   C2819097   5.943   4.359   6.734 -0.1733 -0.0945  0.7970
  169SAPE   H8R19098   5.875   4.382   6.650  0.9227 -0.2625 -0.1425
  169SAPE   C2919099   5.983   4.461   6.809  0.3843 -0.2951 -0.1582
  169SAPE   H9R19100   5.967   4.567   6.783 -0.1610 -0.3578 -0.0820
  169SAPE  C21019101   6.059   4.448   6.942 -0.7180  0.0865  0.4769
  169SAPE  H10R19102   6.065   4.343   6.978 -0.6225  1.1491  3.6315
  169SAPE  H10S19103   5.993   4.487   7.022 -0.9001 -0.3485  0.5398
  169SAPE  C21119104   6.193   4.514   6.936 -0.2397 -0.4014 -0.3146
  169SAPE  H11R19105   6.226   4.547   6.836  2.0701 -0.5106  0.3826
  169SAPE  C21219106   6.274   4.542   7.043  0.4166 -0.6937  0.1089
  169SAPE  H12R19107   6.366   4.599   7.022  1.1423 -1.0630  2.2189
  169SAPE  C21319108   6.241   4.501   7.187 -0.5962 -0.3238  0.2508
  169SAPE  H13R19109   6.333   4.456   7.230 -1.0300 -2.9240 -1.3932
  169SAPE  H13S19110   6.165   4.421   7.196  0.7522 -1.6346  0.1712
  169SAPE  C21419111   6.194   4.620   7.270 -0.2038 -1.1453 -0.0800
  169SAPE  H14R19112   6.206   4.717   7.219 -0.1146 -0.7527  0.6775
  169SAPE  C21519113   6.147   4.616   7.398  0.2625  0.1236  0.2317
  169SAPE  H15R19114   6.120   4.707   7.453 -1.1889 -0.3781  0.3710
  169SAPE  C21619115   6.145   4.496   7.491 -0.2195  0.1034 -0.8904
  169SAPE  H16R19116   6.181   4.404   7.440  1.5361  0.8443 -1.0191
  169SAPE  H16S19117   6.043   4.474   7.529 -1.2861  1.8716 -2.6358
  169SAPE  C21719118   6.237   4.513   7.618  0.3568 -0.1256 -0.4010
  169SAPE  H17R19119   6.224   4.608   7.674 -0.6039 -0.3669 -0.2145
  169SAPE  H17S19120   6.342   4.509   7.582 -0.3488  0.0750 -2.5373
  169SAPE  C21819121   6.215   4.400   7.719  0.7644 -0.0418 -0.0075
  169SAPE  H18R19122   6.242   4.302   7.674  1.6712 -0.8285  2.2060
  169SAPE  H18S19123   6.110   4.384   7.751  1.5903 -0.7868  2.3900
  169SAPE  C21919124   6.297   4.428   7.847  0.0917 -0.6721 -0.3373
  169SAPE  H19R19125   6.282   4.536   7.869 -1.4985 -1.4178  2.4549
  169SAPE  H19S19126   6.404   4.420   7.818  0.0925  1.1105 -0.8628
  169SAPE  C22019127   6.274   4.333   7.966  0.0275  0.1942  0.0156
  169SAPE  H20R19128   6.322   4.386   8.051  0.7228  0.1670 -0.3590
  169SAPE  H20S19129   6.315   4.230   7.959  0.8814  0.4187  1.5648
  169SAPE  H20T19130   6.164   4.335   7.982  0.0912 -0.0715  0.4845
  169SAPE   C3319131   5.551   3.262   6.927 -0.3552  0.0834  0.0079
  169SAPE   H3X19132   5.509   3.161   6.947  1.4048 -0.1689  2.7847
  169SAPE   H3Y19133   5.501   3.322   7.007  1.6557 -0.4853  1.7313
  169SAPE   C3419134   5.703   3.237   6.965 -0.2591 -0.0537  0.4828
  169SAPE   H4X19135   5.758   3.323   6.921  2.6081 -1.9731  0.2209
  169SAPE   H4Y19136   5.754   3.163   6.899  0.6159  0.6571  0.3516
  169SAPE   C3519137   5.736   3.219   7.116 -0.4473  0.0358 -0.1992
  169SAPE   H5X19138   5.668   3.143   7.160  1.8603 -1.5431  0.7481
  169SAPE   H5Y19139   5.716   3.313   7.171  1.7817  0.0213  0.6705
  169SAPE   C3619140   5.886   3.183   7.152 -0.1334 -0.0082 -0.1670
  169SAPE   H6X19141   5.944   3.271   7.116 -2.0703  1.1899 -0.4233
  169SAPE   H6Y19142   5.915   3.096   7.089 -1.2318  1.2436 -2.4641
  169SAPE   C3719143   5.919   3.162   7.302  0.7424 -0.5488  0.4717
  169SAPE   H7X19144   6.030   3.160   7.303  0.7353 -1.0562  3.5981
  169SAPE   H7Y19145   5.874   3.067   7.338 -1.3842  0.1679 -0.2547
  169SAPE   C3819146   5.880   3.275   7.401 -0.0572 -0.2314 -0.3539
  169SAPE   H8X19147   5.768   3.274   7.400 -0.1366  3.4585 -2.0736
  169SAPE   H8Y19148   5.922   3.373   7.371 -2.6584  1.3110  0.8084
  169SAPE   C3919149   5.926   3.247   7.547  0.3777 -0.2584 -0.0013
  169SAPE   H9X19150   6.037   3.242   7.551  0.4011 -0.2950 -0.5776
  169SAPE   H9Y19151   5.883   3.150   7.578 -2.6997  1.4697  1.3725
  169SAPE  C31019152   5.864   3.354   7.642 -0.5547 -0.2852  0.0397
  169SAPE  H10X19153   5.759   3.333   7.669  0.0036 -2.6090  0.5717
  169SAPE  H10Y19154   5.867   3.454   7.595 -1.1819 -0.6814 -0.8464
  169SAPE  C31119155   5.954   3.379   7.770  0.6786 -0.0994  0.5437
  169SAPE  H11X19156   5.909   3.465   7.825  1.3346  0.8061 -0.3160
  169SAPE  H11Y19157   6.053   3.405   7.726 -0.0441  0.2275 -0.9215
  169SAPE  C31219158   5.982   3.261   7.867  0.7458  0.7750  0.6573
  169SAPE  H12X19159   6.043   3.291   7.954 -2.2507 -0.4829  3.3022
  169SAPE  H12Y19160   6.035   3.180   7.811 -2.8251 -0.6882 -0.7881
  169SAPE  C31319161   5.856   3.193   7.921 -0.0715  0.0859 -0.2214
  169SAPE  H13X19162   5.808   3.130   7.842 -0.3246  0.3730 -0.2940
  169SAPE  H13Y19163   5.781   3.267   7.956 -0.4403  0.4026 -1.6285
  169SAPE  C31419164   5.892   3.098   8.040 -0.5082  0.4077  0.7908
  169SAPE  H14X19165   5.955   3.145   8.117  0.6996  1.0273 -0.5523
  169SAPE  H14Y19166   5.955   3.020   7.993 -2.2513  0.0089 -0.9958
  169SAPE  C31519167   5.777   3.011   8.096  0.0992  0.7289 -0.6093
  169SAPE  H15X19168   5.736   2.946   8.015 -0.1294  0.2577 -0.1178
  169SAPE  H15Y19169   5.699   3.072   8.145  0.2324  1.5201 -1.3767
  169SAPE  C31619170   5.829   2.910   8.197 -0.2445  0.7854  0.4505
  169SAPE  H16X19171   5.838   2.971   8.290  1.3667  0.8412  0.2649
  169SAPE  H16Y19172   5.932   2.874   8.176  0.1388  2.0808  0.1036
  169SAPE  C31719173   5.729   2.795   8.227 -0.3893 -0.1760 -0.3598
  169SAPE  H17X19174   5.772   2.740   8.313  1.1484  3.6448  1.4328
  169SAPE  H17Y19175   5.716   2.722   8.144 -2.6229  0.0654 -0.2711
  169SAPE  C31819176   5.586   2.850   8.264  0.5291  0.4026  0.1685
  169SAPE  H18X19177   5.540   2.867   8.164  1.4070  2.2928  0.0703
  169SAPE  H18Y19178   5.600   2.949   8.312  1.2069  0.3191  0.1443
  169SAPE  H18Z19179   5.525   2.786   8.332  1.0017 -0.0709  0.1544
  170SAPE     N19180   6.334   1.927   6.368 -0.7051 -0.6800  0.3880
  170SAPE   HN119181   6.364   1.891   6.275 -2.0843 -0.2637 -0.2247
  170SAPE   HN219182   6.251   1.869   6.391 -1.5376  0.5243  0.4978
  170SAPE   HN319183   6.299   2.025   6.367  0.4037 -0.2780 -1.4826
  170SAPE   C1219184   6.445   1.900   6.468  0.5121 -0.0503  0.1597
  170SAPE  H12A19185   6.409   1.898   6.573  0.2315  0.6910  0.0822
  170SAPE  H12B19186   6.521   1.981   6.462 -0.1782  0.6750  1.1921
  170SAPE   C1119187   6.520   1.767   6.442  0.3744 -0.0256 -0.0705
  170SAPE  H11A19188   6.457   1.676   6.455  0.2038  0.2700  1.2255
  170SAPE  H11B19189   6.603   1.754   6.513 -0.3556 -0.8112  0.6590
  170SAPE     P19190   6.714   1.792   6.269 -0.1174  0.2656 -0.0689
  170SAPE   O1319191   6.736   1.734   6.136 -0.0923 -0.6753 -0.5819
  170SAPE   O1419192   6.757   1.930   6.299  0.1345  0.4108  0.4312
  170SAPE   O1219193   6.559   1.774   6.304 -0.1657 -0.1487 -0.3215
  170SAPE   O1119194   6.782   1.702   6.379  0.1674 -0.3685 -1.0326
  170SAPE    C119195   6.797   1.565   6.353  0.3913 -0.2289  0.1518
  170SAPE    HA19196   6.754   1.521   6.260 -2.1234 -0.2738  1.2742
  170SAPE    HB19197   6.903   1.534   6.342  0.0581 -1.1810 -0.4332
  170SAPE    C219198   6.742   1.485   6.479 -0.3220  0.7916  1.0415
  170SAPE    HS19199   6.636   1.518   6.490 -0.4717  0.9924 -0.9763
  170SAPE   O2119200   6.822   1.526   6.592 -0.2548  0.4218  0.1200
  170SAPE   C2119201   6.767   1.580   6.695  0.1854  0.4917  0.5221
  170SAPE   O2219202   6.646   1.612   6.707 -0.3939 -0.2206  0.0338
  170SAPE   C2219203   6.866   1.586   6.800 -0.3413 -0.0071 -0.0010
  170SAPE   H2R19204   6.889   1.483   6.835 -0.2339  0.5979  1.7737
  170SAPE   H2S19205   6.959   1.637   6.766 -1.9094  3.6447  0.9291
  170SAPE    C319206   6.746   1.330   6.462 -0.4035  0.5137  0.1733
  170SAPE    HX19207   6.854   1.311   6.444  0.2843  1.0438  3.3636
  170SAPE    HY19208   6.683   1.295   6.378  1.2507 -1.7259 -0.1826
  170SAPE   O3119209   6.689   1.266   6.576  0.4091 -0.0548  0.5286
  170SAPE   C3119210   6.549   1.265   6.578  0.0764 -0.9022 -0.4843
  170SAPE   O3219211   6.480   1.310   6.487  0.5323 -0.1937 -0.4136
  170SAPE   C3219212   6.502   1.219   6.717  0.1917  0.3136  0.0657
  170SAPE   H2X19213   6.508   1.109   6.725 -0.8700  0.3580  1.7877
  170SAPE   H2Y19214   6.396   1.251   6.727 -0.1754 -0.0124 -2.4974
  170SAPE   C2319215   6.807   1.652   6.927  0.4597 -0.8870  0.4971
  170SAPE   H3R19216   6.770   1.571   6.992 -0.1803 -0.8785  0.1471
  170SAPE   H3S19217   6.718   1.717   6.911  1.1072 -0.0328  0.2948
  170SAPE   C2419218   6.901   1.738   7.019 -1.0582  0.0857  0.2311
  170SAPE   H4R19219   6.837   1.757   7.109  0.2546 -1.4279  1.5263
  170SAPE   H4S19220   6.934   1.833   6.974  0.7282 -1.6022 -2.1411
  170SAPE   C2519221   7.018   1.658   7.055  0.0979 -0.5365 -0.5651
  170SAPE   H5R19222   7.079   1.614   6.974 -0.2512  2.4574 -2.5500
  170SAPE   C2619223   7.063   1.634   7.177 -0.2641  0.2275 -1.0162
  170SAPE   H6R19224   7.151   1.570   7.192 -1.4982 -0.7416  2.7900
  170SAPE   C2719225   7.009   1.680   7.307  0.1022  0.3390 -0.0674
  170SAPE   H7R19226   7.035   1.594   7.372 -0.9441  1.0894  1.3573
  170SAPE   H7S19227   6.899   1.681   7.291  0.1679  0.7648 -0.5162
  170SAPE   C2819228   7.070   1.806   7.355  0.2197 -0.2062  0.6539
  170SAPE   H8R19229   7.122   1.861   7.275  1.7029 -1.3725  0.8036
  170SAPE   C2919230   7.052   1.841   7.483  0.3558 -0.7182 -0.0354
  170SAPE   H9R19231   7.092   1.938   7.516  1.8221 -1.6097  0.8484
  170SAPE  C21019232   6.981   1.767   7.590 -0.2095  0.4150  0.9080
  170SAPE  H10R19233   6.996   1.658   7.583 -1.3939  0.4242 -2.4325
  170SAPE  H10S19234   6.871   1.774   7.571 -0.3079 -2.3579  0.2468
  170SAPE  C21119235   6.990   1.827   7.727 -0.2282 -0.7655  0.2173
  170SAPE  H11R19236   7.023   1.931   7.739 -2.3338 -0.2456  1.7847
  170SAPE  C21219237   6.945   1.763   7.838  0.2786  0.0687 -0.0880
  170SAPE  H12R19238   6.959   1.808   7.938 -0.1117 -0.2392  0.1040
  170SAPE  C21319239   6.880   1.631   7.831  0.1503  0.3461  0.9688
  170SAPE  H13R19240   6.948   1.543   7.825  0.1788  0.3679  0.9778
  170SAPE  H13S19241   6.827   1.618   7.734 -0.5440 -3.3809  1.7604
  170SAPE  C21419242   6.785   1.592   7.947 -0.0214 -0.1756 -0.1364
  170SAPE  H14R19243   6.689   1.551   7.914  0.3192 -1.0675 -0.0311
  170SAPE  C21519244   6.808   1.600   8.081 -0.0572  0.1269  0.4163
  170SAPE  H15R19245   6.735   1.554   8.149  0.5444 -1.5912 -0.0543
  170SAPE  C21619246   6.928   1.647   8.161 -0.0538  0.3400  0.5958
  170SAPE  H16R19247   6.900   1.728   8.231  0.6895  0.9245  0.2255
  170SAPE  H16S19248   7.010   1.691   8.100  1.1782 -1.4795  0.9034
  170SAPE  C21719249   6.991   1.524   8.231  0.4651 -0.7350  0.5074
  170SAPE  H17R19250   7.084   1.541   8.290  1.8779 -2.8009 -1.0182
  170SAPE  H17S19251   7.009   1.452   8.148 -0.1708  1.1448 -1.2787
  170SAPE  C21819252   6.900   1.454   8.335 -0.2229  0.0619 -0.6660
  170SAPE  H18R19253   6.809   1.400   8.303 -0.2091  0.5684 -1.5623
  170SAPE  H18S19254   6.865   1.539   8.396 -0.3013 -1.5968  1.6856
  170SAPE  C21919255   6.973   1.361   8.439  0.5096  0.2298 -0.2947
  170SAPE  H19R19256   7.081   1.380   8.417  0.0359  0.7853 -2.2770
  170SAPE  H19S19257   6.956   1.253   8.418  0.7401 -0.1735  1.4784
  170SAPE  C22019258   6.946   1.394   8.582 -0.5484  0.1514 -0.5763
  170SAPE  H20R19259   6.838   1.388   8.606 -0.8143  2.3979 -1.0739
  170SAPE  H20S19260   6.985   1.495   8.609 -1.2739  0.3234 -0.1590
  170SAPE  H20T19261   7.000   1.320   8.645  2.4401  2.2766 -0.5121
  170SAPE   C3319262   6.595   1.280   6.833  0.3062  0.3970  0.6705
  170SAPE   H3X19263   6.623   1.386   6.813 -1.7241  1.3301  2.5231
  170SAPE   H3Y19264   6.687   1.219   6.847  0.8632  0.4839 -2.3244
  170SAPE   C3419265   6.526   1.280   6.975  0.6938 -0.1358 -0.2574
  170SAPE   H4X19266   6.449   1.359   6.983 -0.6669 -1.6770  2.7013
  170SAPE   H4Y19267   6.607   1.310   7.046 -1.7871 -0.7923  2.9777
  170SAPE   C3519268   6.460   1.156   7.017  0.0857 -1.0308  0.0134
  170SAPE   H5X19269   6.529   1.071   6.998  1.0503 -0.5070  1.0913
  170SAPE   H5Y19270   6.367   1.135   6.960 -0.4651  0.8593  0.1961
  170SAPE   C3619271   6.407   1.162   7.165  0.9289 -0.4308  0.0690
  170SAPE   H6X19272   6.479   1.209   7.235 -0.1050 -0.5037  1.1836
  170SAPE   H6Y19273   6.407   1.054   7.192  0.2161 -0.8519 -1.5525
  170SAPE   C3719274   6.262   1.199   7.185  0.4327 -0.5653  0.2416
  170SAPE   H7X19275   6.201   1.126   7.127 -0.5886  1.4138 -1.1971
  170SAPE   H7Y19276   6.244   1.299   7.141  0.2333 -1.5884 -2.0786
  170SAPE   C3819277   6.222   1.195   7.332 -0.1871 -0.2156 -0.0643
  170SAPE   H8X19278   6.290   1.265   7.385 -2.4029  1.1293  1.0637
  170SAPE   H8Y19279   6.240   1.097   7.381 -0.0328  1.1016  2.5623
  170SAPE   C3919280   6.069   1.221   7.353  0.2050  0.7859  0.2586
  170SAPE   H9X19281   6.009   1.137   7.311  1.0334  0.2669  0.0906
  170SAPE   H9Y19282   6.045   1.312   7.294  1.2601  0.3415 -0.8945
  170SAPE  C31019283   6.042   1.249   7.506 -0.1676  0.2708  0.3649
  170SAPE  H10X19284   5.932   1.256   7.522 -0.3895 -2.4190  0.3284
  170SAPE  H10Y19285   6.097   1.340   7.540  0.6587 -0.2599  0.4661
  170SAPE  C31119286   6.084   1.142   7.616 -0.1931  0.5637 -0.2019
  170SAPE  H11X19287   6.194   1.126   7.605 -0.4638  0.4088 -3.0255
  170SAPE  H11Y19288   6.050   1.041   7.585  2.6388 -1.1437  1.9656
  170SAPE  C31219289   6.035   1.168   7.758  0.1766  0.0247 -0.0403
  170SAPE  H12X19290   6.056   1.076   7.817 -0.3956 -0.0649  0.0335
  170SAPE  H12Y19291   5.927   1.187   7.777  0.6275  1.6665  0.8877
  170SAPE  C31319292   6.103   1.293   7.817 -0.3205  0.3583 -0.1538
  170SAPE  H13X19293   6.082   1.380   7.752 -1.2132  0.0026 -0.3538
  170SAPE  H13Y19294   6.213   1.274   7.821 -0.8021 -2.6283  0.0016
  170SAPE  C31419295   6.070   1.329   7.966 -0.1651  0.9633  0.2486
  170SAPE  H14X19296   5.972   1.379   7.953  0.0328  1.0204 -1.1499
  170SAPE  H14Y19297   6.142   1.401   8.010  2.8598 -2.7253  1.6052
  170SAPE  C31519298   6.056   1.211   8.057 -0.5053  0.3459 -0.0186
  170SAPE  H15X19299   6.163   1.187   8.073 -0.2933  0.8760 -0.6373
  170SAPE  H15Y19300   6.003   1.118   8.027  0.2253  0.0090 -0.2820
  170SAPE  C31619301   5.998   1.243   8.194 -0.1911  0.9403 -0.3774
  170SAPE  H16X19302   6.071   1.293   8.261  1.2847 -2.8964  0.9671
  170SAPE  H16Y19303   5.961   1.157   8.253  1.6366 -0.6116 -1.4208
  170SAPE  C31719304   5.876   1.328   8.184 -0.6316  0.0417 -0.8103
  170SAPE  H17X19305   5.896   1.426   8.136 -1.2926  0.2878 -0.5980
  170SAPE  H17Y19306   5.843   1.352   8.287 -1.0243  0.7981 -1.1053
  170SAPE  C31819307   5.760   1.259   8.120  0.7066  0.2152  0.5209
  170SAPE  H18X19308   5.784   1.232   8.015 -2.0212 -1.5479  0.2956
  170SAPE  H18Y19309   5.670   1.324   8.121  1.7179  1.7036 -1.6533
  170SAPE  H18Z19310   5.743   1.164   8.174 -2.2560  0.6612  0.5057
  171SAPE     N19311   1.771   2.806   6.442 -0.0257 -0.2338  0.2465
  171SAPE   HN119312   1.790   2.734   6.369 -1.8404  0.7598 -1.2754
  171SAPE   HN219313   1.764   2.895   6.388  0.5353 -0.2251  0.1854
  171SAPE   HN319314   1.841   2.817   6.518  0.4905  0.6739 -0.3476
  171SAPE   C1219315   1.629   2.791   6.491  0.3221 -0.0605  0.6852
  171SAPE  H12A19316   1.567   2.811   6.401  1.1153  1.5150  0.4717
  171SAPE  H12B19317   1.612   2.872   6.564  1.7624  0.2485  0.6886
  171SAPE   C1119318   1.606   2.652   6.549 -0.1999  0.4157 -0.0116
  171SAPE  H11A19319   1.503   2.650   6.592  0.4451  0.8374  1.5859
  171SAPE  H11B19320   1.678   2.641   6.632 -1.0725 -1.0240  0.5740
  171SAPE     P19321   1.551   2.492   6.337 -0.2991 -0.2297  0.5297
  171SAPE   O1319322   1.486   2.609   6.275  0.6645 -0.3170 -0.2201
  171SAPE   O1419323   1.627   2.407   6.246 -0.8219 -0.0064  0.1109
  171SAPE   O1219324   1.634   2.540   6.454 -0.4443 -0.3112  0.2503
  171SAPE   O1119325   1.433   2.411   6.402  0.0676 -0.1903  0.1038
  171SAPE    C119326   1.454   2.319   6.508  0.1652  0.6285  0.2009
  171SAPE    HA19327   1.438   2.220   6.460 -2.1929  0.8660  0.4579
  171SAPE    HB19328   1.562   2.315   6.535  0.3379  0.9627 -0.4385
  171SAPE    C219329   1.374   2.344   6.638 -0.1844 -0.1613  0.2051
  171SAPE    HS19330   1.278   2.383   6.596 -0.5853 -2.0281 -0.6459
  171SAPE   O2119331   1.454   2.440   6.723 -0.1855 -0.1081  0.2724
  171SAPE   C2119332   1.370   2.494   6.811  0.2754  0.2921 -0.0069
  171SAPE   O2219333   1.254   2.462   6.827  0.8466  0.0429  0.2597
  171SAPE   C2219334   1.448   2.589   6.896 -0.0472 -0.3334 -0.0514
  171SAPE   H2R19335   1.508   2.665   6.841 -2.8916  1.1238 -1.2594
  171SAPE   H2S19336   1.373   2.645   6.957  0.1265 -1.6983  1.4710
  171SAPE    C319337   1.351   2.202   6.705 -0.3884 -0.6643 -0.2887
  171SAPE    HX19338   1.444   2.147   6.678  0.0884  0.8346 -1.7936
  171SAPE    HY19339   1.271   2.153   6.646  0.2125 -2.6615  0.4960
  171SAPE   O3119340   1.334   2.203   6.844  0.2019  0.5133  0.2496
  171SAPE   C3119341   1.216   2.154   6.898 -0.5175  0.3711 -0.4252
  171SAPE   O3219342   1.131   2.105   6.826  0.0292  0.0605 -0.0935
  171SAPE   C3219343   1.207   2.196   7.040  0.0874  0.2913 -0.3445
  171SAPE   H2X19344   1.254   2.297   7.042 -1.2434  0.9034  0.3006
  171SAPE   H2Y19345   1.277   2.129   7.095  0.5996  0.6383 -0.5636
  171SAPE   C2319346   1.535   2.498   6.988 -0.1418  0.1914  0.6237
  171SAPE   H3R19347   1.635   2.475   6.946 -0.2941 -1.5747  1.1919
  171SAPE   H3S19348   1.486   2.399   6.994  0.7888 -0.1749  2.6229
  171SAPE   C2419349   1.554   2.538   7.133 -0.3943 -0.9036 -0.7545
  171SAPE   H4R19350   1.601   2.638   7.137  1.5270 -1.7632 -1.0439
  171SAPE   H4S19351   1.625   2.469   7.184 -0.8521 -0.7606  0.0723
  171SAPE   C2519352   1.422   2.536   7.207  0.2094  0.6198 -0.4696
  171SAPE   H5R19353   1.343   2.473   7.162 -0.3805 -0.7530  2.3453
  171SAPE   C2619354   1.394   2.616   7.322  0.0817  0.7331  0.5679
  171SAPE   H6R19355   1.287   2.624   7.348 -0.4897 -0.5743 -1.2296
  171SAPE   C2719356   1.475   2.712   7.402 -1.1992  0.3689 -0.0439
  171SAPE   H7R19357   1.430   2.814   7.406 -0.6517  0.6208 -0.2406
  171SAPE   H7S19358   1.579   2.717   7.363  0.2540 -2.2413  3.2831
  171SAPE   C2819359   1.505   2.668   7.541  0.3123 -0.7699 -0.1231
  171SAPE   H8R19360   1.496   2.561   7.566 -0.7762 -0.8324 -0.7437
  171SAPE   C2919361   1.541   2.749   7.647  0.0637  0.6767 -0.0855
  171SAPE   H9R19362   1.567   2.693   7.739  0.9166  1.5602  0.2140
  171SAPE  C21019363   1.550   2.901   7.659 -0.2762  0.2761  0.7422
  171SAPE  H10R19364   1.568   2.935   7.763  2.5332  1.0092  0.0364
  171SAPE  H10S19365   1.449   2.938   7.629 -1.1427 -1.4264  1.4778
  171SAPE  C21119366   1.642   2.980   7.568 -0.6005 -0.0002  0.0319
  171SAPE  H11R19367   1.606   2.959   7.466 -0.1728  0.0972 -0.1413
  171SAPE  C21219368   1.738   3.072   7.592 -0.2522  0.0211  0.1099
  171SAPE  H12R19369   1.792   3.116   7.507  0.3922 -1.9920 -0.5710
  171SAPE  C21319370   1.771   3.116   7.731 -0.3115 -0.6691 -0.3782
  171SAPE  H13R19371   1.878   3.143   7.725 -0.4664 -0.5282 -2.7354
  171SAPE  H13S19372   1.760   3.031   7.802  2.1466  0.8102  1.8878
  171SAPE  C21419373   1.687   3.233   7.785  0.6971  0.6038 -0.2487
  171SAPE  H14R19374   1.659   3.298   7.701 -1.8403  1.6363  1.3656
  171SAPE  C21519375   1.648   3.264   7.912 -0.4582  0.0483 -1.0573
  171SAPE  H15R19376   1.605   3.364   7.929 -2.4176 -0.3332 -3.3799
  171SAPE  C21619377   1.686   3.171   8.019 -0.7969  0.2815 -0.3215
  171SAPE  H16R19378   1.774   3.107   7.995 -0.6936  0.0374  0.7009
  171SAPE  H16S19379   1.607   3.096   8.040 -0.5974 -0.0329 -0.6822
  171SAPE  C21719380   1.731   3.251   8.140  0.0249  0.3281 -0.2857
  171SAPE  H17R19381   1.651   3.306   8.193 -0.0717 -0.6474  0.6025
  171SAPE  H17S19382   1.796   3.337   8.114  0.0590  0.1792 -0.7062
  171SAPE  C21819383   1.798   3.167   8.256  0.4100  0.0942 -0.3145
  171SAPE  H18R19384   1.896   3.132   8.217  1.1156  1.3710  0.2784
  171SAPE  H18S19385   1.736   3.079   8.285  0.4892  0.8057  2.1012
  171SAPE  C21919386   1.834   3.258   8.367  0.2146  0.0695  0.6867
  171SAPE  H19R19387   1.742   3.312   8.399 -0.1598 -1.7891  2.8883
  171SAPE  H19S19388   1.909   3.332   8.332 -0.7765  0.7612 -0.0025
  171SAPE  C22019389   1.894   3.195   8.488 -0.1560  0.1751 -0.1557
  171SAPE  H20R19390   1.828   3.210   8.576  0.3409  0.8692  0.1002
  171SAPE  H20S19391   1.994   3.234   8.516  0.4263 -1.8638  0.7348
  171SAPE  H20T19392   1.909   3.088   8.460  0.6717  0.7285 -1.8856
  171SAPE   C3319393   1.070   2.188   7.101 -0.2583  0.2536 -0.0160
  171SAPE   H3X19394   1.021   2.092   7.071 -0.9638  0.4292  0.5411
  171SAPE   H3Y19395   1.004   2.270   7.066 -3.3210 -1.7559  0.7408
  171SAPE   C3419396   1.078   2.183   7.248  0.4266  0.4325 -0.2294
  171SAPE   H4X19397   1.134   2.090   7.274 -3.6555 -2.4670 -1.3747
  171SAPE   H4Y19398   0.977   2.162   7.289  1.1941 -0.7198  1.1554
  171SAPE   C3519399   1.139   2.303   7.313  0.7205  0.5250 -0.1254
  171SAPE   H5X19400   1.092   2.390   7.264 -0.9797  0.6455  1.6604
  171SAPE   H5Y19401   1.249   2.305   7.300  0.7767 -1.3604 -0.0970
  171SAPE   C3619402   1.114   2.308   7.460 -0.1890 -0.4089  0.6516
  171SAPE   H6X19403   1.010   2.276   7.480  0.1446 -1.6662  0.4776
  171SAPE   H6Y19404   1.132   2.411   7.496  0.8684 -1.0350  1.9799
  171SAPE   C3719405   1.215   2.235   7.543  0.1881 -0.5704  0.2369
  171SAPE   H7X19406   1.294   2.304   7.579 -0.6950  0.8111 -0.4299
  171SAPE   H7Y19407   1.270   2.165   7.476 -1.4015 -0.2080 -1.4873
  171SAPE   C3819408   1.158   2.149   7.663  0.4093 -0.4913 -0.2281
  171SAPE   H8X19409   1.107   2.062   7.615  1.0501 -1.1501  0.2852
  171SAPE   H8Y19410   1.091   2.218   7.719  1.9786 -0.3589  1.5320
  171SAPE   C3919411   1.272   2.089   7.743  0.1531  0.4964 -0.4060
  171SAPE   H9X19412   1.349   2.168   7.729  0.4288  0.3960  0.5502
  171SAPE   H9Y19413   1.307   2.003   7.682 -1.8029 -1.1596  0.7320
  171SAPE  C31019414   1.227   2.042   7.877 -0.3032  0.0868  0.3422
  171SAPE  H10X19415   1.294   1.955   7.896  0.8031  0.4043 -1.9706
  171SAPE  H10Y19416   1.120   2.013   7.869 -0.4779  0.9681 -0.4266
  171SAPE  C31119417   1.235   2.156   7.982 -0.6483 -0.0517  0.2185
  171SAPE  H11X19418   1.149   2.214   7.941 -0.7921 -1.0146 -0.8631
  171SAPE  H11Y19419   1.328   2.211   7.955  0.3497 -1.6639  0.3234
  171SAPE  C31219420   1.231   2.114   8.129  1.5038  0.6869 -0.3275
  171SAPE  H12X19421   1.141   2.052   8.149  0.1385  2.3930 -1.0455
  171SAPE  H12Y19422   1.217   2.207   8.188  0.1265  0.3374 -0.0710
  171SAPE  C31319423   1.361   2.049   8.162  0.3059  0.3208  0.1701
  171SAPE  H13X19424   1.387   1.975   8.083  1.9829  0.3508  0.6870
  171SAPE  H13Y19425   1.348   1.990   8.255 -1.3927  0.4629  0.0383
  171SAPE  C31419426   1.478   2.145   8.184  0.4919  0.2511  0.0274
  171SAPE  H14X19427   1.443   2.230   8.246  3.7809  1.6160  0.1290
  171SAPE  H14Y19428   1.503   2.199   8.090  0.0763 -1.8243 -1.3166
  171SAPE  C31519429   1.602   2.074   8.231 -0.0869  0.1226  0.1697
  171SAPE  H15X19430   1.573   2.014   8.320  1.1759 -0.8655 -0.0717
  171SAPE  H15Y19431   1.671   2.154   8.263 -0.6523  0.7884 -0.2627
  171SAPE  C31619432   1.672   1.991   8.121  0.2996 -0.0831 -0.6912
  171SAPE  H16X19433   1.767   2.036   8.083 -0.1030  0.8351 -0.6194
  171SAPE  H16Y19434   1.603   1.997   8.033 -0.6606  2.2348  0.1763
  171SAPE  C31719435   1.698   1.839   8.158  0.4743 -0.6983 -0.0434
  171SAPE  H17X19436   1.603   1.793   8.192  0.0405 -0.2470 -0.6461
  171SAPE  H17Y19437   1.756   1.830   8.252 -0.4575 -1.9163  0.4317
  171SAPE  C31819438   1.748   1.761   8.043  0.5392 -0.0529 -0.1306
  171SAPE  H18X19439   1.758   1.660   8.087  1.7810  0.6091  1.1469
  171SAPE  H18Y19440   1.846   1.800   8.008 -0.1699 -1.3728 -3.8115
  171SAPE  H18Z19441   1.673   1.762   7.961 -0.4426  0.6470  0.7687
  172SAPE     N19442   1.024   1.171   5.936 -0.2944 -0.1175  0.1459
  172SAPE   HN119443   1.053   1.256   5.882 -0.3218 -1.1877 -1.6052
  172SAPE   HN219444   1.090   1.149   6.013 -3.0904 -0.8578  2.3953
  172SAPE   HN319445   1.027   1.091   5.870  0.2110  1.2966 -1.5855
  172SAPE   C1219446   0.890   1.187   5.999  0.8972  0.5750  0.0410
  172SAPE  H12A19447   0.836   1.240   5.918 -0.2890 -0.4280  0.1678
  172SAPE  H12B19448   0.901   1.252   6.088  1.6108  0.3893  0.0862
  172SAPE   C1119449   0.816   1.056   6.030  0.9136 -0.5043  0.9011
  172SAPE  H11A19450   0.786   1.005   5.936 -0.2660 -0.9513  1.5077
  172SAPE  H11B19451   0.718   1.083   6.075  0.8921  1.4769 -0.2978
  172SAPE     P19452   0.829   0.842   6.170  0.3950  0.0476 -0.3837
  172SAPE   O1319453   0.692   0.827   6.114  0.6248  0.6461  0.3278
  172SAPE   O1419454   0.916   0.725   6.163  0.1525 -0.0765  0.3118
  172SAPE   O1219455   0.889   0.967   6.106 -0.4245  0.3088 -0.2684
  172SAPE   O1119456   0.823   0.890   6.320 -0.7999 -0.1358  0.1946
  172SAPE    C119457   0.717   0.977   6.365 -0.9579 -0.0378  0.1771
  172SAPE    HA19458   0.764   1.065   6.413  1.1592 -0.0204 -1.8347
  172SAPE    HB19459   0.639   1.004   6.290 -0.1520 -1.1935 -1.1133
  172SAPE    C219460   0.632   0.911   6.481  0.6140  0.2053  0.1212
  172SAPE    HS19461   0.563   0.989   6.517  2.0412  1.2362  0.6547
  172SAPE   O2119462   0.707   0.849   6.583 -0.0638  1.1197 -0.4790
  172SAPE   C2119463   0.769   0.940   6.661  0.1178  0.3015  0.3830
  172SAPE   O2219464   0.753   1.062   6.650 -0.0857  0.1362 -0.4753
  172SAPE   C2219465   0.831   0.869   6.778 -0.3437 -0.0413 -0.5154
  172SAPE   H2R19466   0.757   0.793   6.812 -0.8471  0.6727 -0.0187
  172SAPE   H2S19467   0.929   0.833   6.738  1.7428  4.1846  0.5206
  172SAPE    C319468   0.544   0.795   6.417  0.1069  0.0275 -0.2627
  172SAPE    HX19469   0.614   0.721   6.372 -1.1650 -0.4431 -1.4931
  172SAPE    HY19470   0.471   0.835   6.343  1.2138 -1.4096 -2.1741
  172SAPE   O3119471   0.478   0.719   6.523 -0.3981  1.0599  0.1769
  172SAPE   C3119472   0.372   0.769   6.564  0.4093 -0.7232 -1.5188
  172SAPE   O3219473   0.310   0.865   6.511 -0.0589 -0.0090  0.2004
  172SAPE   C3219474   0.318   0.689   6.687 -0.3584 -0.3429 -0.5153
  172SAPE   H2X19475   0.388   0.608   6.717 -1.2133 -1.1525 -0.6768
  172SAPE   H2Y19476   0.231   0.635   6.643  0.5682 -1.0401 -1.5093
  172SAPE   C2319477   0.849   0.953   6.907 -0.8957 -0.0989  0.0043
  172SAPE   H3R19478   0.748   0.963   6.952  0.1438 -1.2617  2.6778
  172SAPE   H3S19479   0.890   1.055   6.890 -1.6941  0.8524  3.3929
  172SAPE   C2419480   0.943   0.887   7.001 -0.0883  0.0710 -1.1609
  172SAPE   H4R19481   0.976   0.954   7.084  0.0910 -0.6568 -0.6357
  172SAPE   H4S19482   1.032   0.857   6.942 -0.3905 -1.1387 -1.0266
  172SAPE   C2519483   0.883   0.770   7.081  0.0436 -0.4332 -0.1511
  172SAPE   H5R19484   0.889   0.674   7.028  4.5959  1.1209 -2.7674
  172SAPE   C2619485   0.832   0.778   7.207 -0.1935  0.7371  0.3224
  172SAPE   H6R19486   0.800   0.685   7.257  1.0945  0.5818  0.8788
  172SAPE   C2719487   0.825   0.908   7.284 -0.2001 -0.2051 -0.0614
  172SAPE   H7R19488   0.719   0.918   7.316 -0.7986 -4.0122 -0.5787
  172SAPE   H7S19489   0.848   0.997   7.223 -0.2374  1.0098  1.6587
  172SAPE   C2819490   0.923   0.890   7.395  0.1011  0.1930  0.0425
  172SAPE   H8R19491   1.027   0.886   7.360 -0.7324 -0.2902 -2.4640
  172SAPE   C2919492   0.914   0.878   7.530  0.6227  0.0546 -0.5798
  172SAPE   H9R19493   0.999   0.860   7.598 -0.2026 -2.3882 -0.1291
  172SAPE  C21019494   0.778   0.872   7.601 -0.2057  0.2702  0.0038
  172SAPE  H10R19495   0.694   0.913   7.540 -1.5375 -3.7232 -1.0137
  172SAPE  H10S19496   0.783   0.942   7.687 -1.1095  2.0035 -1.3392
  172SAPE  C21119497   0.727   0.731   7.643 -0.6445  0.3731 -0.5233
  172SAPE  H11R19498   0.730   0.656   7.563  0.1609  0.2877 -0.4109
  172SAPE  C21219499   0.675   0.704   7.764 -0.1166  0.1704 -0.5571
  172SAPE  H12R19500   0.653   0.598   7.788  2.4722 -0.1335  0.6463
  172SAPE  C21319501   0.657   0.806   7.872 -0.3234 -0.2175  0.2502
  172SAPE  H13R19502   0.637   0.912   7.845 -0.3643 -0.3048 -0.0656
  172SAPE  H13S19503   0.752   0.809   7.930  0.7568  0.5829 -1.5100
  172SAPE  C21419504   0.540   0.780   7.958  0.3606 -0.3719  0.1399
  172SAPE  H14R19505   0.457   0.733   7.903  1.4128 -1.5124 -0.5052
  172SAPE  C21519506   0.532   0.791   8.087 -0.1073  0.1909 -0.6529
  172SAPE  H15R19507   0.437   0.761   8.134  0.8288 -4.1270 -1.2716
  172SAPE  C21619508   0.640   0.839   8.181  0.2277 -1.3868 -0.5991
  172SAPE  H16R19509   0.589   0.890   8.265  1.1737  0.8229 -1.3464
  172SAPE  H16S19510   0.691   0.919   8.125 -2.1824 -0.2727 -1.2564
  172SAPE  C21719511   0.738   0.740   8.249 -0.1748  0.4927 -0.1676
  172SAPE  H17R19512   0.807   0.705   8.169 -1.0052 -0.0374 -0.6633
  172SAPE  H17S19513   0.694   0.644   8.284  2.3985 -1.2956 -1.6406
  172SAPE  C21819514   0.813   0.815   8.365  0.0508 -0.0538 -0.4593
  172SAPE  H18R19515   0.740   0.861   8.435 -0.1480 -1.0337 -0.0107
  172SAPE  H18S19516   0.867   0.897   8.313  1.3013 -1.3603 -1.2650
  172SAPE  C21919517   0.913   0.731   8.446  0.5980  0.0643 -0.2575
  172SAPE  H19R19518   0.876   0.627   8.453 -1.7530  0.9045  0.5887
  172SAPE  H19S19519   0.915   0.769   8.550  2.7640 -1.5990  0.3293
  172SAPE  C22019520   1.057   0.742   8.388 -0.7852  0.7473 -0.2536
  172SAPE  H20R19521   1.065   0.685   8.293  0.7899 -0.4048  0.5477
  172SAPE  H20S19522   1.141   0.702   8.448 -1.7270 -0.9172 -0.0250
  172SAPE  H20T19523   1.070   0.851   8.372 -1.1817  0.6171 -1.5134
  172SAPE   C3319524   0.263   0.775   6.800 -0.0544  0.0708 -0.4123
  172SAPE   H3X19525   0.186   0.716   6.854  1.0879 -1.4575 -0.4276
  172SAPE   H3Y19526   0.223   0.872   6.763  0.8649  1.2177  1.5451
  172SAPE   C3419527   0.368   0.802   6.912  0.0486 -0.5095  0.3084
  172SAPE   H4X19528   0.331   0.896   6.959  0.5403 -0.7377  1.1551
  172SAPE   H4Y19529   0.463   0.824   6.859 -1.4468  0.1007 -2.2086
  172SAPE   C3519530   0.379   0.686   7.016 -0.8314  0.4660 -0.8134
  172SAPE   H5X19531   0.468   0.629   6.979 -0.3458  0.8821 -0.3036
  172SAPE   H5Y19532   0.287   0.624   7.011  0.3165 -1.1825 -2.0437
  172SAPE   C3619533   0.398   0.741   7.161  0.3249  0.7466 -0.0684
  172SAPE   H6X19534   0.494   0.797   7.160  1.0724 -0.5134 -0.9558
  172SAPE   H6Y19535   0.415   0.654   7.228  2.0855  0.2454 -1.1348
  172SAPE   C3719536   0.293   0.836   7.207 -0.3388  0.1062  0.0418
  172SAPE   H7X19537   0.198   0.817   7.151 -0.5204  0.9187  0.0758
  172SAPE   H7Y19538   0.322   0.936   7.169  1.3595 -0.3640  0.0722
  172SAPE   C3819539   0.275   0.814   7.355 -0.0254 -0.1322 -0.0120
  172SAPE   H8X19540   0.259   0.705   7.367  0.8116 -0.3665 -0.9277
  172SAPE   H8Y19541   0.198   0.881   7.399  0.2504  0.7506 -0.8519
  172SAPE   C3919542   0.403   0.861   7.425 -0.1502 -0.1573  0.6084
  172SAPE   H9X19543   0.430   0.965   7.395  0.7449 -0.2799  0.9760
  172SAPE   H9Y19544   0.490   0.794   7.409 -0.5529 -0.7138  0.7475
  172SAPE  C31019545   0.366   0.862   7.576 -0.1870  0.2613  0.3453
  172SAPE  H10X19546   0.463   0.861   7.630 -0.4123 -2.0342  0.7834
  172SAPE  H10Y19547   0.310   0.768   7.594 -2.3459  1.3387 -0.5542
  172SAPE  C31119548   0.290   0.990   7.616  0.1305  0.1493 -0.8529
  172SAPE  H11X19549   0.188   0.972   7.578  1.0709 -1.2798 -2.8140
  172SAPE  H11Y19550   0.327   1.083   7.567 -2.4785  0.9317 -1.4211
  172SAPE  C31219551   0.283   0.999   7.765 -0.7255 -0.0340 -0.4413
  172SAPE  H12X19552   0.380   1.032   7.808  0.1952 -2.2459 -0.7585
  172SAPE  H12Y19553   0.265   0.900   7.810  0.0794  0.6757  1.5134
  172SAPE  C31319554   0.185   1.110   7.816  0.5330 -0.4505 -0.6413
  172SAPE  H13X19555   0.080   1.087   7.787 -0.0441  1.4205 -0.0834
  172SAPE  H13Y19556   0.219   1.206   7.772 -0.0643  1.0528  2.1129
  172SAPE  C31419557   0.203   1.124   7.973 -0.0456 -0.1342  0.0746
  172SAPE  H14X19558   0.122   1.194   8.004  0.6006 -0.0572  1.5899
  172SAPE  H14Y19559   0.294   1.183   7.996 -0.2305  0.6288 -1.0762
  172SAPE  C31519560   0.185   0.993   8.050 -0.0142  0.3705  0.0675
  172SAPE  H15X19561   0.280   0.940   8.027  0.2399  0.7183  0.3114
  172SAPE  H15Y19562   0.100   0.937   8.006 -1.3696  1.3457  1.4126
  172SAPE  C31619563   0.164   1.021   8.199 -0.6512  0.2012  0.8880
  172SAPE  H16X19564   0.074   1.085   8.200  0.8389  2.3513  1.1295
  172SAPE  H16Y19565   0.244   1.082   8.246 -0.6332  1.9207 -1.2907
  172SAPE  C31719566   0.131   0.900   8.290  0.0416  0.1822  0.9366
  172SAPE  H17X19567   0.166   0.917   8.394  2.0387 -0.8034  0.4461
  172SAPE  H17Y19568   0.195   0.818   8.248  0.4868  0.5503  0.8922
  172SAPE  C31819569  -0.014   0.866   8.284 -0.2007  0.1874  0.0744
  172SAPE  H18X19570  -0.067   0.960   8.308  0.6048  0.7676 -0.4116
  172SAPE  H18Y19571  -0.044   0.785   8.354 -1.4061  0.9066  0.4087
  172SAPE  H18Z19572  -0.041   0.833   8.181 -1.2364 -1.2140  0.7722
  173SOPE     N19573   2.097   4.430  10.940  0.2780  0.8746 -0.0405
  173SOPE   HN119574   2.090   4.344  10.882  0.6140 -1.0124  2.6748
  173SOPE   HN219575   2.055   4.407  11.032 -0.6455 -1.2670 -0.9683
  173SOPE   HN319576   2.033   4.496  10.892 -0.3875  0.7518  0.6754
  173SOPE   C1219577   2.240   4.478  10.941  1.2094 -1.2010 -0.7695
  173SOPE  H12A19578   2.253   4.504  10.834 -0.3848  0.3497 -0.6242
  173SOPE  H12B19579   2.303   4.398  10.984  0.8746 -0.8914  0.3418
  173SOPE   C1119580   2.251   4.603  11.030  0.3049 -1.2286 -0.0379
  173SOPE  H11A19581   2.351   4.650  11.031 -0.5271  0.6023  0.1342
  173SOPE  H11B19582   2.233   4.563  11.132  0.2592  1.7522  1.1909
  173SOPE     P19583   2.173   4.856  11.027 -0.2285  0.0228 -0.2631
  173SOPE   O1319584   2.312   4.897  10.993 -0.2247 -0.3242 -0.0958
  173SOPE   O1419585   2.142   4.877  11.172 -0.1304 -0.5712  0.0241
  173SOPE   O1219586   2.156   4.706  10.991  0.0183  0.0112  0.1616
  173SOPE   O1119587   2.072   4.940  10.946  0.2543 -0.2430 -0.0198
  173SOPE    C119588   1.953   4.876  10.898  0.0453  0.6088  0.1640
  173SOPE    HA19589   1.887   4.964  10.882  1.3742  1.2322 -2.1541
  173SOPE    HB19590   1.915   4.801  10.970  1.8232 -0.3026  0.1777
  173SOPE    C219591   1.981   4.805  10.761  0.6124 -0.0119  0.0585
  173SOPE    HS19592   2.047   4.719  10.786  1.3981  0.4420 -0.4036
  173SOPE   O2119593   2.058   4.899  10.683  0.0359 -0.2072  0.2509
  173SOPE   C2119594   2.157   4.855  10.614 -0.2302  0.6783  0.5219
  173SOPE   O2219595   2.206   4.742  10.616  0.1731 -0.2001  0.5418
  173SOPE   C2219596   2.225   4.975  10.541  0.3885  0.0037  0.5254
  173SOPE   H2R19597   2.304   4.918  10.487 -0.5076  3.0651 -4.3811
  173SOPE   H2S19598   2.274   5.035  10.621  1.7558  3.9818 -3.0676
  173SOPE    C319599   1.853   4.763  10.675 -0.7649 -0.4230  0.0541
  173SOPE    HX19600   1.797   4.853  10.642  0.1827 -0.0352 -0.5263
  173SOPE    HY19601   1.794   4.701  10.745  1.5094 -1.1036  1.4188
  173SOPE   O3119602   1.877   4.686  10.550 -0.0380 -0.9234 -0.0087
  173SOPE   C3119603   1.953   4.576  10.566  0.0419  0.1412 -0.1501
  173SOPE   O3219604   1.965   4.515  10.672  0.0560 -0.2539 -0.8817
  173SOPE   C3219605   2.008   4.531  10.437  0.0643 -0.2832 -0.1510
  173SOPE   H2X19606   2.096   4.594  10.411  0.6459 -0.0418  2.2904
  173SOPE   H2Y19607   1.927   4.556  10.365  0.1663  0.1325 -0.1219
  173SOPE   C2319608   2.142   5.057  10.443  0.4226  0.0811  0.5828
  173SOPE   H3R19609   2.213   5.123  10.389 -2.4845  2.3483 -0.6183
  173SOPE   H3S19610   2.064   5.121  10.489  0.1535  0.7596 -0.7864
  173SOPE   C2419611   2.073   4.986  10.327  0.1201 -0.1665 -0.0473
  173SOPE   H4R19612   1.995   4.916  10.365  0.1140 -1.5177 -2.3999
  173SOPE   H4S19613   2.025   5.053  10.252  0.2733 -1.1953 -1.0885
  173SOPE   C2519614   2.159   4.887  10.248 -0.8401 -0.4772  0.4339
  173SOPE   H5R19615   2.249   4.947  10.222 -0.6494 -1.4986 -1.3490
  173SOPE   H5S19616   2.191   4.799  10.307 -0.1354 -1.5580 -1.5196
  173SOPE   C2619617   2.090   4.831  10.119  0.3382  0.8352 -1.1835
  173SOPE   H6R19618   2.008   4.899  10.087  0.3588  0.6520 -1.6245
  173SOPE   H6S19619   2.152   4.810  10.030  0.0270 -2.8691 -0.6100
  173SOPE   C2719620   2.023   4.693  10.144 -0.3209  0.4022 -0.0734
  173SOPE   H7R19621   2.098   4.622  10.184  0.7319  1.0524 -0.8865
  173SOPE   H7S19622   1.942   4.700  10.220 -0.0960 -2.1905  0.4223
  173SOPE   C2819623   1.961   4.626  10.021 -0.2265 -0.8722 -0.4196
  173SOPE   H8R19624   1.888   4.554  10.064 -0.2002 -0.9000 -0.4225
  173SOPE   H8S19625   1.904   4.703   9.966  0.8573  1.8975  2.2019
  173SOPE   C2919626   2.065   4.561   9.933  0.7789  0.1438 -0.2997
  173SOPE   H9119627   2.123   4.479   9.977  0.1505  0.1652  0.5846
  173SOPE  C21019628   2.088   4.584   9.801  0.1712 -0.2064  0.5885
  173SOPE  H10119629   2.158   4.530   9.737  0.6397 -2.7390  3.1170
  173SOPE  C21119630   2.011   4.691   9.730  0.1100 -0.4709  0.0559
  173SOPE  H11R19631   2.018   4.797   9.762 -0.1075 -1.1254  2.3934
  173SOPE  H11S19632   1.902   4.669   9.727 -0.2269  0.8973  1.5375
  173SOPE  C21219633   2.042   4.690   9.574 -0.4345  0.2595 -0.0154
  173SOPE  H12R19634   2.151   4.686   9.557 -0.3171 -3.1399  1.1157
  173SOPE  H12S19635   2.019   4.788   9.527  0.2543  0.4275  0.0004
  173SOPE  C21319636   1.983   4.577   9.487 -0.4325 -0.2034  0.2778
  173SOPE  H13R19637   1.877   4.578   9.522 -0.0472  0.8672  1.4198
  173SOPE  H13S19638   2.028   4.479   9.510 -0.7654  0.1831  2.6806
  173SOPE  C21419639   2.002   4.601   9.340  0.2482  0.7939 -0.1536
  173SOPE  H14R19640   2.110   4.597   9.312 -0.5521 -4.1569 -3.2333
  173SOPE  H14S19641   1.952   4.693   9.303 -1.9504 -0.4135 -0.2294
  173SOPE  C21519642   1.940   4.491   9.263  0.1735 -0.2920 -0.4866
  173SOPE  H15R19643   1.831   4.480   9.282  0.1254  1.8482  0.6365
  173SOPE  H15S19644   1.993   4.402   9.302 -0.4537  0.0328  1.1440
  173SOPE  C21619645   1.950   4.503   9.108 -0.7261 -0.0152 -0.2320
  173SOPE  H16R19646   1.923   4.605   9.073 -0.2451 -0.2885 -1.4368
  173SOPE  H16S19647   1.879   4.430   9.063  0.3853 -1.8209  0.8700
  173SOPE  C21719648   2.081   4.463   9.052 -0.5038 -0.1091  0.3155
  173SOPE  H17R19649   2.098   4.353   9.058  1.0897  0.0569 -0.6615
  173SOPE  H17S19650   2.163   4.510   9.110 -1.9202  3.0013 -0.1127
  173SOPE  C21819651   2.097   4.497   8.902 -0.0210 -0.0953  0.0485
  173SOPE  H18R19652   2.022   4.449   8.835  1.6959  0.1600 -2.0909
  173SOPE  H18S19653   2.199   4.468   8.871 -0.1184 -0.0667 -0.3019
  173SOPE  H18T19654   2.091   4.608   8.897 -0.9078 -0.1528 -0.3981
  173SOPE   C3319655   2.044   4.383  10.429  0.1908 -0.4607 -0.2985
  173SOPE   H3X19656   1.969   4.318  10.478 -1.1117  0.7551 -0.6595
  173SOPE   H3Y19657   2.138   4.369  10.487 -0.4552 -3.3121  0.1724
  173SOPE   C3419658   2.043   4.347  10.275  0.3148 -0.7561 -0.0722
  173SOPE   H4X19659   2.120   4.393  10.210  0.0486 -3.3203 -2.3277
  173SOPE   H4Y19660   1.945   4.371  10.228 -0.2666 -2.2356  0.3649
  173SOPE   C3519661   2.040   4.194  10.263  0.3575  1.1946  0.1988
  173SOPE   H5X19662   1.980   4.137  10.337  1.0637  0.5843  0.3043
  173SOPE   H5Y19663   2.140   4.148  10.274 -0.9732 -1.7541  0.4133
  173SOPE   C3619664   1.997   4.159  10.124  0.6820 -0.5778  0.4241
  173SOPE   H6X19665   2.076   4.166  10.046 -0.0374  0.7998 -0.1937
  173SOPE   H6Y19666   1.905   4.217  10.100  0.0555 -1.3794  0.8928
  173SOPE   C3719667   1.943   4.015  10.116  0.5475  0.1945  0.8147
  173SOPE   H7X19668   1.847   4.017  10.172  0.3212 -1.2150  0.4907
  173SOPE   H7Y19669   2.009   3.940  10.165  0.2109 -0.8213 -0.2702
  173SOPE   C3819670   1.914   3.957   9.979  0.7742  0.6721  0.9787
  173SOPE   H8X19671   1.846   3.870   9.993  1.9473 -0.4618 -0.2116
  173SOPE   H8Y19672   2.006   3.922   9.929 -0.0588  0.6632 -0.5904
  173SOPE   C3919673   1.853   4.056   9.877  0.7410 -0.0102  0.2835
  173SOPE   H9X19674   1.918   4.146   9.874 -0.3743  0.7972 -0.2620
  173SOPE   H9Y19675   1.750   4.087   9.905  1.0921  2.8640 -1.3995
  173SOPE  C31019676   1.845   4.010   9.731 -0.0727 -0.7952 -0.2854
  173SOPE  H10X19677   1.760   3.939   9.717 -0.4389 -0.4207  0.0610
  173SOPE  H10Y19678   1.945   3.962   9.719  0.1893 -0.1249 -0.7637
  173SOPE  C31119679   1.799   4.133   9.643 -0.4699  0.2754 -0.4102
  173SOPE  H11X19680   1.881   4.208   9.648  0.7770 -0.9449 -2.3197
  173SOPE  H11Y19681   1.708   4.180   9.688 -0.5651 -0.6500  0.3951
  173SOPE  C31219682   1.787   4.065   9.506  0.1846  0.2672  0.1098
  173SOPE  H12X19683   1.732   3.970   9.518  0.5613 -0.1985 -1.6476
  173SOPE  H12Y19684   1.887   4.034   9.468 -0.9032 -1.7402 -1.2129
  173SOPE  C31319685   1.722   4.165   9.408  0.6194  0.4170 -0.7956
  173SOPE  H13X19686   1.797   4.247   9.407  1.2379 -0.1328 -0.3881
  173SOPE  H13Y19687   1.622   4.194   9.445  1.3557  2.6020 -0.4578
  173SOPE  C31419688   1.709   4.114   9.265 -1.2261  0.2034 -0.2561
  173SOPE  H14X19689   1.641   4.026   9.262  0.6556 -1.2888 -0.2200
  173SOPE  H14Y19690   1.806   4.068   9.236 -0.9041  1.2493 -0.8700
  173SOPE  C31519691   1.667   4.221   9.168  0.4658 -0.0801  0.2800
  173SOPE  H15X19692   1.746   4.299   9.163  0.4729 -0.1114 -0.1166
  173SOPE  H15Y19693   1.572   4.263   9.207 -0.4893 -1.4443 -0.5281
  173SOPE  C31619694   1.636   4.157   9.026 -0.5708  0.0394 -0.1078
  173SOPE  H16X19695   1.550   4.215   8.987 -0.0774  1.0377  0.2652
  173SOPE  H16Y19696   1.606   4.053   9.046 -0.5235  0.6974  3.6978
  173SOPE  C31719697   1.750   4.150   8.924  0.4148 -0.8052 -0.4268
  173SOPE  H17X19698   1.843   4.131   8.981 -0.9970 -0.8148  1.9532
  173SOPE  H17Y19699   1.756   4.252   8.880  0.5574 -0.5827  0.1037
  173SOPE  C31819700   1.738   4.045   8.819  0.2535  0.4915 -0.7579
  173SOPE  H18X19701   1.839   4.030   8.776  0.8900  0.6785  0.6210
  173SOPE  H18Y19702   1.660   4.087   8.752 -2.9900 -0.7036  2.0946
  173SOPE  H18Z19703   1.700   3.946   8.853  0.5757  1.1152  1.5589
  174SOPE     N19704   1.521   4.301  11.233  0.3239 -0.3860  0.1630
  174SOPE   HN119705   1.487   4.381  11.290  0.9293 -0.0697  0.0841
  174SOPE   HN219706   1.472   4.211  11.250 -0.7682  0.6572  2.6525
  174SOPE   HN319707   1.617   4.271  11.259 -0.7675 -3.1668  1.1703
  174SOPE   C1219708   1.524   4.346  11.091 -0.0131 -0.0879  0.1569
  174SOPE  H12A19709   1.608   4.418  11.081 -0.1114 -0.0836 -0.7564
  174SOPE  H12B19710   1.427   4.395  11.066  0.4218  0.4403 -0.5311
  174SOPE   C1119711   1.553   4.234  10.988 -1.1192 -0.5511  0.1554
  174SOPE  H11A19712   1.513   4.270  10.891 -0.3343  0.0663  0.0504
  174SOPE  H11B19713   1.502   4.141  11.022  0.1136 -0.5132  2.2150
  174SOPE     P19714   1.752   4.073  10.922 -0.0625 -0.0650  0.1225
  174SOPE   O1319715   1.799   4.003  11.040 -0.0029 -0.2469 -0.0327
  174SOPE   O1419716   1.860   4.102  10.821 -0.0599  0.0596 -0.2738
  174SOPE   O1219717   1.696   4.215  10.968 -0.4300  0.4836 -0.5423
  174SOPE   O1119718   1.631   4.003  10.850  0.6274  0.1576  0.4937
  174SOPE    C119719   1.596   3.998  10.709 -0.4287  0.8150 -0.0980
  174SOPE    HA19720   1.644   4.087  10.661  2.0131 -0.6714 -0.4777
  174SOPE    HB19721   1.485   4.003  10.711 -0.3546  2.5972  2.0302
  174SOPE    C219722   1.639   3.872  10.641 -0.1327  0.4089  0.3161
  174SOPE    HS19723   1.746   3.881  10.612  0.1133  0.8291  1.3580
  174SOPE   O2119724   1.553   3.842  10.526  0.0930 -0.4234  0.7536
  174SOPE   C2119725   1.594   3.916  10.423 -0.3326  0.9774  0.3271
  174SOPE   O2219726   1.690   3.990  10.418 -0.7723  0.0075 -0.3385
  174SOPE   C2219727   1.500   3.886  10.305 -0.1388 -0.1338  0.7079
  174SOPE   H2R19728   1.400   3.924  10.337  0.6288  1.1064  1.6846
  174SOPE   H2S19729   1.481   3.779  10.281 -1.7024  0.5365 -1.1544
  174SOPE    C319730   1.625   3.753  10.740 -0.2955 -0.0200  0.3963
  174SOPE    HX19731   1.516   3.750  10.761 -1.5210  3.5168 -4.7072
  174SOPE    HY19732   1.685   3.781  10.830  0.3334  0.8412 -0.2902
  174SOPE   O3119733   1.660   3.629  10.680 -0.0438  0.2213 -0.6939
  174SOPE   C3119734   1.791   3.624  10.665  0.2958 -0.1554  0.3795
  174SOPE   O3219735   1.874   3.711  10.695  0.2146 -0.5652  0.3904
  174SOPE   C3219736   1.834   3.501  10.591 -0.1125  0.1911  0.6253
  174SOPE   H2X19737   1.757   3.442  10.537 -0.6662  0.4125  1.1756
  174SOPE   H2Y19738   1.870   3.428  10.666 -0.1351  0.6078  1.0433
  174SOPE   C2319739   1.542   3.935  10.169  0.2119 -0.2641  0.1296
  174SOPE   H3R19740   1.604   3.870  10.103  1.8256  3.8223 -2.5307
  174SOPE   H3S19741   1.599   4.028  10.189  2.2218 -1.2355 -0.9317
  174SOPE   C2419742   1.417   3.964  10.082 -0.0107 -0.2390  0.5836
  174SOPE   H4R19743   1.358   3.871  10.065 -0.6789  0.1848  0.5565
  174SOPE   H4S19744   1.355   4.033  10.144 -0.4526 -1.0311  1.0298
  174SOPE   C2519745   1.464   4.033   9.952  0.0208 -0.8010  0.7453
  174SOPE   H5R19746   1.508   4.132   9.976  0.7833 -0.4298 -2.0392
  174SOPE   H5S19747   1.535   3.969   9.897  0.5054  0.2234  0.1582
  174SOPE   C2619748   1.346   4.052   9.853 -0.1369  0.0103  0.2890
  174SOPE   H6R19749   1.320   3.953   9.810 -0.0493  0.8838 -1.8076
  174SOPE   H6S19750   1.262   4.109   9.899 -0.5991 -0.5651  0.1638
  174SOPE   C2719751   1.402   4.120   9.728 -0.1491  0.6236 -0.6706
  174SOPE   H7R19752   1.409   4.227   9.757  0.6758  0.4552 -0.2341
  174SOPE   H7S19753   1.503   4.079   9.707 -0.9180 -2.7166  1.6839
  174SOPE   C2819754   1.308   4.105   9.605  0.3725 -0.0862 -0.3377
  174SOPE   H8R19755   1.213   4.147   9.644  0.2209  0.5259 -1.3686
  174SOPE   H8S19756   1.337   4.174   9.523 -0.2582  0.6325  0.0384
  174SOPE   C2919757   1.291   3.970   9.538  0.3986  0.2009 -0.5981
  174SOPE   H9119758   1.311   3.877   9.593 -0.0106 -0.6409 -1.8685
  174SOPE  C21019759   1.253   3.965   9.413  0.1345  0.2643  0.0927
  174SOPE  H10119760   1.232   3.861   9.384 -0.0853  0.7115 -1.3972
  174SOPE  C21119761   1.225   4.075   9.316 -0.6364  0.2754  0.7379
  174SOPE  H11R19762   1.272   4.174   9.331 -1.8482  1.3350 -2.1028
  174SOPE  H11S19763   1.116   4.098   9.324 -0.5478  0.9670  0.0123
  174SOPE  C21219764   1.269   4.032   9.176 -0.1814  0.9445  0.0145
  174SOPE  H12R19765   1.194   3.952   9.155  0.2584  1.3291 -3.1758
  174SOPE  H12S19766   1.374   3.996   9.180 -0.6884 -0.5467  0.2692
  174SOPE  C21319767   1.257   4.151   9.074 -0.0437  0.1687  0.3443
  174SOPE  H13R19768   1.335   4.225   9.103 -0.3101 -0.5105  2.8794
  174SOPE  H13S19769   1.165   4.214   9.073 -0.1321  0.0448 -1.7918
  174SOPE  C21419770   1.277   4.101   8.932  0.3088 -0.3667 -0.6668
  174SOPE  H14R19771   1.188   4.039   8.906 -0.6663  0.9628 -0.5844
  174SOPE  H14S19772   1.373   4.045   8.924  0.1445 -0.7781  0.2182
  174SOPE  C21519773   1.287   4.214   8.824 -0.2912 -0.0329  0.1336
  174SOPE  H15R19774   1.315   4.163   8.730 -0.0144  0.9854 -0.3423
  174SOPE  H15S19775   1.361   4.295   8.843 -0.3032 -0.3178  1.4792
  174SOPE  C21619776   1.151   4.278   8.800 -0.1725 -0.3647  0.4593
  174SOPE  H16R19777   1.097   4.306   8.893  2.5916  0.1897  1.9477
  174SOPE  H16S19778   1.091   4.212   8.734 -0.5235  0.7579 -0.3457
  174SOPE  C21719779   1.165   4.415   8.719 -0.9085  0.1069  0.2804
  174SOPE  H17R19780   1.243   4.479   8.766  2.8894 -4.7281  0.9786
  174SOPE  H17S19781   1.064   4.458   8.730 -1.4080 -0.2345 -2.5781
  174SOPE  C21819782   1.200   4.386   8.578  0.1533 -0.3970  0.5137
  174SOPE  H18R19783   1.134   4.304   8.544  1.0812 -0.6624 -0.6767
  174SOPE  H18S19784   1.305   4.352   8.566  0.4231  0.9044 -1.0111
  174SOPE  H18T19785   1.174   4.467   8.507  0.7398 -0.4974  0.1786
  174SOPE   C3319786   1.937   3.532  10.487 -0.3974  0.3185 -0.1797
  174SOPE   H3X19787   1.983   3.440  10.444  0.5190  1.5917 -1.9718
  174SOPE   H3Y19788   2.028   3.569  10.538  0.5053 -1.1101 -0.7037
  174SOPE   C3419789   1.893   3.615  10.369 -0.3149  0.1797  0.7027
  174SOPE   H4X19790   1.980   3.644  10.305  0.9154  0.8073  2.6331
  174SOPE   H4Y19791   1.862   3.716  10.402 -3.4857  0.9165 -4.0042
  174SOPE   C3519792   1.792   3.538  10.284 -0.9279  0.0302 -0.1344
  174SOPE   H5X19793   1.692   3.537  10.333 -0.6367  1.5951  0.5248
  174SOPE   H5Y19794   1.821   3.432  10.274  3.0246  1.0322 -0.1759
  174SOPE   C3619795   1.744   3.605  10.146 -0.3015 -0.2667 -0.4266
  174SOPE   H6X19796   1.829   3.612  10.075  0.2124  1.6255  0.3374
  174SOPE   H6Y19797   1.721   3.712  10.164 -0.4269 -0.3140 -0.3100
  174SOPE   C3719798   1.624   3.531  10.086  0.2861  0.8509 -0.5097
  174SOPE   H7X19799   1.547   3.536  10.165 -0.1477  1.6365 -0.9725
  174SOPE   H7Y19800   1.662   3.430  10.060  1.5229  1.8343 -2.6334
  174SOPE   C3819801   1.555   3.595   9.965  0.2082 -0.4118  0.2925
  174SOPE   H8X19802   1.532   3.702   9.985 -3.5414 -0.9641 -0.6397
  174SOPE   H8Y19803   1.449   3.563   9.953  0.1834 -0.2976  0.2092
  174SOPE   C3919804   1.638   3.584   9.842 -0.2291  0.7042  1.0205
  174SOPE   H9X19805   1.648   3.478   9.810 -1.4498  0.6866  0.6374
  174SOPE   H9Y19806   1.739   3.626   9.858  0.1756  0.3522 -0.6056
  174SOPE  C31019807   1.561   3.646   9.717  0.5426  0.1401  0.4790
  174SOPE  H10X19808   1.546   3.756   9.717  2.4522  0.4221  0.7155
  174SOPE  H10Y19809   1.458   3.606   9.718  0.8593 -0.7125 -0.2508
  174SOPE  C31119810   1.652   3.624   9.591  0.1750 -0.3500 -0.0301
  174SOPE  H11X19811   1.678   3.520   9.563  0.6810  0.2122 -1.6599
  174SOPE  H11Y19812   1.753   3.666   9.608  0.9025 -2.0393 -0.0807
  174SOPE  C31219813   1.585   3.688   9.473 -0.2711 -0.2722 -0.0549
  174SOPE  H12X19814   1.536   3.786   9.493  1.5309  0.3834  1.3133
  174SOPE  H12Y19815   1.501   3.622   9.441  0.2895 -0.4995 -1.0744
  174SOPE  C31319816   1.691   3.699   9.359  0.2936  0.8843 -0.2699
  174SOPE  H13X19817   1.747   3.603   9.358 -1.8458 -0.4116 -0.6663
  174SOPE  H13Y19818   1.767   3.774   9.390 -0.0652  0.5760  1.3960
  174SOPE  C31419819   1.628   3.737   9.228  0.1926 -0.3875  0.9351
  174SOPE  H14X19820   1.571   3.831   9.245 -0.7867 -0.4022 -2.0125
  174SOPE  H14Y19821   1.548   3.661   9.212  0.3934 -0.4030 -0.0177
  174SOPE  C31519822   1.720   3.761   9.100  0.5967 -0.1355  0.8343
  174SOPE  H15X19823   1.802   3.827   9.135 -0.2746  2.0842 -1.2194
  174SOPE  H15Y19824   1.655   3.817   9.030 -2.9734 -1.0557  3.2908
  174SOPE  C31619825   1.793   3.634   9.047 -0.2983 -0.3462 -0.5001
  174SOPE  H16X19826   1.863   3.596   9.124 -1.6604 -0.3331  0.7828
  174SOPE  H16Y19827   1.863   3.652   8.962 -0.7352  0.4533 -0.6974
  174SOPE  C31719828   1.697   3.524   9.006  0.4378 -0.2771  0.4892
  174SOPE  H17X19829   1.626   3.571   8.935  0.9876  1.0459  0.7906
  174SOPE  H17Y19830   1.645   3.488   9.097  1.7435 -2.3262  0.4609
  174SOPE  C31819831   1.771   3.412   8.936 -1.0768  0.3330 -0.2965
  174SOPE  H18X19832   1.700   3.332   8.906 -2.4575  1.6736 -0.6494
  174SOPE  H18Y19833   1.852   3.379   9.005 -1.1700 -1.8864 -1.2063
  174SOPE  H18Z19834   1.822   3.455   8.846 -1.0863  0.4797 -0.2313
  175SOPE     N19835   3.494   5.460  10.806  0.0314 -0.1647 -0.0710
  175SOPE   HN119836   3.571   5.510  10.855  0.1370 -0.8129  0.4303
  175SOPE   HN219837   3.404   5.503  10.836  0.0466 -0.0790 -0.1487
  175SOPE   HN319838   3.504   5.360  10.833  2.0980 -0.7157 -2.7009
  175SOPE   C1219839   3.487   5.479  10.656 -0.6050  0.4152 -0.2349
  175SOPE  H12A19840   3.378   5.470  10.633 -0.5747  0.4518 -0.3921
  175SOPE  H12B19841   3.542   5.393  10.613 -0.6056  0.7846 -0.9861
  175SOPE   C1119842   3.561   5.604  10.603 -0.4306 -0.0923 -0.5266
  175SOPE  H11A19843   3.548   5.685  10.678 -1.1461  2.5450 -3.3940
  175SOPE  H11B19844   3.518   5.640  10.507  0.0801  1.6173 -0.1399
  175SOPE     P19845   3.800   5.691  10.569  0.1172 -0.1420  0.3613
  175SOPE   O1319846   3.939   5.636  10.544 -0.1159 -0.4129 -0.7616
  175SOPE   O1419847   3.778   5.786  10.680  0.4043 -0.6626 -0.2738
  175SOPE   O1219848   3.696   5.562  10.595  0.0392 -0.1851  0.4971
  175SOPE   O1119849   3.755   5.761  10.435 -0.2606  0.0293 -0.2220
  175SOPE    C119850   3.734   5.702  10.307  0.0371  0.3073 -0.5303
  175SOPE    HA19851   3.687   5.601  10.307  0.4478  0.1082 -1.7640
  175SOPE    HB19852   3.835   5.692  10.260 -0.5666  0.7720 -1.9646
  175SOPE    C219853   3.650   5.798  10.212 -0.4520 -0.5535 -0.5204
  175SOPE    HS19854   3.677   5.903  10.233  0.1073 -0.8033  0.0242
  175SOPE   O2119855   3.509   5.768  10.233 -0.7449  0.3441  0.5639
  175SOPE   C2119856   3.433   5.872  10.235  0.9416 -0.2472  0.6424
  175SOPE   O2219857   3.470   5.992  10.220 -0.2862  0.0142  0.3490
  175SOPE   C2219858   3.288   5.833  10.271 -0.3779  0.3813 -0.4720
  175SOPE   H2R19859   3.288   5.840  10.382  0.6503  1.8794 -0.5398
  175SOPE   H2S19860   3.269   5.731  10.231 -1.1392  0.7528 -1.0617
  175SOPE    C319861   3.683   5.764  10.059  0.7949  0.5532 -0.1886
  175SOPE    HX19862   3.680   5.653  10.058  0.5957  0.4864  3.1058
  175SOPE    HY19863   3.788   5.789  10.031  1.1534 -1.6797 -0.9009
  175SOPE   O3119864   3.580   5.816   9.970  0.7649  0.2101  0.2595
  175SOPE   C3119865   3.616   5.942   9.931 -0.1731  0.0296 -0.1284
  175SOPE   O3219866   3.722   6.000   9.955  0.6566 -0.4424 -0.0803
  175SOPE   C3219867   3.505   6.005   9.860  0.2470  0.2150 -0.0520
  175SOPE   H2X19868   3.437   6.055   9.932 -0.8882 -0.0437 -0.9256
  175SOPE   H2Y19869   3.429   5.932   9.825 -2.6955  2.3275  1.7672
  175SOPE   C2319870   3.182   5.932  10.221 -0.0168 -0.3326  0.1235
  175SOPE   H3R19871   3.225   6.029  10.252  0.0406 -0.3111 -0.0219
  175SOPE   H3S19872   3.083   5.922  10.271  0.0162  2.5257  0.8439
  175SOPE   C2419873   3.160   5.928  10.069  0.3079  0.1381 -0.1137
  175SOPE   H4R19874   3.117   6.025  10.037  0.7730 -0.1267 -1.5811
  175SOPE   H4S19875   3.263   5.922  10.028 -0.2862  2.8189 -2.1669
  175SOPE   C2519876   3.061   5.811  10.025 -0.3915 -0.2453  0.0933
  175SOPE   H5R19877   3.113   5.715  10.044 -0.6359 -0.4515 -0.2697
  175SOPE   H5S19878   2.965   5.825  10.079 -1.3268 -1.1394 -1.2858
  175SOPE   C2619879   3.047   5.824   9.872 -0.2426 -0.0627 -0.8324
  175SOPE   H6R19880   3.034   5.933   9.855 -2.0218 -0.4106 -1.7727
  175SOPE   H6S19881   3.150   5.800   9.838  1.0592  1.0279  2.2030
  175SOPE   C2719882   2.926   5.757   9.811 -0.0037  0.0248  0.5179
  175SOPE   H7R19883   2.937   5.646   9.819 -0.7368 -0.0985 -0.0442
  175SOPE   H7S19884   2.833   5.777   9.868  0.5563 -1.8696  2.1492
  175SOPE   C2819885   2.914   5.805   9.662  0.4995  0.0847  0.2921
  175SOPE   H8R19886   2.921   5.916   9.654 -1.9488  0.3867  1.7498
  175SOPE   H8S19887   3.002   5.761   9.610  0.7043  0.8216  0.0073
  175SOPE   C2919888   2.789   5.763   9.591 -0.7609  1.2509  0.4596
  175SOPE   H9119889   2.697   5.809   9.629 -2.2799 -1.2915  0.0228
  175SOPE  C21019890   2.793   5.685   9.479  0.2239 -0.1263  0.4923
  175SOPE  H10119891   2.695   5.657   9.438  0.6794 -0.0659 -0.6596
  175SOPE  C21119892   2.909   5.630   9.406 -0.7826  0.2744  0.3818
  175SOPE  H11R19893   2.887   5.527   9.369 -0.3271  0.6606 -0.9967
  175SOPE  H11S19894   2.996   5.610   9.473  0.1558  1.9624 -0.3084
  175SOPE  C21219895   2.966   5.716   9.292  0.7583 -0.4463  0.7491
  175SOPE  H12R19896   3.063   5.672   9.262  1.6530  1.5652  0.5951
  175SOPE  H12S19897   2.981   5.817   9.338 -3.1843  0.1611  0.8565
  175SOPE  C21319898   2.866   5.721   9.176  0.2222 -0.1328 -0.8158
  175SOPE  H13R19899   2.763   5.755   9.202  0.0172  0.1549 -1.9719
  175SOPE  H13S19900   2.848   5.614   9.154 -2.4490 -0.1293  1.1444
  175SOPE  C21419901   2.907   5.796   9.054 -0.1655 -0.4501 -0.2826
  175SOPE  H14R19902   2.991   5.744   9.002  0.2905 -0.4009  0.4021
  175SOPE  H14S19903   2.954   5.893   9.078  0.5700 -0.6452 -0.8958
  175SOPE  C21519904   2.799   5.821   8.951  0.6326  0.2247  0.2006
  175SOPE  H15R19905   2.705   5.854   8.999 -0.0406 -1.0514 -0.2210
  175SOPE  H15S19906   2.773   5.719   8.915  0.0933  0.3918  0.1216
  175SOPE  C21619907   2.828   5.910   8.831  0.5638  0.1805 -0.0260
  175SOPE  H16R19908   2.750   5.901   8.752 -1.0929 -0.3701  1.6513
  175SOPE  H16S19909   2.914   5.870   8.773  0.3860  0.5640 -0.5640
  175SOPE  C21719910   2.859   6.056   8.867 -0.2170  0.5781  0.3395
  175SOPE  H17R19911   2.893   6.111   8.777  1.4090  1.1133  1.2514
  175SOPE  H17S19912   2.946   6.069   8.935 -0.3464  0.0424  0.6053
  175SOPE  C21819913   2.747   6.129   8.937  0.0008 -0.0479  0.0842
  175SOPE  H18R19914   2.767   6.239   8.940  0.0111 -0.0637  1.0316
  175SOPE  H18S19915   2.724   6.090   9.039 -0.6293  0.2644  0.0667
  175SOPE  H18T19916   2.656   6.126   8.874 -0.5991 -0.9877  0.9770
  175SOPE   C3319917   3.558   6.108   9.748 -1.0579  1.1649 -0.1516
  175SOPE   H3X19918   3.661   6.144   9.769 -0.4641 -1.0883  1.0144
  175SOPE   H3Y19919   3.495   6.199   9.747  0.0123  1.9758  2.4376
  175SOPE   C3419920   3.561   6.044   9.613  1.0230 -0.1867 -0.6594
  175SOPE   H4X19921   3.630   5.958   9.610 -0.2462 -1.2102 -0.9727
  175SOPE   H4Y19922   3.595   6.119   9.538 -0.9768  1.0225 -0.4109
  175SOPE   C3519923   3.419   6.005   9.552 -0.8726  0.5044 -0.2895
  175SOPE   H5X19924   3.354   6.093   9.569 -1.5990 -0.4706  2.3327
  175SOPE   H5Y19925   3.390   5.926   9.625  2.4577  1.2448  1.9215
  175SOPE   C3619926   3.415   5.955   9.407  0.1418  0.6744 -0.0211
  175SOPE   H6X19927   3.479   5.865   9.399  1.7407  1.8499 -0.5360
  175SOPE   H6Y19928   3.455   6.028   9.333  1.9665 -0.7315 -0.4453
  175SOPE   C3719929   3.274   5.912   9.359 -0.4777 -0.4516 -0.3327
  175SOPE   H7X19930   3.200   5.975   9.414 -2.5255 -1.2597 -2.0653
  175SOPE   H7Y19931   3.245   5.810   9.395  2.2290 -1.2905 -0.4524
  175SOPE   C3819932   3.258   5.900   9.213 -0.4330  0.1220  0.0111
  175SOPE   H8X19933   3.287   5.994   9.162  2.6894 -1.2435 -0.9105
  175SOPE   H8Y19934   3.151   5.880   9.191 -1.0533  3.0482  0.1966
  175SOPE   C3919935   3.330   5.787   9.145 -0.1242 -0.0619  0.2284
  175SOPE   H9X19936   3.297   5.696   9.200 -0.1891  1.9144  3.6446
  175SOPE   H9Y19937   3.440   5.784   9.164 -0.4129  0.8129  2.1600
  175SOPE  C31019938   3.302   5.770   8.996  0.2461  0.4588 -0.2506
  175SOPE  H10X19939   3.191   5.772   8.992  0.2408  3.2510  0.6002
  175SOPE  H10Y19940   3.344   5.672   8.963 -0.3593 -0.8609  2.7545
  175SOPE  C31119941   3.346   5.885   8.908 -0.4697 -0.4660  0.4083
  175SOPE  H11X19942   3.446   5.923   8.936 -1.0930  1.6610 -0.1760
  175SOPE  H11Y19943   3.278   5.973   8.917  0.1933  0.0557  0.3551
  175SOPE  C31219944   3.365   5.846   8.764 -0.3353 -1.3570  0.2609
  175SOPE  H12X19945   3.278   5.792   8.720 -0.0637 -2.0877  0.6193
  175SOPE  H12Y19946   3.456   5.785   8.747  3.3038  3.6194  0.7742
  175SOPE  C31319947   3.391   5.973   8.675  0.3576 -0.2751  0.3377
  175SOPE  H13X19948   3.297   6.029   8.655  0.5756 -0.1790 -0.4106
  175SOPE  H13Y19949   3.411   5.932   8.574  2.1065 -0.3965  0.7138
  175SOPE  C31419950   3.512   6.062   8.708  0.3135 -0.8162 -0.2767
  175SOPE  H14X19951   3.614   6.021   8.696  1.9949  3.2353 -0.6208
  175SOPE  H14Y19952   3.507   6.101   8.812  0.9715  1.4083 -1.0564
  175SOPE  C31519953   3.514   6.162   8.596  0.7507 -0.3507  0.3336
  175SOPE  H15X19954   3.415   6.200   8.564  1.3214  1.7994  1.0177
  175SOPE  H15Y19955   3.543   6.101   8.507  1.0847 -0.1430  0.2996
  175SOPE  C31619956   3.612   6.282   8.622 -0.2347 -0.0928  0.6467
  175SOPE  H16X19957   3.709   6.251   8.668  1.5195  3.2791 -0.6124
  175SOPE  H16Y19958   3.566   6.339   8.706  0.2755  1.9871 -0.4531
  175SOPE  C31719959   3.637   6.376   8.509 -0.1713 -0.0741 -0.2014
  175SOPE  H17X19960   3.539   6.408   8.468 -1.0938 -1.2360  1.0399
  175SOPE  H17Y19961   3.687   6.337   8.417  0.9587  0.5718  0.1309
  175SOPE  C31819962   3.721   6.499   8.551 -0.0608 -0.4838  0.3237
  175SOPE  H18X19963   3.821   6.460   8.581 -0.5718 -0.2684  2.3247
  175SOPE  H18Y19964   3.693   6.565   8.635  2.6443 -0.0944  0.9764
  175SOPE  H18Z19965   3.728   6.555   8.455 -0.4134 -1.9214 -0.5640
  176SOPE     N19966   3.223   5.920  11.296  0.0365 -0.0011  0.5426
  176SOPE   HN119967   3.229   5.822  11.263  2.0982 -0.2589  1.5624
  176SOPE   HN219968   3.288   5.922  11.378 -1.4465  0.5314  1.7353
  176SOPE   HN319969   3.126   5.947  11.322 -0.6594 -0.0047 -2.0132
  176SOPE   C1219970   3.275   6.007  11.191  0.4894  0.6314  0.8836
  176SOPE  H12A19971   3.386   6.002  11.195  0.4899 -0.4256 -0.1085
  176SOPE  H12B19972   3.237   6.111  11.203  1.7612  1.1351  0.6233
  176SOPE   C1119973   3.221   5.959  11.056 -0.1878 -0.2697  0.4496
  176SOPE  H11A19974   3.262   6.030  10.981  0.2304 -0.2205  0.7243
  176SOPE  H11B19975   3.111   5.970  11.048  0.0283  1.3885 -0.5866
  176SOPE     P19976   3.262   5.750  10.893 -0.2150 -0.1529  0.3410
  176SOPE   O1319977   3.290   5.606  10.913 -0.1748 -0.0328  0.2221
  176SOPE   O1419978   3.364   5.810  10.799 -0.6445  0.3787 -0.6605
  176SOPE   O1219979   3.271   5.827  11.041  0.1393  0.3154  0.5029
  176SOPE   O1119980   3.116   5.780  10.840 -0.1639 -0.0991  0.4054
  176SOPE    C119981   3.010   5.706  10.905 -0.2178  0.7205  1.0646
  176SOPE    HA19982   2.929   5.781  10.921  0.3801  1.1679  2.0371
  176SOPE    HB19983   3.035   5.676  11.009 -1.0606 -0.1283  1.0292
  176SOPE    C219984   2.972   5.582  10.819 -0.6576  0.2365 -0.4246
  176SOPE    HS19985   3.052   5.506  10.832 -0.7363  0.0366 -1.0934
  176SOPE   O2119986   2.960   5.633  10.685  0.6308  0.3746  0.3313
  176SOPE   C2119987   2.994   5.543  10.594  0.1045  0.0658 -0.2197
  176SOPE   O2219988   3.039   5.431  10.615 -0.3479  0.3703 -0.2693
  176SOPE   C2219989   2.974   5.591  10.450 -0.6578 -0.6951 -0.6759
  176SOPE   H2R19990   3.052   5.667  10.430 -2.0680  2.2151  4.0224
  176SOPE   H2S19991   2.884   5.653  10.432  0.5481  1.4387  0.5503
  176SOPE    C319992   2.839   5.514  10.873  0.2868  0.7154  0.1241
  176SOPE    HX19993   2.771   5.598  10.848  1.3610  1.4126 -0.4736
  176SOPE    HY19994   2.862   5.483  10.978 -1.1154  1.8096  0.7726
  176SOPE   O3119995   2.804   5.392  10.799  0.7514 -0.3251 -0.6179
  176SOPE   C3119996   2.667   5.375  10.785 -0.2647  0.6714 -0.9950
  176SOPE   O3219997   2.589   5.443  10.847 -0.1140 -0.3730 -0.1210
  176SOPE   C3219998   2.628   5.257  10.700 -0.0579  0.1559 -0.7929
  176SOPE   H2X19999   2.625   5.169  10.768 -1.0828 -0.0146 -1.0632
  176SOPE   H2Y20000   2.710   5.246  10.625  1.7468  0.8389  1.0407
  176SOPE   C2320001   2.976   5.466  10.355 -0.1781 -0.1176  0.5105
  176SOPE   H3R20002   2.906   5.389  10.394 -0.3047  0.0549  0.6207
  176SOPE   H3S20003   3.082   5.433  10.359 -0.2070 -0.2355  0.3048
  176SOPE   C2420004   2.935   5.492  10.213  0.2490 -0.4776 -0.0025
  176SOPE   H4R20005   2.980   5.580  10.164 -0.1117  0.0762  0.6550
  176SOPE   H4S20006   2.962   5.401  10.154  0.7582 -1.5533  1.8398
  176SOPE   C2520007   2.782   5.514  10.195  0.5059  0.0880  0.6649
  176SOPE   H5R20008   2.727   5.437  10.252  0.0877  0.1242  0.3152
  176SOPE   H5S20009   2.756   5.616  10.230 -0.1327  0.1957 -0.1165
  176SOPE   C2620010   2.725   5.513  10.047  0.4915 -0.4220 -0.7677
  176SOPE   H6R20011   2.615   5.509  10.058  0.6945 -0.4667  1.4838
  176SOPE   H6S20012   2.756   5.605   9.994 -0.3043  1.4165  1.8381
  176SOPE   C2720013   2.760   5.381   9.967  0.6234 -0.2480  0.1926
  176SOPE   H7R20014   2.870   5.390   9.953  0.7044  0.6820  1.4407
  176SOPE   H7S20015   2.726   5.290  10.021 -0.9588 -1.1114 -2.1168
  176SOPE   C2820016   2.686   5.385   9.831 -0.1501 -0.5783 -0.3818
  176SOPE   H8R20017   2.579   5.366   9.852  0.3651 -2.6584  0.4910
  176SOPE   H8S20018   2.716   5.481   9.783  2.7359 -0.9293  0.6251
  176SOPE   C2920019   2.721   5.271   9.739  0.4877  0.8973 -0.0018
  176SOPE   H9120020   2.774   5.196   9.800 -1.1716 -2.1920 -2.2570
  176SOPE  C21020021   2.682   5.239   9.617 -0.9209  0.9849 -0.2726
  176SOPE  H10120022   2.729   5.161   9.556 -0.5293 -0.2259  1.5465
  176SOPE  C21120023   2.594   5.333   9.530 -0.0254  0.8417  0.5314
  176SOPE  H11R20024   2.590   5.439   9.562 -1.2991  0.6179  1.1553
  176SOPE  H11S20025   2.489   5.298   9.523 -0.5781  2.9039 -2.1926
  176SOPE  C21220026   2.658   5.330   9.391  0.7824 -0.0221  0.1754
  176SOPE  H12R20027   2.656   5.231   9.340  1.7287  0.8572 -1.6205
  176SOPE  H12S20028   2.767   5.349   9.398  1.0002  1.4231 -5.0614
  176SOPE  C21320029   2.589   5.426   9.296  0.0317 -0.3171 -0.3871
  176SOPE  H13R20030   2.591   5.533   9.325  1.3022 -0.2184 -0.7985
  176SOPE  H13S20031   2.483   5.393   9.300  0.0381 -0.3628 -0.5699
  176SOPE  C21420032   2.635   5.400   9.156  0.1143  0.1700 -0.1244
  176SOPE  H14R20033   2.618   5.291   9.140  0.0749  0.0544  0.6557
  176SOPE  H14S20034   2.743   5.421   9.152 -0.0514  0.5999 -3.4821
  176SOPE  C21520035   2.564   5.486   9.051  0.1341 -0.3194  0.5105
  176SOPE  H15R20036   2.601   5.587   9.077 -0.3957 -0.1228  0.4995
  176SOPE  H15S20037   2.454   5.491   9.068  0.1410  2.3993 -0.0471
  176SOPE  C21620038   2.599   5.461   8.901  0.0930  0.0828  0.7371
  176SOPE  H16R20039   2.556   5.365   8.866  0.5022  0.4817 -0.9136
  176SOPE  H16S20040   2.710   5.457   8.899  0.0344 -1.3924 -0.4514
  176SOPE  C21720041   2.545   5.578   8.819 -0.0611  0.3909 -1.2023
  176SOPE  H17R20042   2.555   5.677   8.866 -0.4613  0.0861 -0.4687
  176SOPE  H17S20043   2.438   5.550   8.810  0.0789 -0.5156 -0.1928
  176SOPE  C21820044   2.610   5.593   8.681 -0.1816  0.3384 -0.0212
  176SOPE  H18R20045   2.638   5.497   8.632  4.0596  1.2692  0.3837
  176SOPE  H18S20046   2.706   5.645   8.699  0.0296 -0.5696  1.6091
  176SOPE  H18T20047   2.547   5.649   8.609  1.2875  0.9506 -0.8480
  176SOPE   C3320048   2.492   5.292  10.636 -0.2333 -0.0621  0.6089
  176SOPE   H3X20049   2.417   5.286  10.718 -1.5148 -1.0931 -0.6061
  176SOPE   H3Y20050   2.461   5.205  10.574 -2.5209  1.5699 -0.6284
  176SOPE   C3420051   2.486   5.424  10.553 -0.0746  0.1206  0.5969
  176SOPE   H4X20052   2.587   5.456  10.521 -0.4468  0.4720 -0.2507
  176SOPE   H4Y20053   2.469   5.506  10.626 -3.2279  0.7946 -0.7974
  176SOPE   C3520054   2.379   5.435  10.436  0.1086  0.5469 -0.1103
  176SOPE   H5X20055   2.375   5.545  10.418 -1.2344  1.1038  3.0651
  176SOPE   H5Y20056   2.277   5.419  10.479  0.2564 -0.8918 -0.3064
  176SOPE   C3620057   2.393   5.348  10.306  0.4967 -0.8097 -0.6970
  176SOPE   H6X20058   2.395   5.246  10.352  1.5273 -0.7555 -0.5967
  176SOPE   H6Y20059   2.490   5.374  10.259  0.9762  1.7263  1.5418
  176SOPE   C3720060   2.272   5.364  10.218  1.1573 -0.5575 -0.0789
  176SOPE   H7X20061   2.277   5.467  10.176 -0.1410 -0.5087 -0.1488
  176SOPE   H7Y20062   2.186   5.347  10.286  1.0090 -1.5798 -0.5226
  176SOPE   C3820063   2.255   5.268  10.096 -1.2679 -0.0967  0.1508
  176SOPE   H8X20064   2.149   5.257  10.065 -0.5885 -2.3509 -1.4860
  176SOPE   H8Y20065   2.279   5.172  10.146  2.4201 -0.0276 -1.2922
  176SOPE   C3920066   2.331   5.299   9.969 -0.3208 -0.0061  0.1624
  176SOPE   H9X20067   2.440   5.282   9.979 -0.0494  1.7145  0.4096
  176SOPE   H9Y20068   2.327   5.408   9.945  1.2187  0.3141  1.3043
  176SOPE  C31020069   2.285   5.223   9.846 -0.0381  0.5564  0.1100
  176SOPE  H10X20070   2.312   5.281   9.755  0.3679  0.0637 -0.0867
  176SOPE  H10Y20071   2.174   5.217   9.839  0.0041  0.4629 -0.5536
  176SOPE  C31120072   2.335   5.078   9.836  0.7606  0.2975  0.1536
  176SOPE  H11X20073   2.293   5.024   9.923 -1.2284  2.3295  0.5144
  176SOPE  H11Y20074   2.446   5.079   9.841  0.8493 -0.9169 -1.0464
  176SOPE  C31220075   2.284   4.992   9.715  0.1397 -0.4030 -0.2454
  176SOPE  H12X20076   2.177   4.968   9.735  0.2928  0.2761  1.4763
  176SOPE  H12Y20077   2.323   4.888   9.715 -2.2202 -1.3450  1.0012
  176SOPE  C31320078   2.322   5.055   9.586 -0.7059  0.5625  0.3267
  176SOPE  H13X20079   2.431   5.075   9.586 -0.3620 -1.0660 -2.3650
  176SOPE  H13Y20080   2.262   5.148   9.578 -1.2651  0.0329 -1.8774
  176SOPE  C31420081   2.284   4.962   9.469  0.1687  0.5714 -0.0834
  176SOPE  H14X20082   2.175   4.939   9.481  0.7246 -1.4303  1.5331
  176SOPE  H14Y20083   2.339   4.865   9.469  2.2366  1.7187  0.8939
  176SOPE  C31520084   2.309   5.031   9.331 -0.7222  0.1605  0.0239
  176SOPE  H15X20085   2.412   5.073   9.335 -0.8432  0.6478 -1.8401
  176SOPE  H15Y20086   2.233   5.107   9.306  1.9660  2.6522 -0.8673
  176SOPE  C31620087   2.310   4.935   9.208  0.2602  0.2824 -0.5314
  176SOPE  H16X20088   2.229   4.861   9.225 -0.0818  0.3498 -1.8182
  176SOPE  H16Y20089   2.408   4.883   9.206  1.1700  1.9736 -1.7598
  176SOPE  C31720090   2.304   5.004   9.070 -0.5120  0.4304 -0.3990
  176SOPE  H17X20091   2.399   5.060   9.069 -0.2425  0.0150  0.7579
  176SOPE  H17Y20092   2.210   5.063   9.061 -1.8347 -1.6632 -0.8752
  176SOPE  C31820093   2.299   4.904   8.955 -0.6648  0.0242 -0.2639
  176SOPE  H18X20094   2.386   4.836   8.969 -0.9912 -0.2007  0.6873
  176SOPE  H18Y20095   2.293   4.944   8.851  2.3136  1.9906  0.2455
  176SOPE  H18Z20096   2.209   4.838   8.961 -0.4903 -0.3812 -1.7965
  177SOPE     N20097   2.166   3.798  10.719  0.8537  0.2095  0.5974
  177SOPE   HN120098   2.254   3.754  10.686  0.0881 -0.3984 -0.6553
  177SOPE   HN220099   2.090   3.730  10.738  0.3799  0.8630  1.0892
  177SOPE   HN320100   2.135   3.850  10.635 -0.6985 -2.5942 -0.6461
  177SOPE   C1220101   2.184   3.891  10.835 -0.3145 -0.4013  0.4002
  177SOPE  H12A20102   2.082   3.930  10.854 -0.5631 -0.4992 -0.6887
  177SOPE  H12B20103   2.267   3.961  10.810 -1.4478  0.8186 -0.0064
  177SOPE   C1120104   2.222   3.824  10.967 -0.5038 -0.1706 -0.8328
  177SOPE  H11A20105   2.233   3.909  11.038 -0.5196 -0.7629 -0.1124
  177SOPE  H11B20106   2.318   3.770  10.954 -0.5975 -0.4478 -0.4102
  177SOPE     P20107   2.132   3.578  11.005  0.2581  0.1232 -0.4728
  177SOPE   O1320108   2.000   3.522  11.024 -0.6180  0.8077  0.0681
  177SOPE   O1420109   2.239   3.528  11.089  0.6531  0.7284  0.2029
  177SOPE   O1220110   2.126   3.735  11.024 -0.1239  0.1829 -0.1016
  177SOPE   O1120111   2.181   3.552  10.858  0.4218  0.2073 -0.0515
  177SOPE    C120112   2.154   3.426  10.796  0.9874  0.0685 -0.3137
  177SOPE    HA20113   2.058   3.434  10.741  0.4942  0.8121  0.6440
  177SOPE    HB20114   2.155   3.348  10.876 -1.1275 -0.4438 -0.7455
  177SOPE    C220115   2.256   3.380  10.689 -0.1749 -0.1559 -0.0448
  177SOPE    HS20116   2.356   3.397  10.733  0.7564  1.1630 -2.5503
  177SOPE   O2120117   2.231   3.460  10.570 -0.4222 -0.4487  0.4820
  177SOPE   C2120118   2.334   3.463  10.489  0.8715 -0.2938  0.1524
  177SOPE   O2220119   2.443   3.413  10.505  0.5204  0.0041 -0.5751
  177SOPE   C2220120   2.290   3.546  10.369  0.0620 -0.5228  0.8618
  177SOPE   H2R20121   2.363   3.627  10.352 -0.8396 -0.4601 -3.2761
  177SOPE   H2S20122   2.190   3.594  10.372  0.5143  0.5802 -0.8940
  177SOPE    C320123   2.249   3.232  10.657  0.6654  0.3984 -0.1515
  177SOPE    HX20124   2.256   3.184  10.757  0.6322 -2.1377 -1.3269
  177SOPE    HY20125   2.337   3.186  10.605  1.2724  2.2249 -0.7573
  177SOPE   O3120126   2.118   3.197  10.606  0.1738 -0.1474  0.5201
  177SOPE   C3120127   2.115   3.150  10.481  0.2017  1.4049 -0.1831
  177SOPE   O3220128   2.214   3.129  10.414  0.1257  0.2886 -0.0458
  177SOPE   C3220129   1.971   3.119  10.451 -0.2298  0.4571  0.5353
  177SOPE   H2X20130   1.905   3.207  10.464  0.2248  0.9830 -0.6031
  177SOPE   H2Y20131   1.935   3.047  10.528  0.6758  2.9708  3.3866
  177SOPE   C2320132   2.288   3.452  10.250  0.5804 -0.0234  0.4906
  177SOPE   H3R20133   2.247   3.353  10.280  0.9370 -1.4486 -3.4312
  177SOPE   H3S20134   2.392   3.438  10.214  0.6701  0.5095  0.5439
  177SOPE   C2420135   2.196   3.515  10.144 -0.2600 -0.7308 -0.1089
  177SOPE   H4R20136   2.183   3.440  10.063 -2.0211  0.8662 -1.3481
  177SOPE   H4S20137   2.101   3.552  10.189 -0.4581 -0.0233 -1.0884
  177SOPE   C2520138   2.270   3.624  10.065 -0.1603 -0.6084  0.4890
  177SOPE   H5R20139   2.311   3.698  10.136 -2.1336  0.3614  0.6689
  177SOPE   H5S20140   2.351   3.572  10.009  0.7499 -0.6670  1.8454
  177SOPE   C2620141   2.186   3.695   9.961 -0.2261 -0.1134  0.5401
  177SOPE   H6R20142   2.098   3.738  10.013 -0.0497 -0.6925  1.3336
  177SOPE   H6S20143   2.239   3.787   9.930 -1.1205  1.3044  3.0280
  177SOPE   C2720144   2.148   3.603   9.834  0.9414  0.3901 -0.2799
  177SOPE   H7R20145   2.248   3.573   9.796  0.9330 -0.9303  0.6897
  177SOPE   H7S20146   2.088   3.516   9.870  0.8945 -0.2300 -1.7908
  177SOPE   C2820147   2.075   3.675   9.723  0.4325  1.3344 -0.7634
  177SOPE   H8R20148   2.062   3.589   9.653 -0.0025 -0.5769  1.5945
  177SOPE   H8S20149   1.973   3.700   9.760  0.6624  0.0412  0.7926
  177SOPE   C2920150   2.155   3.787   9.657 -0.0401  0.6023 -0.3310
  177SOPE   H9120151   2.202   3.862   9.722 -1.0820  1.1047 -0.1525
  177SOPE  C21020152   2.183   3.799   9.523 -0.6640 -1.0691  0.1473
  177SOPE  H10120153   2.242   3.888   9.494  1.8492 -1.9875  2.2052
  177SOPE  C21120154   2.137   3.702   9.418  0.5289  0.3295  0.5472
  177SOPE  H11R20155   2.056   3.637   9.457  0.9763 -0.6093 -0.0982
  177SOPE  H11S20156   2.219   3.644   9.372 -0.4093 -0.6605  0.0893
  177SOPE  C21220157   2.078   3.782   9.295 -0.2047  0.3692  0.0294
  177SOPE  H12R20158   2.000   3.854   9.330 -0.5194 -0.8039  1.8195
  177SOPE  H12S20159   2.021   3.707   9.236  3.0510 -1.0959 -1.3450
  177SOPE  C21320160   2.177   3.856   9.208  0.4542 -0.5781 -0.5728
  177SOPE  H13R20161   2.247   3.790   9.153  0.3826 -1.7882  0.7631
  177SOPE  H13S20162   2.244   3.918   9.271 -0.1519 -1.5296  1.0362
  177SOPE  C21420163   2.105   3.932   9.095 -0.3821  0.3313  0.2892
  177SOPE  H14R20164   2.008   3.963   9.140 -0.6744 -0.5749  0.2815
  177SOPE  H14S20165   2.069   3.859   9.020  2.1571  0.4923 -1.1557
  177SOPE  C21520166   2.166   4.055   9.025  0.3522  0.1124  0.4679
  177SOPE  H15R20167   2.207   4.123   9.104  1.5411  2.2712 -1.9472
  177SOPE  H15S20168   2.085   4.113   8.974 -0.6383 -1.3538  0.3486
  177SOPE  C21620169   2.290   4.022   8.935  0.2012  0.3991  0.4635
  177SOPE  H16R20170   2.260   3.951   8.855 -2.2637  0.1169  1.5766
  177SOPE  H16S20171   2.380   3.988   8.991  2.1142  1.4561 -1.9289
  177SOPE  C21720172   2.356   4.153   8.876 -0.1021 -0.9998  0.4521
  177SOPE  H17R20173   2.382   4.226   8.955  0.4922  1.3014 -1.8047
  177SOPE  H17S20174   2.288   4.204   8.805 -0.5230 -1.9591  0.1653
  177SOPE  C21820175   2.482   4.115   8.796 -0.7879 -0.3071  0.1063
  177SOPE  H18R20176   2.561   4.073   8.862  0.4176  0.1268 -1.0571
  177SOPE  H18S20177   2.527   4.203   8.746  0.2157 -0.7033  0.3140
  177SOPE  H18T20178   2.460   4.045   8.713  0.4539 -1.6194  0.8597
  177SOPE   C3320179   1.949   3.054  10.315 -0.1248 -0.4897 -0.2552
  177SOPE   H3X20180   1.850   3.004  10.320 -0.6458  0.5852  0.4506
  177SOPE   H3Y20181   2.013   2.965  10.301 -0.6635 -0.7390 -1.2040
  177SOPE   C3420182   1.962   3.151  10.200  0.1580 -0.6217  0.5831
  177SOPE   H4X20183   2.054   3.210  10.219 -1.0525  1.0242  1.4158
  177SOPE   H4Y20184   1.877   3.222  10.197 -0.4178 -1.2547  1.7001
  177SOPE   C3520185   1.958   3.096  10.052  0.0265  0.7960 -0.7198
  177SOPE   H5X20186   1.863   3.043  10.034 -0.6405  1.5919  0.4177
  177SOPE   H5Y20187   2.030   3.013  10.035 -1.6117 -0.7277 -0.3498
  177SOPE   C3620188   1.971   3.216   9.952 -0.4137 -0.3539 -0.4764
  177SOPE   H6X20189   2.074   3.257   9.948 -1.8009  3.3573 -0.1963
  177SOPE   H6Y20190   1.910   3.299   9.994  2.4011  1.1021  0.8589
  177SOPE   C3720191   1.925   3.184   9.813 -0.1434 -0.3793  0.9541
  177SOPE   H7X20192   1.814   3.185   9.801  0.1612  0.1984 -2.4379
  177SOPE   H7Y20193   1.956   3.078   9.803 -0.7494 -0.5755  1.1645
  177SOPE   C3820194   1.995   3.273   9.710 -0.4848 -0.8425  0.2252
  177SOPE   H8X20195   2.106   3.279   9.715 -0.4943 -0.5185  0.0550
  177SOPE   H8Y20196   1.961   3.379   9.711  3.3552  0.5120 -1.1478
  177SOPE   C3920197   1.955   3.215   9.563  0.0893  0.0241 -0.0584
  177SOPE   H9X20198   1.850   3.246   9.544  0.4655  0.7540 -0.9878
  177SOPE   H9Y20199   1.964   3.105   9.561 -0.6598 -0.0377 -0.3578
  177SOPE  C31020200   2.039   3.277   9.455  0.0975 -0.3406 -0.1878
  177SOPE  H10X20201   2.136   3.224   9.470  1.1721  1.5386 -0.2937
  177SOPE  H10Y20202   2.057   3.385   9.475  0.3359 -0.7422  1.8527
  177SOPE  C31120203   1.984   3.254   9.311  0.0171 -0.1160  0.5996
  177SOPE  H11X20204   1.920   3.342   9.287  1.3278  0.3687 -1.2823
  177SOPE  H11Y20205   1.917   3.165   9.314 -1.8906  1.2104 -1.0063
  177SOPE  C31220206   2.095   3.230   9.209 -0.8692 -0.0963 -0.1784
  177SOPE  H12X20207   2.054   3.223   9.106  0.2544 -1.1732 -0.5718
  177SOPE  H12Y20208   2.160   3.141   9.225  0.3373  1.1016  1.8281
  177SOPE  C31320209   2.197   3.342   9.214  0.2888 -0.2918  0.7240
  177SOPE  H13X20210   2.242   3.348   9.315 -0.8280  3.6558  1.0441
  177SOPE  H13Y20211   2.146   3.439   9.201  2.2938  0.6410 -0.4533
  177SOPE  C31420212   2.318   3.345   9.116 -0.7168  0.1256 -0.1405
  177SOPE  H14X20213   2.363   3.244   9.130 -1.9542 -0.3641  0.4192
  177SOPE  H14Y20214   2.393   3.423   9.141 -0.7725 -0.6025  2.4320
  177SOPE  C31520215   2.275   3.353   8.970  0.1535  0.1196 -0.1900
  177SOPE  H15X20216   2.207   3.267   8.953 -0.2289  0.5636 -0.9798
  177SOPE  H15Y20217   2.363   3.339   8.905  0.2660  0.7137 -0.1670
  177SOPE  C31620218   2.229   3.497   8.935 -0.3311 -0.1257  0.3362
  177SOPE  H16X20219   2.311   3.564   8.968  1.0847 -0.5425 -2.1852
  177SOPE  H16Y20220   2.139   3.522   8.995 -1.1305 -0.6103 -0.6334
  177SOPE  C31720221   2.200   3.527   8.785  0.2372 -0.2423 -0.2267
  177SOPE  H17X20222   2.132   3.452   8.740  1.0878 -1.4256  0.4178
  177SOPE  H17Y20223   2.301   3.510   8.741  0.3717 -1.3131  0.4548
  177SOPE  C31820224   2.148   3.663   8.750 -0.0566 -0.6634 -0.1689
  177SOPE  H18X20225   2.221   3.745   8.764 -0.3841 -0.4705  0.4186
  177SOPE  H18Y20226   2.058   3.677   8.813  1.2834 -0.2764  1.6742
  177SOPE  H18Z20227   2.116   3.662   8.643  0.0337  1.4784 -0.2407
  178SOPE     N20228   6.662   1.849  10.992 -0.1644 -0.0013 -0.0049
  178SOPE   HN120229   6.692   1.939  10.948  1.1040 -0.8181 -0.8517
  178SOPE   HN220230   6.562   1.830  10.970 -0.7132 -0.5161  2.8055
  178SOPE   HN320231   6.670   1.861  11.095 -2.6050  0.8674  0.1214
  178SOPE   C1220232   6.743   1.734  10.945 -0.0446  0.6367  0.2344
  178SOPE  H12A20233   6.709   1.646  11.002  0.6033  0.9124  1.0457
  178SOPE  H12B20234   6.851   1.758  10.958 -0.4380  1.5354  1.9416
  178SOPE   C1120235   6.705   1.691  10.798 -0.1376  0.2222  0.3395
  178SOPE  H11A20236   6.754   1.592  10.791  0.7300  0.7842 -2.1537
  178SOPE  H11B20237   6.763   1.765  10.738 -0.7129  0.2758 -0.1569
  178SOPE     P20238   6.478   1.569  10.770 -0.2123  0.1632 -0.1168
  178SOPE   O1320239   6.339   1.616  10.793 -0.1300 -0.0309 -0.1703
  178SOPE   O1420240   6.537   1.467  10.862 -0.1486  0.3743 -0.2196
  178SOPE   O1220241   6.564   1.692  10.771 -0.1826 -0.1713  0.0102
  178SOPE   O1120242   6.480   1.507  10.621  0.4809 -0.2783  0.5769
  178SOPE    C120243   6.587   1.546  10.536  0.8317  0.0954 -0.2032
  178SOPE    HA20244   6.688   1.506  10.561  0.9490  0.2626 -0.3964
  178SOPE    HB20245   6.592   1.656  10.522 -2.2044  0.0932 -1.7086
  178SOPE    C220246   6.566   1.494  10.393 -0.1983  0.1608  0.2049
  178SOPE    HS20247   6.483   1.420  10.402  1.2269 -1.5866 -0.6195
  178SOPE   O2120248   6.678   1.426  10.346 -0.5278 -0.1147  0.4155
  178SOPE   C2120249   6.666   1.332  10.255  0.4695 -0.0374  0.2398
  178SOPE   O2220250   6.559   1.303  10.205 -0.1237 -0.4166  0.0523
  178SOPE   C2220251   6.800   1.295  10.197 -0.4178 -0.1871  0.9431
  178SOPE   H2R20252   6.845   1.209  10.252 -0.3053 -2.2969 -2.3347
  178SOPE   H2S20253   6.871   1.379  10.215 -0.9902  0.4275  0.3647
  178SOPE    C320254   6.516   1.608  10.292  0.5827 -0.3626 -0.0116
  178SOPE    HX20255   6.597   1.680  10.267  1.1547  0.1985  3.2011
  178SOPE    HY20256   6.436   1.655  10.352  1.7662  2.1286 -0.2937
  178SOPE   O3120257   6.455   1.556  10.166  0.1633  0.4722  0.0034
  178SOPE   C3120258   6.336   1.504  10.175 -0.6644  0.2797 -0.3995
  178SOPE   O3220259   6.268   1.507  10.276 -0.5588  0.3436 -0.1412
  178SOPE   C3220260   6.309   1.452  10.034 -0.3707  0.7961  0.8894
  178SOPE   H2X20261   6.381   1.368  10.029 -0.8373  0.4383  0.0322
  178SOPE   H2Y20262   6.341   1.529   9.961  0.5182  1.2980  1.8071
  178SOPE   C2320263   6.792   1.283  10.044  0.0386 -0.0107  0.1378
  178SOPE   H3R20264   6.746   1.374  10.002 -0.6604  0.8998  2.8028
  178SOPE   H3S20265   6.742   1.191  10.006 -4.3179  2.3746 -0.1082
  178SOPE   C2420266   6.932   1.269   9.985 -0.8817  0.4215  0.3938
  178SOPE   H4R20267   6.988   1.364   9.967 -0.5379  0.5178  1.8611
  178SOPE   H4S20268   6.992   1.206  10.054  1.7643  1.5435 -0.8238
  178SOPE   C2520269   6.926   1.190   9.855  0.4525 -0.0781 -0.3248
  178SOPE   H5R20270   7.022   1.135   9.848  0.0885 -1.2866  2.8955
  178SOPE   H5S20271   6.839   1.121   9.849 -0.3359  1.1241 -3.7840
  178SOPE   C2620272   6.914   1.290   9.741  0.0009 -0.4963  0.2269
  178SOPE   H6R20273   6.818   1.345   9.736 -0.0860 -0.5322  1.3584
  178SOPE   H6S20274   6.993   1.369   9.733 -0.2115 -0.3575 -0.5436
  178SOPE   C2720275   6.926   1.204   9.615 -0.0034 -0.6482 -0.5671
  178SOPE   H7R20276   7.019   1.145   9.633  1.0744  0.9260 -0.9292
  178SOPE   H7S20277   6.849   1.124   9.611 -1.2324  0.6217 -4.5114
  178SOPE   C2820278   6.943   1.300   9.486  0.8253  0.9724 -0.1851
  178SOPE   H8R20279   7.027   1.366   9.518  1.5620 -0.5252  1.0037
  178SOPE   H8S20280   6.994   1.231   9.415 -1.2473  0.3264 -1.0752
  178SOPE   C2920281   6.817   1.368   9.439 -0.0426 -0.0663  0.2678
  178SOPE   H9120282   6.777   1.443   9.509  0.3984  0.1282  0.3162
  178SOPE  C21020283   6.745   1.328   9.329  0.4666 -0.0598  0.4138
  178SOPE  H10120284   6.658   1.386   9.295 -0.5553 -1.9062 -0.1659
  178SOPE  C21120285   6.783   1.214   9.237 -0.1264  0.1193  0.7838
  178SOPE  H11R20286   6.697   1.146   9.223 -0.4016  0.3516  1.3298
  178SOPE  H11S20287   6.865   1.152   9.281 -0.6124  0.5133  2.2971
  178SOPE  C21220288   6.832   1.266   9.099 -0.6958  0.3985  0.0202
  178SOPE  H12R20289   6.745   1.303   9.042 -1.2544 -1.3846 -0.3128
  178SOPE  H12S20290   6.873   1.178   9.045  0.2600  1.1910 -0.5655
  178SOPE  C21320291   6.931   1.384   9.113  0.2312 -0.7044 -0.0943
  178SOPE  H13R20292   6.996   1.360   9.200 -0.1096 -0.1533  0.3131
  178SOPE  H13S20293   6.885   1.480   9.143  0.9955 -0.6520  0.9362
  178SOPE  C21420294   7.025   1.384   8.993 -0.4173 -0.1943  0.1090
  178SOPE  H14R20295   6.981   1.369   8.892 -0.6221 -0.4788  0.2363
  178SOPE  H14S20296   7.091   1.296   9.013  0.1492 -0.6633 -3.5014
  178SOPE  C21520297   7.108   1.513   8.998 -0.0791  0.1842 -0.3641
  178SOPE  H15R20298   7.166   1.510   9.093  1.1437  0.7322 -1.0939
  178SOPE  H15S20299   7.049   1.607   8.989  0.3178  0.3756 -0.9564
  178SOPE  C21620300   7.213   1.511   8.892  0.2669  0.9265  0.1295
  178SOPE  H16R20301   7.166   1.459   8.806  0.4042 -0.9172  1.1497
  178SOPE  H16S20302   7.297   1.446   8.925 -0.2319 -0.4795 -1.2999
  178SOPE  C21720303   7.263   1.652   8.851  0.2243  0.1988  0.5220
  178SOPE  H17R20304   7.173   1.716   8.834 -0.6638 -0.5020  2.4677
  178SOPE  H17S20305   7.323   1.639   8.758  0.2140  3.4622 -0.0217
  178SOPE  C21820306   7.349   1.718   8.957 -0.8814 -0.3862  0.2931
  178SOPE  H18R20307   7.442   1.657   8.963 -0.2201  0.3585 -1.9051
  178SOPE  H18S20308   7.295   1.706   9.053 -1.4224 -1.2374 -0.1123
  178SOPE  H18T20309   7.375   1.824   8.938 -2.7260 -0.1984 -1.3122
  178SOPE   C3320310   6.150   1.421  10.023 -0.8944  0.0187 -0.8415
  178SOPE   H3X20311   6.096   1.509  10.064 -0.9812  0.7338 -2.4533
  178SOPE   H3Y20312   6.134   1.321  10.068 -2.5082  0.7744  0.3071
  178SOPE   C3420313   6.106   1.423   9.877 -0.6357 -0.5489 -0.5150
  178SOPE   H4X20314   6.165   1.341   9.831  0.4391  0.1279 -0.3454
  178SOPE   H4Y20315   6.150   1.515   9.834  2.7252 -1.9125 -0.1356
  178SOPE   C3520316   5.955   1.407   9.847  0.3260 -0.4500  0.3613
  178SOPE   H5X20317   5.898   1.498   9.875  0.9610  0.0029  0.1811
  178SOPE   H5Y20318   5.908   1.326   9.907  1.8101 -0.2673  1.7968
  178SOPE   C3620319   5.913   1.378   9.698  0.4666  0.2559 -0.2689
  178SOPE   H6X20320   5.806   1.351   9.698  0.4118  0.3126  2.4370
  178SOPE   H6Y20321   5.975   1.295   9.659  1.1303  1.5102 -1.9551
  178SOPE   C3720322   5.943   1.500   9.603 -0.2621  0.0147 -0.0280
  178SOPE   H7X20323   6.045   1.543   9.612 -0.3859  0.5750 -1.2180
  178SOPE   H7Y20324   5.880   1.586   9.634 -1.0636 -0.0451 -1.4373
  178SOPE   C3820325   5.921   1.472   9.462 -0.0256  0.3145 -0.6029
  178SOPE   H8X20326   5.820   1.430   9.445 -0.6816  0.3295  2.9171
  178SOPE   H8Y20327   5.991   1.396   9.421 -1.4427 -1.0024 -0.6071
  178SOPE   C3920328   5.954   1.592   9.382  0.1300 -0.1363  0.4307
  178SOPE   H9X20329   6.056   1.633   9.396  0.7376 -1.0365 -1.2769
  178SOPE   H9Y20330   5.898   1.683   9.411  1.1500  1.3338 -2.0751
  178SOPE  C31020331   5.925   1.550   9.237  0.2043  0.3380  0.2079
  178SOPE  H10X20332   5.827   1.498   9.234 -0.3834  1.4810 -1.6507
  178SOPE  H10Y20333   6.012   1.485   9.212  1.4842  2.3316 -0.6428
  178SOPE  C31120334   5.938   1.671   9.140  0.1865  0.6125  0.2853
  178SOPE  H11X20335   6.011   1.742   9.185 -0.1219  1.9296 -1.2049
  178SOPE  H11Y20336   5.854   1.744   9.133  1.3691  2.1858  1.8262
  178SOPE  C31220337   5.965   1.638   8.999 -0.1255  0.5253  0.5515
  178SOPE  H12X20338   5.875   1.585   8.960 -0.8023  1.0469  1.3720
  178SOPE  H12Y20339   6.055   1.573   8.993 -0.8800 -0.6028  1.1957
  178SOPE  C31320340   5.977   1.761   8.908  0.2772  0.2698  0.1856
  178SOPE  H13X20341   6.022   1.843   8.967 -1.4905  1.0450  0.4833
  178SOPE  H13Y20342   5.875   1.798   8.886  0.3090  0.3267  0.1345
  178SOPE  C31420343   6.052   1.750   8.768  0.9541  0.4068 -0.3307
  178SOPE  H14X20344   6.156   1.715   8.784 -0.0459 -3.0005 -0.9581
  178SOPE  H14Y20345   6.043   1.854   8.729  0.5171 -0.2826 -2.1196
  178SOPE  C31520346   5.991   1.646   8.666  0.1193  0.1118 -0.3837
  178SOPE  H15X20347   5.989   1.549   8.719 -0.5664  0.4258  0.1668
  178SOPE  H15Y20348   6.051   1.639   8.573 -0.7030  0.7618 -0.9590
  178SOPE  C31620349   5.845   1.689   8.632  0.1582  0.0532 -0.1299
  178SOPE  H16X20350   5.855   1.782   8.572 -1.0316 -1.7385 -3.2244
  178SOPE  H16Y20351   5.795   1.702   8.731  3.9765  1.1134  1.7548
  178SOPE  C31720352   5.772   1.585   8.540 -0.2008 -0.5217  0.3673
  178SOPE  H17X20353   5.749   1.493   8.597  0.0308 -1.1785 -0.5950
  178SOPE  H17Y20354   5.851   1.562   8.465 -0.9632 -0.5599 -0.4282
  178SOPE  C31820355   5.659   1.627   8.452 -1.3362 -0.5471 -0.3590
  178SOPE  H18X20356   5.578   1.656   8.523 -0.1933 -0.9319  1.1117
  178SOPE  H18Y20357   5.629   1.542   8.387 -0.9033  0.1846 -1.5154
  178SOPE  H18Z20358   5.685   1.717   8.394 -0.4575 -0.6615 -0.1428
  179SOPE     N20359   4.392   2.965   6.491 -0.2351  0.4163  0.2841
  179SOPE   HN120360   4.461   3.015   6.431 -0.7943  2.1028  1.0054
  179SOPE   HN220361   4.421   2.865   6.489  1.9080  1.0303 -2.2424
  179SOPE   HN320362   4.303   2.972   6.437  0.1890  1.3714 -0.3161
  179SOPE   C1220363   4.378   3.031   6.624  0.2550  0.2011  0.0142
  179SOPE  H12A20364   4.351   2.955   6.701  0.2641  0.4661  0.2787
  179SOPE  H12B20365   4.294   3.103   6.618  1.4181  1.5125 -0.7206
  179SOPE   C1120366   4.503   3.109   6.674  0.1713  0.1476 -0.2666
  179SOPE  H11A20367   4.473   3.153   6.772  0.2545 -0.5371  0.0659
  179SOPE  H11B20368   4.511   3.202   6.613 -2.4790  0.5791 -0.0300
  179SOPE     P20369   4.739   3.046   6.589 -0.0316 -0.1521 -0.0101
  179SOPE   O1320370   4.830   3.153   6.629  0.3510  0.1162 -0.1194
  179SOPE   O1420371   4.685   3.044   6.452 -0.2418  0.3630  0.0423
  179SOPE   O1220372   4.618   3.025   6.689 -0.1091  0.0157  0.3432
  179SOPE   O1120373   4.819   2.913   6.610 -0.8806  0.3089 -0.4763
  179SOPE    C120374   4.768   2.794   6.663 -1.4750  0.2410  0.0671
  179SOPE    HA20375   4.790   2.712   6.591 -0.7523 -0.5055  1.1197
  179SOPE    HB20376   4.658   2.794   6.676 -1.6958 -1.0692 -1.5512
  179SOPE    C220377   4.837   2.763   6.800  0.4577  0.2086  0.1950
  179SOPE    HS20378   4.947   2.755   6.785  0.4068  2.6626 -1.7681
  179SOPE   O2120379   4.788   2.636   6.851 -0.6559 -0.8649 -0.2931
  179SOPE   C2120380   4.863   2.569   6.936 -0.2405  0.8804 -0.1965
  179SOPE   O2220381   4.981   2.599   6.965 -0.0936 -0.2726 -0.0650
  179SOPE   C2220382   4.791   2.439   6.966 -0.1623 -0.1492  0.5149
  179SOPE   H2R20383   4.839   2.367   6.896 -0.4446 -0.8393  1.0287
  179SOPE   H2S20384   4.685   2.456   6.937  0.0019  0.1618  0.0903
  179SOPE    C320385   4.808   2.877   6.912 -1.2114  0.1188  0.0878
  179SOPE    HX20386   4.698   2.880   6.925 -1.3498 -0.0875 -0.9778
  179SOPE    HY20387   4.842   2.968   6.858 -2.4107  1.7367  2.0302
  179SOPE   O3120388   4.871   2.859   7.039 -0.2100 -0.4405 -0.1329
  179SOPE   C3120389   4.986   2.931   7.060  0.5555  0.0039 -0.1732
  179SOPE   O3220390   5.036   3.005   6.981  1.0462  0.6336 -0.3047
  179SOPE   C3220391   5.060   2.895   7.190  0.1360 -0.1037 -0.2709
  179SOPE   H2X20392   5.026   2.973   7.261 -0.2733  0.1427 -0.7306
  179SOPE   H2Y20393   5.166   2.914   7.162  0.0066  0.8154 -0.1440
  179SOPE   C2320394   4.799   2.402   7.114  0.1873  0.5270  0.4711
  179SOPE   H3R20395   4.904   2.419   7.148  0.6075  0.3322 -0.6964
  179SOPE   H3S20396   4.774   2.294   7.124  1.7214  0.2662  1.8346
  179SOPE   C2420397   4.705   2.488   7.202 -0.3078 -0.5098 -0.1009
  179SOPE   H4R20398   4.743   2.593   7.205  0.8156 -0.8978 -0.6148
  179SOPE   H4S20399   4.606   2.489   7.151 -0.9343 -0.8777  1.0786
  179SOPE   C2520400   4.693   2.446   7.344 -0.4917 -0.3424  0.1383
  179SOPE   H5R20401   4.653   2.343   7.362 -0.4132 -0.3857  0.0577
  179SOPE   H5S20402   4.783   2.459   7.407 -0.5743 -1.5207  0.5231
  179SOPE   C2620403   4.580   2.524   7.416 -0.3120 -0.6980  0.3250
  179SOPE   H6R20404   4.577   2.635   7.421 -0.4695 -0.7619  1.7070
  179SOPE   H6S20405   4.491   2.495   7.357 -0.1119 -0.9788  0.1563
  179SOPE   C2720406   4.580   2.481   7.559 -0.8752  0.2466 -0.2311
  179SOPE   H7R20407   4.584   2.370   7.553  0.0887  0.2358  0.5735
  179SOPE   H7S20408   4.666   2.522   7.617 -2.0186  3.0635 -0.4456
  179SOPE   C2820409   4.458   2.531   7.633  0.4919 -0.6342  0.0350
  179SOPE   H8R20410   4.477   2.638   7.655  1.2360 -0.8074  0.2268
  179SOPE   H8S20411   4.367   2.526   7.570 -0.2545  0.9798  0.9598
  179SOPE   C2920412   4.425   2.445   7.759 -0.2256  0.6048 -0.2931
  179SOPE   H9120413   4.500   2.368   7.779 -0.6115  0.4358  0.5064
  179SOPE  C21020414   4.315   2.436   7.830 -0.5501 -0.1889  0.1123
  179SOPE  H10120415   4.311   2.359   7.908 -1.2552 -1.5918 -1.2789
  179SOPE  C21120416   4.183   2.502   7.827 -0.0459 -0.0153 -0.4801
  179SOPE  H11R20417   4.178   2.584   7.752 -0.3406 -0.3082 -0.7820
  179SOPE  H11S20418   4.166   2.563   7.919 -0.8594  0.5960 -1.0222
  179SOPE  C21220419   4.067   2.410   7.808  0.2451  0.6518 -0.4131
  179SOPE  H12R20420   3.971   2.465   7.819  0.6395  1.2900 -0.2208
  179SOPE  H12S20421   4.061   2.333   7.888 -2.4472  1.7816  0.5291
  179SOPE  C21320422   4.071   2.343   7.671  0.4678  0.0073  0.2514
  179SOPE  H13R20423   3.984   2.275   7.676 -0.1726  0.6254 -1.6826
  179SOPE  H13S20424   4.172   2.297   7.664  0.9124  1.1302 -0.9864
  179SOPE  C21420425   4.054   2.432   7.547 -0.1740 -0.2117 -0.7220
  179SOPE  H14R20426   4.118   2.523   7.549  0.1871 -0.4560 -1.0261
  179SOPE  H14S20427   3.949   2.467   7.550  0.3593  1.3261  0.4202
  179SOPE  C21520428   4.107   2.364   7.425 -0.6221  0.0796  0.1856
  179SOPE  H15R20429   4.052   2.269   7.420 -0.8092  0.0583  2.2799
  179SOPE  H15S20430   4.217   2.348   7.419 -0.6929  0.1401 -1.6360
  179SOPE  C21620431   4.054   2.447   7.307  0.1324 -0.2147  0.4640
  179SOPE  H16R20432   4.078   2.556   7.311 -0.4876  0.0364 -1.7139
  179SOPE  H16S20433   3.943   2.444   7.307  0.1154 -1.4886 -2.3413
  179SOPE  C21720434   4.104   2.386   7.178 -0.5463 -0.1134  0.2884
  179SOPE  H17R20435   4.086   2.278   7.197  1.4068 -0.4644  0.2581
  179SOPE  H17S20436   4.214   2.398   7.168 -0.5936 -1.6126 -2.9449
  179SOPE  C21820437   4.039   2.445   7.055  0.0587 -0.0393 -0.3973
  179SOPE  H18R20438   4.081   2.546   7.036  0.2233  0.1508  0.9135
  179SOPE  H18S20439   3.928   2.453   7.061  0.1719  0.6228  0.9476
  179SOPE  H18T20440   4.052   2.384   6.963  3.5707 -0.4531  0.3006
  179SOPE   C3320441   5.040   2.741   7.228 -0.4832 -0.8965  0.1641
  179SOPE   H3X20442   5.118   2.690   7.168 -0.1077 -0.5954  0.3906
  179SOPE   H3Y20443   4.940   2.704   7.197 -1.7306  1.9604  0.5997
  179SOPE   C3420444   5.051   2.726   7.380  0.1375 -0.1866  0.1073
  179SOPE   H4X20445   5.145   2.778   7.410  0.0451 -1.1125  2.1242
  179SOPE   H4Y20446   5.056   2.617   7.401 -1.6349 -0.8312 -2.6509
  179SOPE   C3520447   4.935   2.797   7.460  0.1409 -0.2328  0.4770
  179SOPE   H5X20448   4.835   2.764   7.425  0.2618 -1.3272  1.1489
  179SOPE   H5Y20449   4.931   2.907   7.444 -1.1409 -0.2663  0.5424
  179SOPE   C3620450   4.953   2.776   7.611 -0.7131 -0.5473  0.3622
  179SOPE   H6X20451   4.972   2.671   7.644 -1.0646 -0.0126  2.2776
  179SOPE   H6Y20452   4.866   2.815   7.667  1.2360 -0.6094  3.5244
  179SOPE   C3720453   5.069   2.855   7.675 -0.6890  0.0268 -0.2039
  179SOPE   H7X20454   5.054   2.965   7.669  1.9955  0.4931  0.8587
  179SOPE   H7Y20455   5.158   2.840   7.610 -2.3460 -1.4745 -2.1716
  179SOPE   C3820456   5.089   2.821   7.824  0.3816 -0.5719  0.5481
  179SOPE   H8X20457   5.194   2.851   7.847 -0.2093  2.6124 -0.7536
  179SOPE   H8Y20458   5.086   2.711   7.839  2.0420 -0.6981  0.0495
  179SOPE   C3920459   4.987   2.869   7.921 -0.0935  0.1979  0.4503
  179SOPE   H9X20460   4.895   2.808   7.911 -0.9739  1.7908 -1.6531
  179SOPE   H9Y20461   4.959   2.973   7.895  0.9400  0.8959  2.0525
  179SOPE  C31020462   5.028   2.856   8.069  0.1499 -0.1030  0.0960
  179SOPE  H10X20463   4.953   2.880   8.147  0.5228  0.7565  0.1859
  179SOPE  H10Y20464   5.118   2.918   8.089 -1.6692  1.7126  2.9398
  179SOPE  C31120465   5.048   2.709   8.101 -0.2531  0.3581 -0.4964
  179SOPE  H11X20466   5.130   2.663   8.042  1.3430  1.8025  0.5600
  179SOPE  H11Y20467   4.957   2.655   8.066 -0.5888 -0.3543  1.4076
  179SOPE  C31220468   5.056   2.669   8.246  0.5347 -0.9131  0.0563
  179SOPE  H12X20469   5.086   2.565   8.267  1.9253 -0.5492 -0.0619
  179SOPE  H12Y20470   4.951   2.682   8.280  0.4368  1.5739 -1.0588
  179SOPE  C31320471   5.139   2.763   8.329 -0.5857  0.3281  0.4678
  179SOPE  H13X20472   5.098   2.866   8.327 -0.0716  0.5594  1.4202
  179SOPE  H13Y20473   5.244   2.758   8.293 -0.0695 -0.9709  2.0422
  179SOPE  C31420474   5.153   2.723   8.477 -0.5017  0.0797 -0.1408
  179SOPE  H14X20475   5.222   2.794   8.528  0.1382  0.9849 -2.2380
  179SOPE  H14Y20476   5.196   2.624   8.504  0.1005  0.1294 -0.9294
  179SOPE  C31520477   5.024   2.744   8.554 -0.9278  0.2049  1.1549
  179SOPE  H15X20478   4.988   2.642   8.582  1.3425 -0.8795  0.2029
  179SOPE  H15Y20479   4.947   2.781   8.483  0.8115  1.1351 -0.2876
  179SOPE  C31620480   5.041   2.833   8.676  0.2226  0.2979  0.3519
  179SOPE  H16X20481   5.121   2.908   8.662 -1.2297  1.8402  0.1226
  179SOPE  H16Y20482   5.079   2.766   8.756 -0.6998 -1.1592 -0.3910
  179SOPE  C31720483   4.906   2.893   8.719 -0.0461  0.5323  0.2538
  179SOPE  H17X20484   4.868   2.948   8.631 -1.1388  1.3633  1.2371
  179SOPE  H17Y20485   4.943   2.969   8.790 -1.1572  0.5280  0.8436
  179SOPE  C31820486   4.812   2.787   8.765  1.0818  0.5521 -0.6850
  179SOPE  H18X20487   4.743   2.833   8.840  2.4174  0.8378  0.3849
  179SOPE  H18Y20488   4.866   2.701   8.811 -0.9102  1.1453  2.9982
  179SOPE  H18Z20489   4.753   2.741   8.683 -0.2725  1.7797 -0.4241
  180SOPE     N20490   3.801   2.990   6.079  0.3553  0.6746  0.3102
  180SOPE   HN120491   3.825   2.921   6.005  3.0979 -0.5159  2.2218
  180SOPE   HN220492   3.828   2.946   6.169  1.8809  1.5342  0.2935
  180SOPE   HN320493   3.700   3.013   6.079  0.3709  0.7637  0.9109
  180SOPE   C1220494   3.880   3.113   6.073  0.5850  0.5290  0.0638
  180SOPE  H12A20495   3.840   3.187   6.000 -2.5582 -0.6673  0.5148
  180SOPE  H12B20496   3.981   3.086   6.036  0.0851 -1.3831  0.0811
  180SOPE   C1120497   3.925   3.194   6.208 -0.4934 -0.1186  0.5758
  180SOPE  H11A20498   3.844   3.243   6.267 -0.0425  0.3807  0.7924
  180SOPE  H11B20499   3.979   3.283   6.168  0.7337 -0.7033  0.9105
  180SOPE     P20500   4.015   2.997   6.372  0.1437  0.2463  0.2565
  180SOPE   O1320501   4.151   2.941   6.379 -0.3427 -0.4827  0.4953
  180SOPE   O1420502   3.906   2.914   6.311  0.1430  0.4334 -0.9696
  180SOPE   O1220503   4.022   3.124   6.286  0.7958  0.5846 -0.1807
  180SOPE   O1120504   3.968   3.044   6.513  0.2098  0.1153  0.0616
  180SOPE    C120505   3.933   3.178   6.547  0.2878 -0.6933 -0.5696
  180SOPE    HA20506   3.826   3.199   6.527  0.4741 -0.3955 -1.2486
  180SOPE    HB20507   3.998   3.253   6.496 -1.0477  1.9457  1.4727
  180SOPE    C220508   3.958   3.193   6.699  0.2323 -0.2755 -0.2938
  180SOPE    HS20509   4.064   3.167   6.720 -0.2127 -2.1889 -0.3079
  180SOPE   O2120510   3.871   3.107   6.784  0.3530  0.7209 -0.2810
  180SOPE   C2120511   3.921   2.992   6.825  0.0065  0.6217  0.2924
  180SOPE   O2220512   4.026   2.939   6.788 -0.3774 -0.9139 -0.8576
  180SOPE   C2220513   3.833   2.948   6.939 -0.7917 -0.3965  0.3588
  180SOPE   H2R20514   3.804   2.841   6.926 -1.5845 -0.3218  1.4368
  180SOPE   H2S20515   3.732   2.995   6.939  0.2582  1.9051  1.1831
  180SOPE    C320516   3.938   3.345   6.740 -0.2753  0.0477 -0.4390
  180SOPE    HX20517   3.855   3.383   6.677 -0.3976  0.4027 -0.0642
  180SOPE    HY20518   4.032   3.396   6.709  1.3318 -2.0809  0.8306
  180SOPE   O3120519   3.898   3.365   6.882 -0.3429  0.2167  0.1434
  180SOPE   C3120520   4.001   3.384   6.965 -0.2373  0.4205  1.2062
  180SOPE   O3220521   4.118   3.396   6.933 -0.2803 -0.1267  0.4759
  180SOPE   C3220522   3.944   3.387   7.110  0.0853  0.2949  0.3914
  180SOPE   H2X20523   3.843   3.342   7.109 -0.2552  1.0397 -0.9716
  180SOPE   H2Y20524   3.932   3.493   7.141  0.5886 -0.2798  2.6431
  180SOPE   C2320525   3.902   2.987   7.073  0.5291  0.4155 -0.5088
  180SOPE   H3R20526   3.935   3.093   7.077  1.7846 -0.0042  0.8488
  180SOPE   H3S20527   3.991   2.921   7.070  0.0373 -0.2870  0.2452
  180SOPE   C2420528   3.830   2.966   7.201  0.2626  0.1608  0.3010
  180SOPE   H4R20529   3.764   3.051   7.226 -0.2621 -0.0769 -0.2543
  180SOPE   H4S20530   3.773   2.873   7.181  0.2117 -0.4082  2.9110
  180SOPE   C2520531   3.915   2.952   7.323 -0.1407  0.4081 -0.5049
  180SOPE   H5R20532   3.982   2.868   7.295 -2.3000 -1.3569 -0.5441
  180SOPE   H5S20533   3.984   3.039   7.332 -1.9311  1.6724  1.3954
  180SOPE   C2620534   3.848   2.919   7.452  0.7678  0.2928 -0.4644
  180SOPE   H6R20535   3.773   3.000   7.466  0.0723 -0.3218 -0.5829
  180SOPE   H6S20536   3.799   2.821   7.436 -2.2781  2.1321 -3.1848
  180SOPE   C2720537   3.944   2.919   7.576 -0.0364  0.4586  0.3013
  180SOPE   H7R20538   4.018   2.837   7.567  0.9651  1.4220 -0.4485
  180SOPE   H7S20539   4.009   3.007   7.594 -2.9592  2.9151 -0.7041
  180SOPE   C2820540   3.874   2.914   7.715 -0.5546  0.3875  0.4257
  180SOPE   H8R20541   3.941   2.962   7.789  1.8768  0.3902 -1.7130
  180SOPE   H8S20542   3.782   2.976   7.715  0.0697  1.3357  0.4375
  180SOPE   C2920543   3.840   2.775   7.767 -0.3197  0.2674  0.1936
  180SOPE   H9120544   3.830   2.698   7.688 -2.4461 -0.8679  1.5251
  180SOPE  C21020545   3.835   2.738   7.903  0.3523  0.4426  0.1980
  180SOPE  H10120546   3.823   2.632   7.931  0.4323  0.3255 -0.1933
  180SOPE  C21120547   3.870   2.837   8.011  1.5875 -0.9642  0.2829
  180SOPE  H11R20548   3.795   2.822   8.092  1.0904 -2.0082 -0.3528
  180SOPE  H11S20549   3.876   2.946   7.992 -2.0979 -0.5760  1.0633
  180SOPE  C21220550   4.003   2.786   8.073  0.1881  0.4326 -0.5442
  180SOPE  H12R20551   4.046   2.868   8.136 -0.3876  0.1934  0.1643
  180SOPE  H12S20552   4.076   2.771   7.991  0.9691 -0.1465  0.2511
  180SOPE  C21320553   3.986   2.663   8.161 -0.2519  0.1873  0.0275
  180SOPE  H13R20554   3.939   2.574   8.114  0.0101 -0.7474  1.4998
  180SOPE  H13S20555   3.930   2.698   8.251  3.5279  1.1556  2.1143
  180SOPE  C21420556   4.125   2.616   8.215 -0.1608 -0.1207  0.1381
  180SOPE  H14R20557   4.177   2.700   8.265  0.2579 -0.3107  0.0222
  180SOPE  H14S20558   4.191   2.578   8.134 -0.0498 -0.2019  0.2667
  180SOPE  C21520559   4.115   2.503   8.326 -0.1419  0.7280 -0.5626
  180SOPE  H15R20560   4.076   2.413   8.275  1.1637 -0.6448  0.8004
  180SOPE  H15S20561   4.030   2.537   8.391 -1.5255 -0.6486 -1.6226
  180SOPE  C21620562   4.240   2.481   8.409  0.4144 -0.1876  0.4374
  180SOPE  H16R20563   4.261   2.577   8.461 -0.7456 -0.1121  0.7705
  180SOPE  H16S20564   4.324   2.457   8.340 -0.2708 -2.9609  0.5004
  180SOPE  C21720565   4.221   2.366   8.502 -0.4710 -0.9103 -0.4816
  180SOPE  H17R20566   4.319   2.331   8.541 -0.8631  0.3314  1.7352
  180SOPE  H17S20567   4.160   2.291   8.446 -0.0868 -0.4831 -1.4694
  180SOPE  C21820568   4.146   2.412   8.621  0.4355  0.0840  0.2182
  180SOPE  H18R20569   4.140   2.341   8.706  0.9923  0.7826  0.8537
  180SOPE  H18S20570   4.042   2.449   8.604 -0.6286 -4.0208 -3.1669
  180SOPE  H18T20571   4.207   2.490   8.671 -1.5310  1.8375 -0.0336
  180SOPE   C3320572   4.049   3.328   7.207 -0.4834  0.2107 -0.5407
  180SOPE   H3X20573   4.145   3.379   7.183 -0.0382 -0.4566 -0.2172
  180SOPE   H3Y20574   4.078   3.223   7.182  4.0436  1.1314  0.4243
  180SOPE   C3420575   4.017   3.345   7.349 -0.3762 -0.6340  0.1692
  180SOPE   H4X20576   3.920   3.298   7.376 -0.4606 -1.0947 -0.9455
  180SOPE   H4Y20577   4.005   3.453   7.372  0.7346 -0.2443 -1.0632
  180SOPE   C3520578   4.122   3.288   7.446  0.4405 -0.2776  0.1635
  180SOPE   H5X20579   4.219   3.341   7.436  1.3902 -2.0927 -0.4158
  180SOPE   H5Y20580   4.134   3.179   7.430  0.4164 -0.1735 -0.5799
  180SOPE   C3620581   4.082   3.302   7.589 -0.2720 -0.1285  0.0042
  180SOPE   H6X20582   3.979   3.262   7.590  0.7646 -2.9339  0.2055
  180SOPE   H6Y20583   4.090   3.410   7.614  0.3862  0.1318 -1.2531
  180SOPE   C3720584   4.173   3.224   7.679 -0.0780  0.9871  0.5240
  180SOPE   H7X20585   4.274   3.267   7.660  1.2099 -2.3189 -0.4441
  180SOPE   H7Y20586   4.178   3.117   7.649  1.0720  0.9688  0.7567
  180SOPE   C3820587   4.127   3.231   7.824 -0.4226 -0.3952  0.2150
  180SOPE   H8X20588   4.026   3.186   7.835 -1.5697  1.0457 -3.6761
  180SOPE   H8Y20589   4.100   3.336   7.848 -0.2406 -0.3062  0.0258
  180SOPE   C3920590   4.222   3.170   7.925 -0.4411 -0.1555  0.0827
  180SOPE   H9X20591   4.321   3.220   7.916 -2.1716  2.9270 -2.8806
  180SOPE   H9Y20592   4.240   3.063   7.900  0.7366  0.3333 -1.2440
  180SOPE  C31020593   4.170   3.193   8.065  0.0734  0.0665 -0.0327
  180SOPE  H10X20594   4.078   3.135   8.087  1.7414 -2.6693 -0.0094
  180SOPE  H10Y20595   4.146   3.301   8.077  2.7498  0.7777 -0.6972
  180SOPE  C31120596   4.279   3.165   8.180 -0.5004 -0.4041 -0.2064
  180SOPE  H11X20597   4.373   3.214   8.148 -1.1494  0.0150 -1.5072
  180SOPE  H11Y20598   4.301   3.056   8.189  2.4811  0.0127 -2.0878
  180SOPE  C31220599   4.239   3.232   8.312  0.2019  0.0710 -0.4135
  180SOPE  H12X20600   4.132   3.210   8.330 -0.0030  1.5467  0.2849
  180SOPE  H12Y20601   4.247   3.343   8.305 -1.3441  0.2910  1.0470
  180SOPE  C31320602   4.316   3.189   8.428  0.3029  0.5813  0.0205
  180SOPE  H13X20603   4.424   3.214   8.424  0.2529  0.6863 -0.9894
  180SOPE  H13Y20604   4.326   3.079   8.415  0.0712  0.3357  1.8128
  180SOPE  C31420605   4.283   3.244   8.562 -0.1117 -0.4630  0.3378
  180SOPE  H14X20606   4.187   3.203   8.600 -0.5559 -0.8048 -1.1070
  180SOPE  H14Y20607   4.276   3.355   8.558  0.9007 -0.3926  0.3785
  180SOPE  C31520608   4.395   3.213   8.669 -0.2191  0.1138  0.1697
  180SOPE  H15X20609   4.467   3.296   8.652 -0.1868  0.1669  0.5677
  180SOPE  H15Y20610   4.431   3.108   8.667 -3.7926 -1.1661 -2.4920
  180SOPE  C31620611   4.327   3.228   8.811 -0.2458  0.0501  0.1513
  180SOPE  H16X20612   4.239   3.161   8.818 -0.1232  0.1827  3.3402
  180SOPE  H16Y20613   4.294   3.334   8.821  0.7342  0.4597 -0.7642
  180SOPE  C31720614   4.421   3.193   8.920  0.0844  0.4392  0.2227
  180SOPE  H17X20615   4.423   3.082   8.920 -0.1840  0.4357 -0.0596
  180SOPE  H17Y20616   4.383   3.226   9.019 -2.5997  0.1158 -0.6583
  180SOPE  C31820617   4.570   3.240   8.900 -0.1143  0.1139 -0.0027
  180SOPE  H18X20618   4.630   3.247   8.994  0.5167 -0.1277 -0.3867
  180SOPE  H18Y20619   4.580   3.349   8.880  0.2671  0.2564  0.9243
  180SOPE  H18Z20620   4.631   3.182   8.828  1.3782 -0.7156  1.8739
  181SOPE     N20621   3.723   0.352   5.952  0.5372  0.3782  0.5935
  181SOPE   HN120622   3.628   0.315   5.933  2.0527 -2.4043 -1.8059
  181SOPE   HN220623   3.785   0.311   5.879 -0.5419  2.3463 -1.4886
  181SOPE   HN320624   3.751   0.332   6.051  1.7733  0.5332  0.2936
  181SOPE   C1220625   3.734   0.496   5.913  0.3297 -0.0501 -0.1213
  181SOPE  H12A20626   3.636   0.542   5.941  0.7637  0.6683  0.2265
  181SOPE  H12B20627   3.754   0.507   5.805  0.2739  1.5456  0.0174
  181SOPE   C1120628   3.849   0.547   5.988  0.2154  0.2516  0.1129
  181SOPE  H11A20629   3.824   0.558   6.096 -0.9933 -3.1837  0.2287
  181SOPE  H11B20630   3.853   0.651   5.948 -0.9967 -0.3656 -1.6832
  181SOPE     P20631   4.076   0.539   5.864 -0.5067  0.1027  0.1381
  181SOPE   O1320632   4.015   0.596   5.738  0.2208  0.3014 -0.5396
  181SOPE   O1420633   4.177   0.431   5.842 -0.2087  0.1840 -0.6147
  181SOPE   O1220634   3.969   0.486   5.966  0.1304 -0.5910 -0.5938
  181SOPE   O1120635   4.147   0.665   5.935 -0.2842  0.2521  0.6055
  181SOPE    C120636   4.236   0.627   6.042  0.0174 -0.4032 -0.2641
  181SOPE    HA20637   4.307   0.709   6.064  0.8461 -1.3048  0.4553
  181SOPE    HB20638   4.297   0.537   6.017  0.3809  0.0033 -0.8626
  181SOPE    C220639   4.166   0.607   6.183 -0.1528  0.8338  0.4823
  181SOPE    HS20640   4.133   0.502   6.176 -1.6633  1.2922  0.6793
  181SOPE   O2120641   4.061   0.699   6.202  0.0042 -0.6205  0.4093
  181SOPE   C2120642   3.979   0.686   6.310 -0.4091 -0.4148  0.4722
  181SOPE   O2220643   3.963   0.578   6.360 -0.2986 -0.2903 -0.1483
  181SOPE   C2220644   3.917   0.815   6.347 -0.9731  0.7554  1.0903
  181SOPE   H2R20645   3.866   0.850   6.255 -1.6371 -0.8989  0.8223
  181SOPE   H2S20646   4.000   0.888   6.361 -0.6011  0.2890  1.3289
  181SOPE    C320647   4.271   0.623   6.301  0.0933 -0.3598 -0.0986
  181SOPE    HX20648   4.298   0.731   6.300 -1.3690  0.0075 -0.3386
  181SOPE    HY20649   4.370   0.575   6.286  0.7483  0.1029  2.6457
  181SOPE   O3120650   4.214   0.592   6.430  0.1107 -0.4336 -0.4185
  181SOPE   C3120651   4.269   0.494   6.490 -0.2751  0.2164 -0.4282
  181SOPE   O3220652   4.364   0.429   6.447  0.2528  0.1380  0.5296
  181SOPE   C3220653   4.194   0.466   6.617 -0.3561 -0.1386 -0.2829
  181SOPE   H2X20654   4.085   0.475   6.601 -0.3337 -0.6086 -0.6843
  181SOPE   H2Y20655   4.214   0.547   6.691  0.4510  1.2170 -1.9494
  181SOPE   C2320656   3.808   0.819   6.454  0.2518 -0.3203 -0.5557
  181SOPE   H3R20657   3.738   0.733   6.453  0.2278 -0.2982 -0.7104
  181SOPE   H3S20658   3.750   0.913   6.439 -0.2322 -0.9120 -2.4096
  181SOPE   C2420659   3.851   0.827   6.603  0.4227 -0.2993 -0.2662
  181SOPE   H4R20660   3.928   0.906   6.616  1.0418 -0.5646 -2.1625
  181SOPE   H4S20661   3.769   0.848   6.675  1.0235  1.3696 -0.0562
  181SOPE   C2520662   3.935   0.700   6.638 -0.5938  0.5659  0.6838
  181SOPE   H5R20663   3.877   0.610   6.610 -0.3219  0.3671  0.7654
  181SOPE   H5S20664   4.036   0.693   6.592 -0.7422  1.4348  0.2093
  181SOPE   C2620665   3.954   0.685   6.789 -0.7954  0.2323  0.1655
  181SOPE   H6R20666   3.856   0.682   6.839 -1.0001 -1.1059 -0.3183
  181SOPE   H6S20667   4.002   0.586   6.803  0.1105  1.0948  3.5813
  181SOPE   C2720668   4.032   0.801   6.855  0.2980  0.4636 -0.5009
  181SOPE   H7R20669   4.134   0.801   6.811  0.1163 -2.1050 -0.9936
  181SOPE   H7S20670   3.985   0.900   6.834 -0.8531 -0.3066 -1.6245
  181SOPE   C2820671   4.052   0.792   7.005 -0.1100 -0.1080 -0.4803
  181SOPE   H8R20672   4.122   0.874   7.034 -1.1443  0.6458 -0.0593
  181SOPE   H8S20673   3.960   0.811   7.065  0.5140  0.7671  0.2119
  181SOPE   C2920674   4.115   0.663   7.049 -0.3392 -0.9367 -0.3245
  181SOPE   H9120675   4.218   0.658   7.010 -0.0672  3.0776 -0.3769
  181SOPE  C21020676   4.057   0.560   7.107 -0.2335  0.0822  0.1328
  181SOPE  H10120677   4.128   0.482   7.138  0.5910  0.5404 -0.6082
  181SOPE  C21120678   3.912   0.549   7.142 -0.2068 -0.2665  0.2953
  181SOPE  H11R20679   3.877   0.452   7.102  0.4762  0.1590 -1.3594
  181SOPE  H11S20680   3.846   0.624   7.093 -0.1654 -1.2864 -1.3291
  181SOPE  C21220681   3.901   0.574   7.294  0.0858 -0.5122 -0.2463
  181SOPE  H12R20682   3.793   0.566   7.319  0.4505 -1.2039  1.1535
  181SOPE  H12S20683   3.929   0.678   7.320 -1.4923 -0.4511  1.3036
  181SOPE  C21320684   3.967   0.465   7.377  0.5241  0.8855 -0.4098
  181SOPE  H13R20685   4.070   0.439   7.343  1.5932  2.5174  1.4749
  181SOPE  H13S20686   3.906   0.373   7.365  0.3882  0.3171  4.0385
  181SOPE  C21420687   3.955   0.494   7.528  0.0143 -0.0997  0.5303
  181SOPE  H14R20688   3.872   0.562   7.559 -0.2580 -0.5260  0.7444
  181SOPE  H14S20689   4.051   0.533   7.568 -0.9145  0.2240  2.4719
  181SOPE  C21520690   3.936   0.354   7.597  0.0323  0.1674 -0.6300
  181SOPE  H15R20691   4.023   0.292   7.571 -1.0115 -1.5006 -0.1964
  181SOPE  H15S20692   3.841   0.306   7.563  0.9234 -1.5210 -0.7641
  181SOPE  C21620693   3.942   0.364   7.744 -0.1325  0.1107  0.2499
  181SOPE  H16R20694   3.880   0.448   7.782  0.3195  0.8537 -0.6085
  181SOPE  H16S20695   4.045   0.387   7.777 -0.3879  0.6239  0.6986
  181SOPE  C21720696   3.885   0.244   7.820 -0.2817  0.0584  0.9436
  181SOPE  H17R20697   3.895   0.262   7.930 -0.8724  0.6852  0.9010
  181SOPE  H17S20698   3.937   0.148   7.801  0.8943  0.9304 -0.3963
  181SOPE  C21820699   3.734   0.206   7.811 -0.3450  0.3285  0.3233
  181SOPE  H18R20700   3.708   0.190   7.704 -1.5046  1.3596  0.4277
  181SOPE  H18S20701   3.671   0.291   7.845  0.9919  0.6957  1.9408
  181SOPE  H18T20702   3.708   0.111   7.861 -3.4519  0.4942 -0.8761
  181SOPE   C3320703   4.227   0.333   6.685  0.5793  0.4217 -0.6918
  181SOPE   H3X20704   4.331   0.312   6.716 -0.0503  1.5389  2.4001
  181SOPE   H3Y20705   4.197   0.266   6.602 -0.4234  0.2261 -0.1791
  181SOPE   C3420706   4.147   0.303   6.811  0.4757  0.4379 -0.3128
  181SOPE   H4X20707   4.047   0.350   6.814 -0.6858 -2.0106  0.1273
  181SOPE   H4Y20708   4.216   0.348   6.886 -0.5544 -0.0791  0.9666
  181SOPE   C3520709   4.120   0.151   6.844 -0.6007  0.0663 -0.3141
  181SOPE   H5X20710   4.223   0.113   6.860 -1.0369 -0.0465  2.3665
  181SOPE   H5Y20711   4.081   0.095   6.756 -1.3967 -0.1651  0.1840
  181SOPE   C3620712   4.040   0.116   6.967  0.7738  0.5698 -0.2356
  181SOPE   H6X20713   4.003   0.011   6.968 -1.1151  1.2178  0.8442
  181SOPE   H6Y20714   3.944   0.170   6.979 -1.3623 -3.2417  0.6558
  181SOPE   C3720715   4.133   0.145   7.087  0.0733 -0.0284  0.3603
  181SOPE   H7X20716   4.197   0.231   7.060 -0.5485  0.8036  1.4727
  181SOPE   H7Y20717   4.205   0.061   7.095  2.0864  1.6909  0.5122
  181SOPE   C3820718   4.079   0.159   7.227 -0.1096  0.1590 -0.0563
  181SOPE   H8X20719   4.024   0.255   7.218  0.6609  0.4742 -1.5390
  181SOPE   H8Y20720   4.157   0.174   7.304  0.3821  1.4656 -0.8050
  181SOPE   C3920721   3.969   0.057   7.258  0.4990 -0.0271  0.0132
  181SOPE   H9X20722   4.019  -0.038   7.227  0.1781  0.1491 -1.0813
  181SOPE   H9Y20723   3.884   0.062   7.187 -0.0707  0.7471  0.7475
  181SOPE  C31020724   3.904   0.066   7.399  0.1213 -0.9515 -0.0042
  181SOPE  H10X20725   3.844   0.159   7.410 -3.0554 -2.6183 -2.3044
  181SOPE  H10Y20726   3.977   0.060   7.482  0.9870 -1.1674 -0.7775
  181SOPE  C31120727   3.800  -0.047   7.428  0.1764  0.7535  0.1106
  181SOPE  H11X20728   3.855  -0.141   7.449  1.5594  1.2821 -1.0143
  181SOPE  H11Y20729   3.746  -0.072   7.335  0.1941 -3.5221  1.1734
  181SOPE  C31220730   3.710  -0.020   7.543 -0.8727  0.3035 -0.4241
  181SOPE  H12X20731   3.633   0.057   7.527 -0.6181  0.7024  0.2312
  181SOPE  H12Y20732   3.764   0.021   7.631 -1.0981 -1.4772  0.5855
  181SOPE  C31320733   3.640  -0.151   7.603 -0.2715 -0.2348  0.1006
  181SOPE  H13X20734   3.612  -0.207   7.511  0.3918 -0.0245 -0.2304
  181SOPE  H13Y20735   3.552  -0.108   7.656  0.2694 -0.7925  1.4854
  181SOPE  C31420736   3.722  -0.250   7.687  0.0200 -0.7295 -0.2905
  181SOPE  H14X20737   3.815  -0.271   7.630  0.1240 -0.5213 -0.1993
  181SOPE  H14Y20738   3.666  -0.346   7.683  0.6941 -1.2013  1.1754
  181SOPE  C31520739   3.747  -0.198   7.831 -0.0964  0.0919 -0.3050
  181SOPE  H15X20740   3.776  -0.091   7.837  1.6271 -0.4738  2.0320
  181SOPE  H15Y20741   3.833  -0.261   7.862 -1.5760 -2.2709 -0.8914
  181SOPE  C31620742   3.625  -0.219   7.925  0.2342  0.4420 -0.1600
  181SOPE  H16X20743   3.580  -0.319   7.903  1.2913  0.4820 -2.6595
  181SOPE  H16Y20744   3.561  -0.128   7.919  1.3677  1.3766  1.5484
  181SOPE  C31720745   3.664  -0.221   8.077  0.2967  0.0883  1.1254
  181SOPE  H17X20746   3.738  -0.304   8.088  0.1906  0.0573  1.6003
  181SOPE  H17Y20747   3.568  -0.235   8.131  0.0787  0.1443  0.7532
  181SOPE  C31820748   3.722  -0.084   8.129 -0.6975  0.1584 -0.1520
  181SOPE  H18X20749   3.824  -0.057   8.092 -0.8429 -2.9576 -3.0727
  181SOPE  H18Y20750   3.728  -0.085   8.240  0.7050 -0.7737 -0.2204
  181SOPE  H18Z20751   3.655  -0.001   8.098 -0.0423 -0.3887 -3.2795
  182SOPE     N20752   4.072   2.071   6.142  0.1943  0.1160  0.4833
  182SOPE   HN120753   4.037   2.146   6.079 -1.1499 -0.0203  1.0483
  182SOPE   HN220754   4.158   2.025   6.107 -0.1877 -0.9058  0.8738
  182SOPE   HN320755   3.998   1.999   6.149 -0.7810  1.3210  3.4267
  182SOPE   C1220756   4.104   2.115   6.285  0.1385 -0.0289  0.5445
  182SOPE  H12A20757   4.201   2.169   6.288 -0.0725  0.2910  1.8705
  182SOPE  H12B20758   4.111   2.022   6.347 -0.2657 -0.4922 -0.1014
  182SOPE   C1120759   3.990   2.206   6.342 -0.5604 -0.3263 -0.7981
  182SOPE  H11A20760   4.027   2.244   6.440 -1.4605  0.1553 -0.6402
  182SOPE  H11B20761   3.912   2.137   6.378  0.5835 -0.2676  1.9574
  182SOPE     P20762   3.802   2.295   6.189  0.1879  0.0216  0.0155
  182SOPE   O1320763   3.793   2.163   6.120  0.2579  0.0145  0.1681
  182SOPE   O1420764   3.780   2.418   6.104 -0.0268  0.3790 -0.2612
  182SOPE   O1220765   3.941   2.311   6.252  0.4120 -0.7536  0.2618
  182SOPE   O1120766   3.716   2.302   6.320  0.9274  0.1415  0.0939
  182SOPE    C120767   3.747   2.391   6.432 -0.5553 -0.8785  0.3177
  182SOPE    HA20768   3.769   2.488   6.383  1.2552 -0.8481  1.1719
  182SOPE    HB20769   3.834   2.353   6.489  0.0268 -1.9266 -1.2361
  182SOPE    C220770   3.629   2.410   6.531 -0.3844 -0.4688  0.2956
  182SOPE    HS20771   3.652   2.484   6.611 -1.4502 -0.3529  0.5001
  182SOPE   O2120772   3.596   2.279   6.597 -0.6655  0.5599 -0.0071
  182SOPE   C2120773   3.671   2.250   6.695  0.3461  0.3422  0.9756
  182SOPE   O2220774   3.772   2.311   6.731 -0.0620 -0.1653 -0.5817
  182SOPE   C2220775   3.613   2.121   6.754  0.1656 -0.6811  0.1175
  182SOPE   H2R20776   3.578   2.043   6.684 -2.5948  0.4568  0.1621
  182SOPE   H2S20777   3.525   2.158   6.812 -0.3754 -0.1619 -1.0237
  182SOPE    C320778   3.506   2.460   6.454 -0.4128 -0.0321  0.4188
  182SOPE    HX20779   3.483   2.399   6.364 -1.6925  1.9566 -0.6423
  182SOPE    HY20780   3.525   2.557   6.403 -1.1039  0.5434  1.2376
  182SOPE   O3120781   3.391   2.482   6.533 -0.4764  0.1755  0.2966
  182SOPE   C3120782   3.319   2.369   6.537 -0.2851  1.1638  0.0528
  182SOPE   O3220783   3.324   2.274   6.465 -0.3776 -0.3579  0.4477
  182SOPE   C3220784   3.213   2.392   6.643  0.4808  0.4165 -0.1228
  182SOPE   H2X20785   3.120   2.351   6.598  1.4368 -1.3706 -0.4975
  182SOPE   H2Y20786   3.198   2.502   6.653  1.0828  0.4616  0.2871
  182SOPE   C2320787   3.708   2.055   6.859 -0.6345  0.5206  0.8573
  182SOPE   H3R20788   3.809   2.047   6.814 -1.1683  1.6322 -0.6015
  182SOPE   H3S20789   3.682   1.948   6.875  0.8587  0.3271  2.0007
  182SOPE   C2420790   3.707   2.130   6.990 -0.2706 -0.2915  0.5728
  182SOPE   H4R20791   3.781   2.080   7.056  0.6891  0.0089 -0.2617
  182SOPE   H4S20792   3.757   2.229   6.981  0.7654 -0.7840  0.8691
  182SOPE   C2520793   3.571   2.138   7.063  0.3159  0.1370 -0.8496
  182SOPE   H5R20794   3.538   2.244   7.056 -2.5928 -0.4481  2.5882
  182SOPE   H5S20795   3.503   2.071   7.006 -0.4871 -0.4235  0.7447
  182SOPE   C2620796   3.572   2.104   7.214 -0.2384 -0.3481  0.5408
  182SOPE   H6R20797   3.467   2.121   7.247  0.2683  1.5411  1.1967
  182SOPE   H6S20798   3.605   1.998   7.225 -0.3143 -0.2225  2.1478
  182SOPE   C2720799   3.659   2.193   7.305 -0.5568 -0.7812  0.6741
  182SOPE   H7R20800   3.761   2.190   7.259 -0.8803 -1.9154 -0.0004
  182SOPE   H7S20801   3.623   2.297   7.316  1.5119 -0.2548  2.9178
  182SOPE   C2820802   3.672   2.134   7.446 -0.6912  0.1155  0.3972
  182SOPE   H8R20803   3.704   2.028   7.448 -1.9480 -0.2483  3.2011
  182SOPE   H8S20804   3.760   2.188   7.487 -1.6301  0.1964  2.3326
  182SOPE   C2920805   3.548   2.147   7.534  1.3263 -0.1834 -0.7903
  182SOPE   H9120806   3.463   2.192   7.481  0.1558 -1.0152  0.3711
  182SOPE  C21020807   3.545   2.125   7.661 -1.0643 -0.6079  0.1438
  182SOPE  H10120808   3.451   2.135   7.719 -0.3468  2.2549  0.8747
  182SOPE  C21120809   3.667   2.091   7.736 -0.5613  0.3461  0.3146
  182SOPE  H11R20810   3.749   2.055   7.671 -1.2966 -2.3717  0.8444
  182SOPE  H11S20811   3.649   2.003   7.802 -4.8729  0.6257 -0.3168
  182SOPE  C21220812   3.725   2.208   7.826  0.4520  0.0024  0.8712
  182SOPE  H12R20813   3.714   2.310   7.783  1.5419  0.0934  0.7902
  182SOPE  H12S20814   3.835   2.198   7.827  0.2341 -2.9619 -0.4084
  182SOPE  C21320815   3.687   2.199   7.974  0.1955  0.3837  0.1344
  182SOPE  H13R20816   3.744   2.114   8.019 -0.9190  0.3446  1.5001
  182SOPE  H13S20817   3.578   2.188   7.992  0.1228  2.2535  0.9422
  182SOPE  C21420818   3.719   2.321   8.057  0.5309  0.2814 -0.1946
  182SOPE  H14R20819   3.650   2.402   8.026  0.7956  0.6479  0.1720
  182SOPE  H14S20820   3.821   2.362   8.043  1.2217 -1.8814 -1.8451
  182SOPE  C21520821   3.697   2.286   8.200  0.6615 -0.1106 -0.4429
  182SOPE  H15R20822   3.774   2.222   8.249  1.8923  1.2291 -0.5795
  182SOPE  H15S20823   3.600   2.232   8.200  1.2887 -1.2614  0.7593
  182SOPE  C21620824   3.677   2.398   8.300  0.0303 -0.0210  0.5993
  182SOPE  H16R20825   3.603   2.473   8.264 -0.3711  0.8023  3.0139
  182SOPE  H16S20826   3.774   2.453   8.300  0.3149 -0.4834 -2.4085
  182SOPE  C21720827   3.642   2.350   8.442 -0.2286  0.2251  0.4465
  182SOPE  H17R20828   3.715   2.278   8.485  1.0068  0.2671 -1.5117
  182SOPE  H17S20829   3.538   2.310   8.434 -0.9927  2.3161 -0.3798
  182SOPE  C21820830   3.654   2.479   8.533 -0.2305 -0.0261  0.0280
  182SOPE  H18R20831   3.567   2.546   8.519 -2.4837 -2.8540 -0.0687
  182SOPE  H18S20832   3.743   2.540   8.506 -0.7779  1.9235  2.4669
  182SOPE  H18T20833   3.662   2.454   8.641  0.3777  1.8215  0.4215
  182SOPE   C3320834   3.249   2.333   6.778 -0.3998 -0.2848 -0.0515
  182SOPE   H3X20835   3.353   2.363   6.802 -0.8966  1.4150  0.0508
  182SOPE   H3Y20836   3.237   2.223   6.788 -0.9326 -0.2381 -0.1640
  182SOPE   C3420837   3.168   2.395   6.892 -0.3992 -0.4464  0.1681
  182SOPE   H4X20838   3.060   2.377   6.869 -0.6281  1.6686 -0.4775
  182SOPE   H4Y20839   3.181   2.505   6.899 -2.4081 -0.1370 -0.5095
  182SOPE   C3520840   3.217   2.322   7.017  0.3219 -0.3963 -0.1320
  182SOPE   H5X20841   3.326   2.345   7.024  1.0472 -3.0009 -1.9048
  182SOPE   H5Y20842   3.207   2.212   7.003  1.0220 -0.7783  2.1215
  182SOPE   C3620843   3.151   2.364   7.149 -0.2327  0.0456  0.8456
  182SOPE   H6X20844   3.047   2.330   7.171 -0.9273  0.9287 -0.9682
  182SOPE   H6Y20845   3.137   2.474   7.141 -0.7601 -0.1116 -0.6683
  182SOPE   C3720846   3.246   2.327   7.270  0.0889 -0.0717 -0.4560
  182SOPE   H7X20847   3.267   2.424   7.319  2.2501 -0.6032 -0.2797
  182SOPE   H7Y20848   3.340   2.282   7.233  2.0117  1.0001  2.9709
  182SOPE   C3820849   3.178   2.230   7.357  0.6971 -0.0756 -0.0306
  182SOPE   H8X20850   3.251   2.161   7.404 -0.9696 -2.0113 -0.2070
  182SOPE   H8Y20851   3.120   2.167   7.286 -0.9632  0.9775  0.3554
  182SOPE   C3920852   3.072   2.295   7.447  0.0934  0.2938  0.8231
  182SOPE   H9X20853   2.998   2.351   7.387  0.0212  0.1694  0.7949
  182SOPE   H9Y20854   3.128   2.371   7.505  2.4632 -1.1233  0.4525
  182SOPE  C31020855   2.996   2.194   7.536 -0.9776  0.4342  0.0663
  182SOPE  H10X20856   3.070   2.140   7.598 -0.1003 -0.9295 -2.0882
  182SOPE  H10Y20857   2.938   2.125   7.472  0.4582 -1.0461  0.3340
  182SOPE  C31120858   2.902   2.251   7.641  0.5809  0.0793 -0.4331
  182SOPE  H11X20859   2.966   2.310   7.710  0.9122 -0.4799 -0.2642
  182SOPE  H11Y20860   2.852   2.166   7.691  0.3088  0.2586 -0.4010
  182SOPE  C31220861   2.803   2.359   7.592 -0.0592  0.2441  0.1909
  182SOPE  H12X20862   2.831   2.380   7.487 -0.9055 -1.8699 -0.4944
  182SOPE  H12Y20863   2.827   2.446   7.658  0.3087 -1.8411  2.9301
  182SOPE  C31320864   2.650   2.346   7.598 -0.0172  0.9684 -0.0784
  182SOPE  H13X20865   2.637   2.259   7.529 -1.5541 -0.5908  2.1139
  182SOPE  H13Y20866   2.593   2.430   7.551  0.9787  1.3245 -0.6667
  182SOPE  C31420867   2.594   2.306   7.730  0.2275 -0.1204 -0.9908
  182SOPE  H14X20868   2.666   2.237   7.778  1.2690  0.2583 -1.9889
  182SOPE  H14Y20869   2.505   2.242   7.711 -1.2739  1.8509 -0.7815
  182SOPE  C31520870   2.578   2.436   7.820  0.4157 -0.4911  0.7185
  182SOPE  H15X20871   2.493   2.490   7.773  1.1730  0.3309  0.2883
  182SOPE  H15Y20872   2.673   2.493   7.809 -0.4073  0.5953 -0.8359
  182SOPE  C31620873   2.542   2.410   7.966  0.1707 -0.3544 -0.2536
  182SOPE  H16X20874   2.615   2.344   8.018  1.2651  0.9464 -0.1129
  182SOPE  H16Y20875   2.449   2.350   7.966  0.5026 -0.8756 -0.8979
  182SOPE  C31720876   2.522   2.545   8.043 -0.7356 -0.0632  0.2150
  182SOPE  H17X20877   2.442   2.609   8.002  0.4044  0.7846 -0.7088
  182SOPE  H17Y20878   2.616   2.603   8.026 -2.3420  1.9100 -2.1486
  182SOPE  C31820879   2.508   2.531   8.194 -0.5998 -0.2493 -1.3409
  182SOPE  H18X20880   2.590   2.466   8.230  2.4148  3.5082 -0.9915
  182SOPE  H18Y20881   2.413   2.490   8.234 -0.4695 -1.2902 -2.1020
  182SOPE  H18Z20882   2.510   2.632   8.240 -0.5593 -0.4958 -0.8054
  183SOPE     N20883   6.665   0.643   6.115 -0.0632 -0.3595  0.0849
  183SOPE   HN120884   6.667   0.545   6.151  1.5905 -0.8296 -1.2256
  183SOPE   HN220885   6.567   0.672   6.132 -0.3290 -2.1373  1.8552
  183SOPE   HN320886   6.686   0.644   6.013 -0.6514 -1.8337 -0.0669
  183SOPE   C1220887   6.758   0.735   6.191  0.1510 -0.3458  0.0711
  183SOPE  H12A20888   6.715   0.758   6.290  1.0617  1.1264  0.1411
  183SOPE  H12B20889   6.758   0.832   6.136 -1.0704 -0.5128 -0.2375
  183SOPE   C1120890   6.897   0.681   6.218  0.1515  0.1333 -0.3869
  183SOPE  H11A20891   6.971   0.751   6.262  0.3942 -0.1795 -0.2954
  183SOPE  H11B20892   6.940   0.644   6.123  1.0417 -0.6930  0.3301
  183SOPE     P20893   6.889   0.414   6.261  0.2044 -0.1308  0.4984
  183SOPE   O1320894   7.034   0.367   6.240 -0.0456 -0.5753 -0.6898
  183SOPE   O1420895   6.794   0.407   6.154  0.1329  0.5229 -0.1955
  183SOPE   O1220896   6.886   0.569   6.305 -0.1808  0.6246  0.1435
  183SOPE   O1120897   6.817   0.359   6.393  0.3016 -1.0050 -0.3537
  183SOPE    C120898   6.889   0.383   6.518 -0.2479  0.2306 -0.7572
  183SOPE    HA20899   6.931   0.485   6.523 -1.0892  0.5447  0.0869
  183SOPE    HB20900   6.977   0.315   6.521 -0.0826  0.4711 -0.1450
  183SOPE    C220901   6.802   0.358   6.642 -0.3625 -0.2017 -0.2609
  183SOPE    HS20902   6.726   0.437   6.657 -2.7980 -2.3910 -0.5799
  183SOPE   O2120903   6.890   0.315   6.748 -0.4783 -0.0305  0.4005
  183SOPE   C2120904   6.898   0.402   6.845 -0.5440 -0.1738  1.0110
  183SOPE   O2220905   6.835   0.505   6.860  0.0206 -0.1712  0.2097
  183SOPE   C2220906   6.984   0.340   6.950 -0.3743  0.1686 -0.6115
  183SOPE   H2R20907   7.084   0.387   6.933 -0.2797 -0.4860 -1.9577
  183SOPE   H2S20908   7.012   0.238   6.917 -1.8705 -0.9892  1.6362
  183SOPE    C320909   6.718   0.233   6.603  0.4129  0.9507  0.6163
  183SOPE    HX20910   6.773   0.144   6.567  0.9400  1.5525 -0.0926
  183SOPE    HY20911   6.653   0.253   6.515  0.1379 -2.7496 -0.0930
  183SOPE   O3120912   6.641   0.185   6.713  0.0166 -0.0614  0.3646
  183SOPE   C3120913   6.512   0.224   6.704 -0.5478 -0.9148 -0.2958
  183SOPE   O3220914   6.468   0.297   6.615 -0.2810 -0.3146  0.1250
  183SOPE   C3220915   6.451   0.169   6.829  0.3462  0.5484 -0.7094
  183SOPE   H2X20916   6.527   0.164   6.911 -0.2009 -0.7028 -0.2651
  183SOPE   H2Y20917   6.418   0.065   6.806 -0.1808  0.0430  2.1019
  183SOPE   C2320918   6.944   0.337   7.098  0.6973 -0.2866  0.0054
  183SOPE   H3R20919   6.895   0.435   7.117  2.1587 -0.1903  3.6480
  183SOPE   H3S20920   7.036   0.328   7.160  0.1981  0.0938  0.8085
  183SOPE   C2420921   6.852   0.220   7.129 -0.0330  0.3578  0.4453
  183SOPE   H4R20922   6.778   0.191   7.052 -0.0352  0.4868  0.3984
  183SOPE   H4S20923   6.918   0.132   7.147  0.1185  0.4581  0.3883
  183SOPE   C2520924   6.755   0.234   7.246  0.2647  0.0293  0.4596
  183SOPE   H5R20925   6.688   0.318   7.222 -0.2874 -0.6020 -0.2192
  183SOPE   H5S20926   6.704   0.137   7.265 -1.4275  0.6750 -0.7597
  183SOPE   C2620927   6.831   0.261   7.376 -0.0685 -0.9051  0.2664
  183SOPE   H6R20928   6.909   0.183   7.380 -0.0250 -0.8162  1.3866
  183SOPE   H6S20929   6.888   0.357   7.371  0.8216 -1.4607 -0.2163
  183SOPE   C2720930   6.743   0.279   7.501  0.0998  0.1878  0.3892
  183SOPE   H7R20931   6.689   0.375   7.491  0.4664  0.6673  2.5879
  183SOPE   H7S20932   6.664   0.201   7.502  0.6705 -0.3940  0.0595
  183SOPE   C2820933   6.811   0.276   7.635  0.4940  0.4899  0.2189
  183SOPE   H8R20934   6.745   0.277   7.724  2.9819 -1.0611  2.1727
  183SOPE   H8S20935   6.868   0.182   7.652 -1.1587 -0.2556  1.7519
  183SOPE   C2920936   6.897   0.399   7.636  1.0178 -0.0840 -0.5964
  183SOPE   H9120937   6.976   0.395   7.560  2.1605 -2.6200  0.6594
  183SOPE  C21020938   6.872   0.509   7.704 -0.0356 -0.2292 -0.0517
  183SOPE  H10120939   6.949   0.585   7.689  0.4473 -0.6301  0.3582
  183SOPE  C21120940   6.762   0.547   7.805  0.0186 -0.2884  0.4572
  183SOPE  H11R20941   6.690   0.463   7.810  0.2569 -0.5562 -0.4372
  183SOPE  H11S20942   6.709   0.639   7.772 -1.0133 -0.9095  0.3752
  183SOPE  C21220943   6.795   0.576   7.952 -0.0775  0.2002 -0.0634
  183SOPE  H12R20944   6.709   0.622   8.005 -0.6339 -0.1228 -0.6777
  183SOPE  H12S20945   6.865   0.661   7.946  2.3459 -1.7658 -0.6285
  183SOPE  C21320946   6.852   0.451   8.026  0.7387 -0.0637 -0.0016
  183SOPE  H13R20947   6.955   0.443   7.986  0.6967  1.4103 -0.4540
  183SOPE  H13S20948   6.791   0.362   8.001 -0.2615  1.9936 -5.4615
  183SOPE  C21420949   6.880   0.469   8.179 -0.1421  0.0873 -0.1732
  183SOPE  H14R20950   6.879   0.374   8.237 -1.3670  0.5805  0.6413
  183SOPE  H14S20951   6.804   0.539   8.219 -0.1685 -0.4391  0.7244
  183SOPE  C21520952   7.013   0.544   8.219 -0.9323  0.0428 -0.1149
  183SOPE  H15R20953   7.021   0.637   8.159 -0.8182 -1.2960 -2.2127
  183SOPE  H15S20954   7.100   0.483   8.188 -0.1471 -0.0451  2.1377
  183SOPE  C21620955   7.031   0.573   8.370  0.0302  0.0390  0.1096
  183SOPE  H16R20956   7.009   0.478   8.425 -0.2333  0.4015  0.6327
  183SOPE  H16S20957   6.962   0.653   8.404 -0.3811 -0.1783 -0.2198
  183SOPE  C21720958   7.176   0.607   8.409  0.3124  0.2970  0.3551
  183SOPE  H17R20959   7.208   0.693   8.346  1.7373  1.2251  2.2672
  183SOPE  H17S20960   7.241   0.517   8.405  1.4202  1.1485 -1.1678
  183SOPE  C21820961   7.178   0.657   8.552 -0.3756  0.3213 -0.1135
  183SOPE  H18R20962   7.148   0.571   8.615  1.7648 -0.6829 -0.4155
  183SOPE  H18S20963   7.122   0.751   8.572 -1.2194 -0.3579  0.7199
  183SOPE  H18T20964   7.283   0.684   8.576 -0.0067  0.0388 -1.3818
  183SOPE   C3320965   6.338   0.258   6.882 -0.6690 -0.3915 -0.0810
  183SOPE   H3X20966   6.258   0.265   6.806 -0.4888 -1.1376 -0.3449
  183SOPE   H3Y20967   6.376   0.360   6.901 -0.5026 -0.6940  1.2741
  183SOPE   C3420968   6.285   0.211   7.021  0.5378  0.8039 -0.3006
  183SOPE   H4X20969   6.242   0.111   7.003 -1.0560  1.0582  1.9664
  183SOPE   H4Y20970   6.202   0.280   7.045 -0.7971 -0.6753 -0.5946
  183SOPE   C3520971   6.373   0.216   7.145 -0.4427  0.2304  0.0568
  183SOPE   H5X20972   6.453   0.292   7.139 -0.5282  0.4150  1.0399
  183SOPE   H5Y20973   6.426   0.118   7.145 -1.5967 -0.4214 -1.4120
  183SOPE   C3620974   6.291   0.211   7.277  0.0636  0.5635 -0.3072
  183SOPE   H6X20975   6.222   0.124   7.281  0.7239  0.0737  0.5998
  183SOPE   H6Y20976   6.236   0.308   7.282 -3.2344 -1.2769  0.1105
  183SOPE   C3720977   6.381   0.196   7.403 -0.2156 -0.2775 -0.3396
  183SOPE   H7X20978   6.461   0.273   7.401  0.4931 -1.0619 -2.2676
  183SOPE   H7Y20979   6.433   0.100   7.387  0.6348  0.2310 -0.6175
  183SOPE   C3820980   6.310   0.210   7.535 -0.1507  0.0215  0.0768
  183SOPE   H8X20981   6.263   0.112   7.560  1.3965 -1.0984 -1.3373
  183SOPE   H8Y20982   6.231   0.289   7.536 -1.3935 -1.1782 -1.1172
  183SOPE   C3920983   6.412   0.225   7.650 -0.6008 -0.1106 -0.6234
  183SOPE   H9X20984   6.481   0.310   7.631  2.0701 -2.1165 -0.0834
  183SOPE   H9Y20985   6.477   0.136   7.661 -0.1089  0.4143  0.7401
  183SOPE  C31020986   6.332   0.259   7.775 -0.4135  0.1253  0.1729
  183SOPE  H10X20987   6.265   0.172   7.796  0.3534 -0.1309  1.6404
  183SOPE  H10Y20988   6.259   0.338   7.749 -0.1077 -0.1975 -1.7290
  183SOPE  C31120989   6.427   0.294   7.892 -0.4585  0.0976  0.5603
  183SOPE  H11X20990   6.512   0.354   7.854 -0.2804 -0.3647  0.2242
  183SOPE  H11Y20991   6.479   0.204   7.931 -1.7066 -0.5525  0.7413
  183SOPE  C31220992   6.358   0.370   8.008  0.3580  0.1148 -0.5403
  183SOPE  H12X20993   6.268   0.320   8.047  0.6951 -1.6474 -1.9671
  183SOPE  H12Y20994   6.318   0.469   7.976  1.2562  0.9478  0.8352
  183SOPE  C31320995   6.455   0.408   8.117 -0.2638 -0.2505  0.0222
  183SOPE  H13X20996   6.544   0.463   8.079 -1.0646  1.4672  0.5797
  183SOPE  H13Y20997   6.489   0.313   8.165  2.3138 -0.3393 -1.8415
  183SOPE  C31420998   6.394   0.489   8.229  0.4011  0.5652 -0.4010
  183SOPE  H14X20999   6.309   0.423   8.256  1.9426 -1.3463 -0.0409
  183SOPE  H14Y21000   6.361   0.581   8.178 -1.4996 -0.3911 -0.9224
  183SOPE  C31521001   6.488   0.521   8.340 -0.2483 -0.4711  0.8414
  183SOPE  H15X21002   6.429   0.563   8.424 -0.0657 -1.3367  1.4065
  183SOPE  H15Y21003   6.559   0.600   8.305  0.0786  0.1749  2.9047
  183SOPE  C31621004   6.572   0.412   8.398 -0.1655 -0.0796 -0.5862
  183SOPE  H16X21005   6.643   0.365   8.326  0.2356 -0.2458 -0.0930
  183SOPE  H16Y21006   6.504   0.329   8.428  1.4976 -0.9985  0.8132
  183SOPE  C31721007   6.654   0.452   8.528  0.4040  0.1813  0.0848
  183SOPE  H17X21008   6.708   0.546   8.505 -3.2243  1.4670 -3.8097
  183SOPE  H17Y21009   6.714   0.364   8.557  1.9325  1.1587 -0.0668
  183SOPE  C31821010   6.571   0.492   8.651 -0.6543  0.6929 -0.4460
  183SOPE  H18X21011   6.619   0.575   8.706  0.9122  0.4474 -1.4036
  183SOPE  H18Y21012   6.551   0.408   8.722 -0.9454  1.3891  0.3145
  183SOPE  H18Z21013   6.470   0.516   8.612 -0.7718 -1.0823 -1.2693
  184SOPE     N21014   5.549   0.350   6.150 -0.2422 -0.2708 -0.2363
  184SOPE   HN121015   5.606   0.410   6.086 -0.4117  1.1348  0.9282
  184SOPE   HN221016   5.450   0.379   6.153 -0.3155 -0.5823  0.3851
  184SOPE   HN321017   5.589   0.361   6.245 -1.2555 -0.1250  0.1758
  184SOPE   C1221018   5.571   0.207   6.117 -0.1453  0.1532  0.4132
  184SOPE  H12A21019   5.535   0.186   6.014  3.0553  2.1775 -1.1694
  184SOPE  H12B21020   5.503   0.152   6.187  0.1414  1.1317  1.4755
  184SOPE   C1121021   5.710   0.152   6.139 -0.0252 -0.1131 -0.4445
  184SOPE  H11A21022   5.714   0.041   6.136 -0.1257 -0.0663 -3.9832
  184SOPE  H11B21023   5.732   0.181   6.244 -1.4568  1.6936 -0.6245
  184SOPE     P21024   5.920   0.295   6.074  0.4521 -0.0527  0.1780
  184SOPE   O1321025   5.934   0.400   5.964  0.1062 -0.1475 -0.0224
  184SOPE   O1421026   6.038   0.218   6.113 -0.0166  0.0378  0.9786
  184SOPE   O1221027   5.799   0.201   6.036  0.8097 -0.1105 -0.1958
  184SOPE   O1121028   5.868   0.370   6.197 -0.0209 -0.5199 -0.4750
  184SOPE    C121029   5.956   0.430   6.289 -0.1092 -0.5072 -0.1406
  184SOPE    HA21030   5.908   0.515   6.341 -1.2374 -3.0396  3.2037
  184SOPE    HB21031   6.034   0.487   6.235 -1.7403  1.7373 -0.1780
  184SOPE    C221032   6.001   0.340   6.403  0.0457 -0.0701 -0.4214
  184SOPE    HS21033   6.067   0.264   6.356 -1.5260 -0.6645 -1.7530
  184SOPE   O2121034   5.884   0.279   6.468 -0.3807 -0.0212  0.7448
  184SOPE   C2121035   5.908   0.175   6.544 -0.6138 -0.0600 -0.3884
  184SOPE   O2221036   6.016   0.119   6.559  0.7211 -0.3996 -0.4830
  184SOPE   C2221037   5.780   0.134   6.617 -0.1334  0.7677 -0.7437
  184SOPE   H2R21038   5.789   0.036   6.670  1.6233  0.1038 -2.2204
  184SOPE   H2S21039   5.699   0.119   6.542 -0.1680 -1.3030 -0.3486
  184SOPE    C321040   6.088   0.416   6.513  0.2335 -0.6484 -0.7646
  184SOPE    HX21041   6.169   0.447   6.443 -0.0144  0.8457 -0.4141
  184SOPE    HY21042   6.136   0.341   6.579  0.6815  0.6460  0.4122
  184SOPE   O3121043   6.024   0.531   6.578 -0.7994 -0.0804  0.6224
  184SOPE   C3121044   6.103   0.616   6.646 -0.0862 -0.3447  0.8604
  184SOPE   O3221045   6.224   0.606   6.651  0.1567  0.1435 -0.0056
  184SOPE   C3221046   6.007   0.730   6.685 -0.4000 -0.5542 -0.3960
  184SOPE   H2X21047   5.916   0.679   6.722 -2.1807  1.5906 -1.6511
  184SOPE   H2Y21048   5.977   0.789   6.596 -0.5390 -2.2120 -1.4511
  184SOPE   C2321049   5.732   0.233   6.722 -0.1891  0.1430 -0.0091
  184SOPE   H3R21050   5.632   0.196   6.755  0.4147 -0.9329  0.6328
  184SOPE   H3S21051   5.698   0.328   6.676 -0.0799  1.1051  1.8247
  184SOPE   C2421052   5.830   0.259   6.827  0.4300  0.0424 -0.0184
  184SOPE   H4R21053   5.858   0.167   6.883  0.8127  0.7929  1.0452
  184SOPE   H4S21054   5.928   0.301   6.795 -0.4244 -1.6508 -5.1975
  184SOPE   C2521055   5.768   0.339   6.945 -0.4675  0.1054 -0.3966
  184SOPE   H5R21056   5.767   0.448   6.920  1.5154 -0.1054 -1.5064
  184SOPE   H5S21057   5.664   0.307   6.968  0.0108  0.1487  1.9650
  184SOPE   C2621058   5.860   0.333   7.071  0.3077 -0.2319  0.5600
  184SOPE   H6R21059   5.883   0.231   7.110 -1.7158 -0.6857  0.6554
  184SOPE   H6S21060   5.962   0.371   7.047  0.3516  0.1992  1.4298
  184SOPE   C2721061   5.810   0.413   7.191 -0.3710  0.4617  0.0955
  184SOPE   H7R21062   5.796   0.519   7.163  0.6186 -0.3387 -3.7490
  184SOPE   H7S21063   5.706   0.378   7.209 -0.4808 -0.9008 -2.9547
  184SOPE   C2821064   5.906   0.396   7.307 -0.6129  0.3071 -0.0523
  184SOPE   H8R21065   5.909   0.287   7.326 -4.2582 -0.0348 -0.9915
  184SOPE   H8S21066   6.004   0.437   7.275 -0.1721 -1.8418 -1.5295
  184SOPE   C2921067   5.859   0.483   7.430  0.2391  0.1570 -0.0266
  184SOPE   H9121068   5.859   0.591   7.408  3.0186  0.3523  0.6607
  184SOPE  C21021069   5.821   0.441   7.548 -0.0472 -0.2140 -0.3983
  184SOPE  H10121070   5.777   0.513   7.619 -2.3339  0.1588 -2.1439
  184SOPE  C21121071   5.810   0.302   7.592  0.4569  0.5560  0.5708
  184SOPE  H11R21072   5.849   0.233   7.514 -1.1123 -0.2381  0.4693
  184SOPE  H11S21073   5.703   0.279   7.614 -0.0586  1.1791 -1.1737
  184SOPE  C21221074   5.903   0.269   7.711 -0.4450  0.5124  0.0907
  184SOPE  H12R21075   5.844   0.300   7.800 -0.9656 -1.6662  0.5464
  184SOPE  H12S21076   6.004   0.315   7.710 -0.8738  1.4842  0.4846
  184SOPE  C21321077   5.926   0.118   7.724  0.0227 -0.2692  0.6671
  184SOPE  H13R21078   6.006   0.098   7.650 -0.0646 -1.8154  0.9663
  184SOPE  H13S21079   5.829   0.071   7.697 -0.2242  0.6102  0.0282
  184SOPE  C21421080   5.981   0.079   7.857 -0.3164 -0.2075  0.3090
  184SOPE  H14R21081   6.060   0.152   7.882 -0.5977 -0.1587  1.0798
  184SOPE  H14S21082   6.044  -0.011   7.841 -1.4914 -0.7805 -1.2554
  184SOPE  C21521083   5.875   0.051   7.967  0.4426  0.7686  0.2080
  184SOPE  H15R21084   5.807  -0.028   7.929 -0.8915  1.7676  0.4816
  184SOPE  H15S21085   5.811   0.142   7.975  0.5898  0.6252  3.9361
  184SOPE  C21621086   5.923   0.020   8.110  0.5169  0.1305  0.7134
  184SOPE  H16R21087   5.944  -0.089   8.111 -1.8417 -0.3933 -1.0397
  184SOPE  H16S21088   5.830   0.039   8.168  0.5259  0.5516  0.5930
  184SOPE  C21721089   6.039   0.105   8.165 -0.2515 -0.3593  0.3108
  184SOPE  H17R21090   6.126   0.079   8.101  0.0127  0.0697  0.4919
  184SOPE  H17S21091   6.063   0.073   8.269  0.8987  0.1140  0.2007
  184SOPE  C21821092   6.008   0.255   8.166 -0.2644  0.3125 -0.1460
  184SOPE  H18R21093   6.009   0.286   8.059  0.7888 -2.0963 -0.8836
  184SOPE  H18S21094   6.083   0.310   8.227  0.4565  1.3823 -1.9672
  184SOPE  H18T21095   5.908   0.273   8.210  0.1031 -1.1968  1.3484
  184SOPE   C3321096   6.065   0.824   6.797  0.0083  0.2575  0.8533
  184SOPE   H3X21097   6.039   0.931   6.785 -2.0237 -0.0781  2.0457
  184SOPE   H3Y21098   6.176   0.837   6.799  0.0943 -0.2924  0.0227
  184SOPE   C3421099   6.027   0.783   6.936 -0.1057 -0.5222  0.0097
  184SOPE   H4X21100   6.064   0.681   6.957  0.5993 -0.0820  0.9587
  184SOPE   H4Y21101   5.916   0.789   6.945 -0.3074  0.1855 -2.3929
  184SOPE   C3521102   6.095   0.870   7.042 -0.8704 -0.4657 -0.2810
  184SOPE   H5X21103   6.093   0.977   7.010  1.0623 -0.5046 -0.5875
  184SOPE   H5Y21104   6.203   0.847   7.051 -1.0300 -1.2984 -0.4628
  184SOPE   C3621105   6.036   0.856   7.180  0.0767  0.5332 -0.4541
  184SOPE   H6X21106   6.085   0.935   7.241  2.9297 -1.6099  0.1274
  184SOPE   H6Y21107   6.063   0.758   7.224 -1.8891  0.0703 -0.2428
  184SOPE   C3721108   5.884   0.873   7.196 -0.5759  0.2777  0.4486
  184SOPE   H7X21109   5.824   0.798   7.140  2.8828  0.7588 -4.2080
  184SOPE   H7Y21110   5.854   0.972   7.157  0.6704  0.3932 -0.2270
  184SOPE   C3821111   5.859   0.872   7.352  0.7346 -0.1707 -0.4298
  184SOPE   H8X21112   5.912   0.954   7.404  1.4551 -1.5045  0.9777
  184SOPE   H8Y21113   5.902   0.779   7.396  1.6224 -0.1348 -1.2201
  184SOPE   C3921114   5.706   0.870   7.374 -0.9092 -0.4760 -0.2249
  184SOPE   H9X21115   5.650   0.776   7.356  0.9542 -2.1143  2.0431
  184SOPE   H9Y21116   5.669   0.954   7.313 -1.8270  0.2340  1.2624
  184SOPE  C31021117   5.677   0.906   7.522 -0.1928  0.1617  0.4421
  184SOPE  H10X21118   5.569   0.924   7.536  0.0303  1.5001  0.5118
  184SOPE  H10Y21119   5.728   1.002   7.544 -1.3143  0.5002  1.5447
  184SOPE  C31121120   5.733   0.801   7.616 -1.2517 -0.0838 -0.3833
  184SOPE  H11X21121   5.841   0.784   7.597 -0.0150  4.1171  2.2645
  184SOPE  H11Y21122   5.668   0.713   7.595 -2.3017  0.4254  0.6517
  184SOPE  C31221123   5.731   0.833   7.766  0.1229 -0.4202 -1.7795
  184SOPE  H12X21124   5.634   0.871   7.805 -0.1263 -1.8197 -1.0037
  184SOPE  H12Y21125   5.812   0.906   7.788  0.5177 -1.8858  2.0819
  184SOPE  C31321126   5.758   0.706   7.852  0.9136 -0.3552  0.5528
  184SOPE  H13X21127   5.782   0.747   7.953  0.0510 -0.5291  0.8374
  184SOPE  H13Y21128   5.849   0.653   7.818  2.2058  2.2360 -0.1635
  184SOPE  C31421129   5.642   0.608   7.863 -0.6989 -0.7093  0.0241
  184SOPE  H14X21130   5.614   0.562   7.766  0.4766  1.6899 -1.4721
  184SOPE  H14Y21131   5.551   0.670   7.879  0.8634  1.7108 -0.2418
  184SOPE  C31521132   5.659   0.511   7.970  0.0788 -0.7157 -0.6229
  184SOPE  H15X21133   5.692   0.570   8.058  2.0418 -0.9918 -1.1372
  184SOPE  H15Y21134   5.742   0.437   7.955 -1.5424 -2.3642 -1.7032
  184SOPE  C31621135   5.531   0.435   8.021 -1.2525 -0.1232 -0.2103
  184SOPE  H16X21136   5.488   0.395   7.927 -2.4392 -0.3924  0.4463
  184SOPE  H16Y21137   5.446   0.499   8.053  0.0021  1.9598 -0.9160
  184SOPE  C31721138   5.567   0.325   8.128 -0.1012  0.0752  0.0887
  184SOPE  H17X21139   5.632   0.250   8.079  0.0697  1.5073 -1.9536
  184SOPE  H17Y21140   5.470   0.279   8.158 -0.2718  1.1761  1.2633
  184SOPE  C31821141   5.630   0.386   8.251 -0.9057  0.5778 -0.8701
  184SOPE  H18X21142   5.588   0.477   8.301 -2.9863 -1.7882  1.8977
  184SOPE  H18Y21143   5.727   0.415   8.206 -1.7339  0.4151 -2.8148
  184SOPE  H18Z21144   5.652   0.311   8.330 -0.5180  1.8447  0.2553
  185SAPI   C1221145   2.461   4.143  11.159  0.7396 -0.2421 -0.3894
  185SAPI    H221146   2.425   4.170  11.057  0.4215  3.8205  0.6855
  185SAPI    O221147   2.557   4.232  11.198  0.2647  0.0344  0.1421
  185SAPI   HO221148   2.628   4.244  11.135  0.9328  2.2321  1.2504
  185SAPI   C1321149   2.338   4.158  11.248  0.6954 -0.5448 -0.5360
  185SAPI    H321150   2.258   4.089  11.213  0.1314  0.1699 -0.6790
  185SAPI    O321151   2.281   4.290  11.250 -0.3154  0.3914  0.4238
  185SAPI   HO321152   2.350   4.350  11.278  0.4239 -1.2474  2.1672
  185SAPI   C1421153   2.369   4.110  11.388  0.5448 -0.4599  0.0208
  185SAPI    H421154   2.451   4.178  11.422 -1.9100  2.0219  1.1515
  185SAPI    O421155   2.262   4.140  11.479  0.0717  0.1545 -0.8499
  185SAPI   HO421156   2.303   4.178  11.556  1.2089 -1.6908 -0.5024
  185SAPI   C1521157   2.427   3.970  11.395  0.1715  0.4131  0.0789
  185SAPI    H521158   2.342   3.906  11.363 -0.5787  1.4659 -0.0501
  185SAPI    O521159   2.453   3.941  11.531 -0.5362  0.4803  0.5094
  185SAPI   HO521160   2.456   3.848  11.553  1.0416  0.9428  2.3379
  185SAPI   C1621161   2.545   3.965  11.301 -0.0349 -0.8149 -0.5348
  185SAPI    H621162   2.613   4.048  11.333 -0.7011 -0.3207 -0.3812
  185SAPI    O621163   2.610   3.841  11.308  0.3704  0.1363  0.2331
  185SAPI   HO621164   2.546   3.775  11.282  1.6086 -0.9040 -0.2605
  185SAPI   C1121165   2.505   4.002  11.162  0.6983  0.1858  0.6273
  185SAPI    H121166   2.423   3.938  11.123  1.1030  0.8518 -1.3955
  185SAPI     P21167   2.631   3.875  10.963 -0.4168 -0.1503 -0.2946
  185SAPI   O1321168   2.580   3.750  11.021 -0.1136  0.1919 -0.3092
  185SAPI   O1421169   2.773   3.864  10.921 -0.0572  0.1758 -0.3571
  185SAPI   O1221170   2.620   3.997  11.071 -0.2677  0.1682 -0.6591
  185SAPI   O1121171   2.537   3.928  10.839  0.5852  0.4020  0.4371
  185SAPI    C121172   2.532   4.052  10.778 -0.2532  0.1053 -0.2743
  185SAPI    HA21173   2.427   4.086  10.790 -0.8791 -1.5316 -1.0194
  185SAPI    HB21174   2.600   4.125  10.827 -0.6678 -1.1663  2.2675
  185SAPI    C221175   2.557   4.044  10.626 -0.3646  0.1538 -0.0214
  185SAPI    HS21176   2.480   3.976  10.584  0.5439 -1.9252  1.5614
  185SAPI   O2121177   2.691   3.998  10.598  0.3605 -0.3956  0.0373
  185SAPI   C2121178   2.707   3.890  10.532 -0.1792  0.3451 -0.1315
  185SAPI   O2221179   2.618   3.820  10.486 -0.5046  0.0926  0.8360
  185SAPI   C2221180   2.853   3.862  10.524  0.7424  0.2956  0.6956
  185SAPI   H2R21181   2.868   3.792  10.609  0.4650 -0.3049  0.2540
  185SAPI   H2S21182   2.879   3.818  10.425  1.0170 -0.2887  1.0216
  185SAPI    C321183   2.540   4.183  10.565 -0.0381 -0.1577 -0.3635
  185SAPI    HX21184   2.627   4.239  10.605 -1.4991  0.5494  1.9300
  185SAPI    HY21185   2.441   4.220  10.601  0.6727  1.4629 -0.0317
  185SAPI   O3121186   2.552   4.189  10.419 -0.2613 -0.6874 -0.1590
  185SAPI   C3121187   2.446   4.139  10.356 -0.8468  0.2890  0.1987
  185SAPI   O3221188   2.342   4.110  10.409 -0.0346 -0.5393 -0.1445
  185SAPI   C3221189   2.485   4.104  10.216 -0.4513 -0.5263  0.3208
  185SAPI   H2X21190   2.512   3.996  10.218  0.1461 -0.3684  1.4719
  185SAPI   H2Y21191   2.573   4.161  10.180  0.0623 -0.8795  0.9912
  185SAPI   C2321192   2.938   3.988  10.533 -0.4301  0.8438 -0.1035
  185SAPI   H3R21193   3.040   3.947  10.551  0.1660  1.4619 -1.9720
  185SAPI   H3S21194   2.914   4.038  10.629 -1.5798 -0.6846  0.4257
  185SAPI   C2421195   2.924   4.092  10.416  0.4940  0.3027  1.1711
  185SAPI   H4R21196   2.827   4.139  10.441  0.1040 -0.0963  0.4448
  185SAPI   H4S21197   2.917   4.044  10.316  1.2675  2.0287  0.2660
  185SAPI   C2521198   3.033   4.203  10.425  0.2533  0.3877 -0.4121
  185SAPI   H5R21199   3.136   4.166  10.433 -0.3092 -1.0001  0.4165
  185SAPI   C2621200   3.016   4.332  10.420  0.2980 -0.7251 -0.2002
  185SAPI   H6R21201   3.101   4.400  10.432  0.5872 -1.0270 -0.5498
  185SAPI   C2721202   2.882   4.404  10.402 -0.2343 -0.2651 -0.1361
  185SAPI   H7R21203   2.836   4.424  10.501  1.4772 -0.7558  0.7766
  185SAPI   H7S21204   2.820   4.340  10.336  2.1206 -2.7930  0.0295
  185SAPI   C2821205   2.913   4.541  10.328 -0.4542  0.1648 -0.2331
  185SAPI   H8R21206   2.940   4.620  10.399  0.7146 -1.8590  1.6255
  185SAPI   C2921207   2.912   4.567  10.194 -0.2314 -0.7830 -0.2132
  185SAPI   H9R21208   2.941   4.665  10.154  2.5177 -1.3407  0.3347
  185SAPI  C21021209   2.875   4.465  10.091  0.2365 -0.1325  0.3921
  185SAPI  H10R21210   2.849   4.524  10.001  1.0256  0.2086  0.3822
  185SAPI  H10S21211   2.778   4.422  10.123  0.9129 -1.1654  1.0657
  185SAPI  C21121212   2.977   4.365  10.066 -0.1383 -0.1526 -0.5650
  185SAPI  H11R21213   3.079   4.383  10.100 -0.5768  1.1829  0.0761
  185SAPI  C21221214   2.956   4.253   9.989 -0.3216 -0.1166 -0.1868
  185SAPI  H12R21215   3.041   4.185   9.972 -0.8699 -1.0931  0.9889
  185SAPI  C21321216   2.829   4.225   9.918  0.1743 -0.2573 -0.8713
  185SAPI  H13R21217   2.792   4.320   9.873  0.2710  0.0914 -0.2132
  185SAPI  H13S21218   2.741   4.206   9.983 -0.4174 -0.0771 -1.6102
  185SAPI  C21421219   2.828   4.108   9.825 -0.2659  0.1238  0.5161
  185SAPI  H14R21220   2.867   4.013   9.864 -2.5066 -0.3687  1.6531
  185SAPI  C21521221   2.785   4.099   9.696  0.4422 -0.4708 -0.6503
  185SAPI  H15R21222   2.807   4.004   9.646  0.9046 -1.1314  0.7773
  185SAPI  C21621223   2.731   4.213   9.612 -0.1136 -0.1325  0.2165
  185SAPI  H16R21224   2.761   4.303   9.670  0.3967 -0.5801  0.6584
  185SAPI  H16S21225   2.621   4.223   9.602 -0.0018 -1.2778 -2.3968
  185SAPI  C21721226   2.786   4.203   9.465 -0.3797 -0.2242 -0.1875
  185SAPI  H17R21227   2.896   4.191   9.468 -0.3961 -0.3592 -0.1163
  185SAPI  H17S21228   2.755   4.290   9.405 -1.5258 -2.1280 -2.4430
  185SAPI  C21821229   2.728   4.084   9.385  0.3953  0.1665 -0.5705
  185SAPI  H18R21230   2.620   4.080   9.411  0.5004  1.7113  0.1659
  185SAPI  H18S21231   2.781   3.992   9.417 -1.4989 -0.4053  1.0506
  185SAPI  C21921232   2.758   4.095   9.232  0.2101  0.1442 -0.1720
  185SAPI  H19R21233   2.868   4.091   9.218  0.1125  0.7624 -1.1437
  185SAPI  H19S21234   2.710   4.191   9.204  0.1000  0.0480 -0.3080
  185SAPI  C22021235   2.683   3.993   9.149 -0.2824  0.5257  0.0234
  185SAPI  H20R21236   2.575   3.995   9.175 -0.0846 -3.3776  1.4765
  185SAPI  H20S21237   2.712   3.887   9.162  0.3678  0.9755  2.5406
  185SAPI  H20T21238   2.698   4.019   9.042  3.0239  1.2450  0.6036
  185SAPI   C3321239   2.376   4.120  10.117 -0.2447 -0.2352  0.0631
  185SAPI   H3X21240   2.336   4.223  10.126  1.4880  0.5093 -0.6398
  185SAPI   H3Y21241   2.292   4.049  10.136  0.8767 -1.9346 -1.2053
  185SAPI   C3421242   2.423   4.115   9.969  0.2125  0.1639  0.0857
  185SAPI   H4X21243   2.488   4.029   9.945  2.5826  2.2347 -1.1045
  185SAPI   H4Y21244   2.490   4.204   9.969  0.1134  0.2408  0.6513
  185SAPI   C3521245   2.304   4.126   9.874  0.1790  0.3766 -0.0496
  185SAPI   H5X21246   2.241   4.202   9.926 -1.7974 -1.4910  0.3263
  185SAPI   H5Y21247   2.252   4.029   9.881  0.6021  0.1754  0.3251
  185SAPI   C3621248   2.340   4.170   9.727 -0.3075 -0.1989  0.1295
  185SAPI   H6X21249   2.366   4.068   9.692  0.8371 -0.9926  3.1258
  185SAPI   H6Y21250   2.426   4.240   9.718  0.7055 -1.4107  0.2530
  185SAPI   C3721251   2.218   4.220   9.645  0.5636 -0.3139 -0.0547
  185SAPI   H7X21252   2.163   4.295   9.705  0.5260 -0.3364 -0.0615
  185SAPI   H7Y21253   2.152   4.136   9.615 -1.7774  1.5907 -0.3133
  185SAPI   C3821254   2.260   4.288   9.514 -0.4341 -0.2620  0.3781
  185SAPI   H8X21255   2.319   4.381   9.533 -0.3444 -0.2698  0.1441
  185SAPI   H8Y21256   2.172   4.306   9.449 -1.8169  0.1221  2.3170
  185SAPI   C3921257   2.339   4.197   9.423 -0.9497  0.8012 -1.1011
  185SAPI   H9X21258   2.281   4.104   9.404  0.9396 -0.5539 -0.3010
  185SAPI   H9Y21259   2.429   4.169   9.481 -1.1795 -0.7226 -1.4494
  185SAPI  C31021260   2.381   4.254   9.287 -0.0030 -0.4219  0.8779
  185SAPI  H10X21261   2.293   4.285   9.227 -1.0922 -2.0458  1.5951
  185SAPI  H10Y21262   2.443   4.173   9.242  0.1000  1.5362 -2.7007
  185SAPI  C31121263   2.480   4.372   9.292  0.0354  0.0976  0.6620
  185SAPI  H11X21264   2.566   4.331   9.349  1.1450 -2.4509 -2.6603
  185SAPI  H11Y21265   2.427   4.456   9.343  1.1297  0.3881  1.3433
  185SAPI  C31221266   2.515   4.434   9.156 -0.7516 -0.2728  0.2731
  185SAPI  H12X21267   2.426   4.480   9.108  1.3689  4.2004  0.3692
  185SAPI  H12Y21268   2.557   4.350   9.096  3.4010  0.5785  1.8300
  185SAPI  C31321269   2.631   4.535   9.169  0.4015 -1.1025  0.6984
  185SAPI  H13X21270   2.714   4.481   9.218  2.4177  2.0461  0.8493
  185SAPI  H13Y21271   2.608   4.627   9.227  0.7751 -0.1052 -0.7100
  185SAPI  C31421272   2.686   4.584   9.033  0.1711 -0.5010 -0.3281
  185SAPI  H14X21273   2.779   4.635   9.066  0.7020 -1.6152 -0.0944
  185SAPI  H14Y21274   2.613   4.654   8.986 -1.5975  0.0159  2.9742
  185SAPI  C31521275   2.737   4.469   8.944 -0.1986  0.2741 -0.7086
  185SAPI  H15X21276   2.646   4.426   8.898  0.4781 -0.0703 -1.7471
  185SAPI  H15Y21277   2.778   4.402   9.022 -0.1533  2.4731  1.2375
  185SAPI  C31621278   2.848   4.519   8.844 -0.5526  0.7218 -0.5086
  185SAPI  H16X21279   2.931   4.582   8.884  0.3989  1.7544 -3.9337
  185SAPI  H16Y21280   2.798   4.579   8.765  0.5905 -0.6609 -2.3235
  185SAPI  C31721281   2.925   4.404   8.775  0.0721  0.0572  0.4987
  185SAPI  H17X21282   2.861   4.353   8.701  0.0512  1.0944 -0.2174
  185SAPI  H17Y21283   2.963   4.343   8.859  0.6660  0.5435  0.5900
  185SAPI  C31821284   3.054   4.456   8.700  0.2821 -0.4210  0.6863
  185SAPI  H18X21285   3.101   4.365   8.657 -0.8380  0.7328 -3.1697
  185SAPI  H18Y21286   3.129   4.508   8.763  0.7802  0.7911 -0.8905
  185SAPI  H18Z21287   3.015   4.514   8.614  0.0606  1.1906  1.8478
  186SAPI   C1221288   3.220   2.136  11.130 -0.0910 -0.8676  0.3547
  186SAPI    H221289   3.254   2.036  11.096 -0.5803 -1.0103  0.2790
  186SAPI    O221290   3.100   2.109  11.210  0.0065  0.2774 -0.0269
  186SAPI   HO221291   3.051   2.050  11.153 -2.2920  0.2525  1.8967
  186SAPI   C1321292   3.342   2.184  11.213  0.0242 -0.0421  0.0000
  186SAPI    H321293   3.429   2.191  11.143  0.1067  0.6396  0.1736
  186SAPI    O321294   3.364   2.088  11.323  0.2568  0.0840 -0.0091
  186SAPI   HO321295   3.276   2.061  11.351  0.3198  0.6296  0.7415
  186SAPI   C1421296   3.312   2.322  11.266 -0.1520 -0.3317  0.7595
  186SAPI    H421297   3.226   2.311  11.336 -1.2103 -0.9761 -0.6140
  186SAPI    O421298   3.424   2.366  11.337  0.3105 -0.3411  0.0610
  186SAPI   HO421299   3.421   2.319  11.421  1.4577  0.1437  0.3871
  186SAPI   C1521300   3.262   2.416  11.157  0.6623 -0.2472  0.0437
  186SAPI    H521301   3.351   2.447  11.098  1.6269 -3.2960 -0.1733
  186SAPI    O521302   3.219   2.538  11.206  0.1453 -0.8598  0.4539
  186SAPI   HO521303   3.263   2.597  11.145 -1.5001  0.4169  0.4562
  186SAPI   C1621304   3.163   2.359  11.060 -0.0359  0.5971 -0.0819
  186SAPI    H621305   3.067   2.364  11.115 -0.6066 -1.0891 -0.8897
  186SAPI    O621306   3.151   2.438  10.944  0.4161  0.0946 -0.4126
  186SAPI   HO621307   3.091   2.379  10.898  0.0058 -0.6261  1.0082
  186SAPI   C1121308   3.199   2.223  11.008  0.1345 -0.4730  0.0747
  186SAPI    H121309   3.301   2.209  10.968  0.5608  1.1568  0.5393
  186SAPI     P21310   3.115   2.070  10.802 -0.0405  0.0272 -0.1113
  186SAPI   O1321311   2.995   1.986  10.797  0.4095 -0.3761 -0.5234
  186SAPI   O1421312   3.244   1.997  10.816  0.2556  0.1379  0.4641
  186SAPI   O1221313   3.101   2.165  10.927 -0.1592  0.6078  0.3323
  186SAPI   O1121314   3.126   2.177  10.685 -0.4854 -0.1069  0.7160
  186SAPI    C121315   3.250   2.203  10.624 -0.2838 -0.1037 -0.2817
  186SAPI    HA21316   3.302   2.271  10.694 -0.8824  1.4291 -1.3113
  186SAPI    HB21317   3.314   2.113  10.612  1.1757  0.4394  2.9527
  186SAPI    C221318   3.252   2.280  10.493  0.1936  0.2745 -0.1774
  186SAPI    HS21319   3.349   2.247  10.450 -0.2690 -1.0375 -0.2307
  186SAPI   O2121320   3.234   2.426  10.511 -0.1401 -0.1612 -0.3609
  186SAPI   C2121321   3.279   2.493  10.397  0.2214 -0.9561 -0.9500
  186SAPI   O2221322   3.357   2.441  10.319 -0.3015  0.1588 -0.4321
  186SAPI   C2221323   3.239   2.635  10.406 -0.3517 -0.4197  0.6977
  186SAPI   H2R21324   3.306   2.694  10.472 -0.6422 -0.4198  0.9929
  186SAPI   H2S21325   3.248   2.684  10.307  1.1356 -0.5512  0.7630
  186SAPI    C321326   3.152   2.209  10.395  0.5491 -0.4823 -0.5456
  186SAPI    HX21327   3.051   2.250  10.416  0.8707  0.0220  0.0546
  186SAPI    HY21328   3.160   2.101  10.420  2.5292 -0.1076  0.5968
  186SAPI   O3121329   3.182   2.238  10.253 -0.2329  0.1830  0.4326
  186SAPI   C3121330   3.270   2.158  10.192  0.1096 -0.3722 -0.2950
  186SAPI   O3221331   3.315   2.058  10.248 -0.0172  0.1389  0.5150
  186SAPI   C3221332   3.293   2.211  10.055 -0.5059 -0.4059 -0.0740
  186SAPI   H2X21333   3.372   2.289  10.055  0.9324 -1.8302  0.9998
  186SAPI   H2Y21334   3.208   2.270  10.015  0.3704  0.1359 -1.1498
  186SAPI   C2321335   3.095   2.654  10.458  1.0855  0.6323  0.2527
  186SAPI   H3R21336   3.094   2.747  10.518  5.5194  1.5080 -0.8036
  186SAPI   H3S21337   3.049   2.571  10.516  0.7554  1.8096  1.7098
  186SAPI   C2421338   2.988   2.692  10.350 -0.6717 -0.5434 -0.1930
  186SAPI   H4R21339   3.031   2.771  10.285  0.2842 -1.0345 -0.1695
  186SAPI   H4S21340   2.898   2.717  10.410 -0.2846  0.9262 -0.2234
  186SAPI   C2521341   2.952   2.557  10.285  0.4088  0.4500  0.2304
  186SAPI   H5R21342   2.914   2.483  10.357  2.3175 -0.9715 -0.1835
  186SAPI   C2621343   2.941   2.521  10.160  0.5472 -0.0260 -0.1973
  186SAPI   H6R21344   2.907   2.417  10.148 -2.3793  0.8062  0.5793
  186SAPI   C2721345   2.968   2.596  10.033  0.2400  0.0649 -0.0906
  186SAPI   H7R21346   2.997   2.701  10.057  0.5171  0.1240 -0.6600
  186SAPI   H7S21347   2.873   2.613   9.978  0.8085  2.2510 -0.4341
  186SAPI   C2821348   3.073   2.537   9.949 -0.3168 -0.4130  0.4581
  186SAPI   H8R21349   3.155   2.491  10.005 -0.7567 -1.2272  0.4486
  186SAPI   C2921350   3.082   2.537   9.815 -0.4772  0.1779 -0.3160
  186SAPI   H9R21351   3.158   2.468   9.775 -1.1576  0.0899 -1.4741
  186SAPI  C21021352   2.975   2.593   9.723  0.0088 -0.0735  0.1603
  186SAPI  H10R21353   2.920   2.677   9.771  1.1220  1.4372 -1.1638
  186SAPI  H10S21354   2.902   2.508   9.716  0.8136 -0.7725  0.1778
  186SAPI  C21121355   3.050   2.641   9.607 -0.3413 -0.1841  0.6351
  186SAPI  H11R21356   3.115   2.725   9.635 -0.8321  0.7165 -0.8983
  186SAPI  C21221357   3.038   2.618   9.468 -0.1830  0.5234  0.0139
  186SAPI  H12R21358   3.108   2.679   9.408  1.1029  0.9971  1.9237
  186SAPI  C21321359   2.934   2.523   9.408 -0.4331 -0.0118 -0.1068
  186SAPI  H13R21360   2.856   2.585   9.360 -0.3213 -0.3271 -0.6923
  186SAPI  H13S21361   2.894   2.452   9.484 -1.5052 -0.6965 -1.2783
  186SAPI  C21421362   3.012   2.434   9.306  0.6866  0.4648 -1.2931
  186SAPI  H14R21363   3.114   2.411   9.339  0.5764 -3.1165 -3.1979
  186SAPI  C21521364   2.965   2.391   9.189  0.5564  0.2535 -0.8254
  186SAPI  H15R21365   3.036   2.338   9.123  1.2112  1.0403 -0.7532
  186SAPI  C21621366   2.837   2.422   9.122  0.3236  0.3366 -0.5067
  186SAPI  H16R21367   2.787   2.495   9.190 -0.6220 -0.7639 -0.0073
  186SAPI  H16S21368   2.770   2.333   9.123 -0.7274  1.0233  4.1752
  186SAPI  C21721369   2.852   2.477   8.980 -0.3858 -0.4387  0.0122
  186SAPI  H17R21370   2.751   2.465   8.935  0.1985 -1.6144 -1.0463
  186SAPI  H17S21371   2.904   2.403   8.915 -1.0948 -2.3149  1.5299
  186SAPI  C21821372   2.926   2.610   8.978 -0.0890 -0.3142  0.1074
  186SAPI  H18R21373   3.023   2.610   9.031  0.0070  0.7440 -0.0555
  186SAPI  H18S21374   2.869   2.684   9.039  0.4484  1.5574 -1.6038
  186SAPI  C21921375   2.939   2.660   8.835  0.2394 -0.2086 -0.1364
  186SAPI  H19R21376   2.944   2.771   8.839 -2.7804 -0.0908  1.3931
  186SAPI  H19S21377   2.849   2.645   8.773 -0.9293  0.1038  1.4550
  186SAPI  C22021378   3.059   2.597   8.756  0.3195  0.3331 -0.0945
  186SAPI  H20R21379   3.054   2.486   8.750 -0.8196  0.2222  2.3598
  186SAPI  H20S21380   3.151   2.632   8.807 -0.0787 -0.3185  1.0981
  186SAPI  H20T21381   3.070   2.632   8.651  1.1865 -0.6715 -0.3480
  186SAPI   C3321382   3.333   2.097   9.957  0.1047  0.0230  0.2829
  186SAPI   H3X21383   3.235   2.067   9.914 -0.4801  0.5467  1.2302
  186SAPI   H3Y21384   3.391   2.015  10.005 -0.1349 -1.1265 -1.3345
  186SAPI   C3421385   3.424   2.148   9.850 -0.7090  0.0935  0.1933
  186SAPI   H4X21386   3.527   2.153   9.892 -0.7391 -1.7007  0.5122
  186SAPI   H4Y21387   3.389   2.250   9.823 -0.3171  0.3457  0.6208
  186SAPI   C3521388   3.415   2.064   9.721  0.3274 -0.3473 -0.3507
  186SAPI   H5X21389   3.347   1.978   9.742 -0.6056  0.9446  2.1754
  186SAPI   H5Y21390   3.512   2.021   9.687 -0.6588 -0.7864 -2.7312
  186SAPI   C3621391   3.362   2.143   9.602  0.4267 -0.1731 -0.0333
  186SAPI   H6X21392   3.433   2.223   9.572 -1.2265  0.1800 -3.2452
  186SAPI   H6Y21393   3.261   2.180   9.627 -1.2745 -2.8569 -2.6199
  186SAPI   C3721394   3.344   2.057   9.475  0.5767  0.2632 -0.0992
  186SAPI   H7X21395   3.269   1.980   9.502 -1.5569  2.4271  0.3333
  186SAPI   H7Y21396   3.440   2.009   9.448  0.3970  0.3298 -0.8473
  186SAPI   C3821397   3.310   2.141   9.359 -0.3295  0.1577 -0.0297
  186SAPI   H8X21398   3.391   2.214   9.336  0.4312 -0.5450  0.3905
  186SAPI   H8Y21399   3.212   2.184   9.388  0.5901  1.3373  1.4312
  186SAPI   C3921400   3.294   2.058   9.224 -0.6674 -0.1548 -0.8175
  186SAPI   H9X21401   3.211   1.988   9.246  0.4227 -1.2474 -0.0417
  186SAPI   H9Y21402   3.368   1.974   9.222  1.6243  1.7073  1.6152
  186SAPI  C31021403   3.272   2.139   9.105  0.2052 -0.4468  0.4881
  186SAPI  H10X21404   3.362   2.178   9.053 -1.7017  2.2392 -0.9116
  186SAPI  H10Y21405   3.225   2.236   9.132  4.2475  1.6273  0.5336
  186SAPI  C31121406   3.192   2.055   9.000  0.1655  0.0441  1.5244
  186SAPI  H11X21407   3.104   2.013   9.053 -1.5503  1.0023 -0.5082
  186SAPI  H11Y21408   3.249   1.967   8.963 -1.0577  0.3378 -1.1251
  186SAPI  C31221409   3.132   2.143   8.893 -0.0283  0.0259 -0.3787
  186SAPI  H12X21410   3.220   2.171   8.830  0.9843 -2.3336 -0.0548
  186SAPI  H12Y21411   3.102   2.244   8.929 -1.9607 -0.1413 -1.4835
  186SAPI  C31321412   3.023   2.074   8.812 -0.4130  0.1026 -0.3832
  186SAPI  H13X21413   2.931   2.064   8.873 -0.4422 -1.3114 -0.6622
  186SAPI  H13Y21414   3.059   1.974   8.783 -0.7842 -0.5705  1.4181
  186SAPI  C31421415   2.957   2.141   8.688  0.1148  0.6357 -0.7387
  186SAPI  H14X21416   2.898   2.228   8.726  2.1751  1.5950  0.3430
  186SAPI  H14Y21417   2.894   2.071   8.630 -1.5811  0.6854  0.9700
  186SAPI  C31521418   3.067   2.187   8.604  0.2462 -0.3489  0.6389
  186SAPI  H15X21419   3.151   2.114   8.597  0.0666 -0.9257  3.6304
  186SAPI  H15Y21420   3.107   2.281   8.649 -1.7372  0.1975  1.3087
  186SAPI  C31621421   3.028   2.231   8.467  0.4212  0.4724 -0.5952
  186SAPI  H16X21422   2.939   2.296   8.456  0.4691  0.3547 -1.8354
  186SAPI  H16Y21423   3.003   2.137   8.413  2.6553  0.5127 -1.7836
  186SAPI  C31721424   3.142   2.303   8.396 -0.0517 -0.0319  0.0306
  186SAPI  H17X21425   3.119   2.361   8.304  0.5184  1.7071  0.9677
  186SAPI  H17Y21426   3.205   2.217   8.364 -2.5205 -1.2167 -1.8417
  186SAPI  C31821427   3.227   2.405   8.475  0.5778 -0.6457 -0.6535
  186SAPI  H18X21428   3.262   2.360   8.570  1.5456 -2.0279 -1.6526
  186SAPI  H18Y21429   3.158   2.490   8.496  0.2103 -1.3476  1.1346
  186SAPI  H18Z21430   3.317   2.443   8.423  0.6274  0.4317  0.2138
  187SAPI   C1221431   6.492   3.307   5.951 -0.0999  0.7927  0.9911
  187SAPI    H221432   6.544   3.402   5.929 -0.5967  1.2437  1.7657
  187SAPI    O221433   6.363   3.309   5.889  0.5161 -0.2824 -0.1692
  187SAPI   HO221434   6.330   3.397   5.909 -1.9859 -1.5645  1.5809
  187SAPI   C1321435   6.575   3.206   5.864  0.6428 -0.1441 -0.6110
  187SAPI    H321436   6.679   3.212   5.902  0.3091 -1.7476  0.6022
  187SAPI    O321437   6.570   3.233   5.721 -0.8433  0.3922 -0.6614
  187SAPI   HO321438   6.484   3.259   5.688 -0.5483 -0.6019 -2.2896
  187SAPI   C1421439   6.515   3.070   5.879 -1.2454  0.0353  0.3198
  187SAPI    H421440   6.415   3.085   5.834 -0.4564 -2.0305 -2.2984
  187SAPI    O421441   6.591   2.967   5.812 -0.3285 -0.1817 -0.3258
  187SAPI   HO421442   6.683   2.989   5.832 -0.5727  1.1367 -0.5982
  187SAPI   C1521443   6.494   3.028   6.027 -0.0070  0.4889  0.3538
  187SAPI    H521444   6.599   3.021   6.063 -0.2917  1.3341  1.3864
  187SAPI    O521445   6.427   2.901   6.037 -0.3336 -0.1869  0.5846
  187SAPI   HO521446   6.360   2.912   6.104 -0.4361  1.6148  0.1989
  187SAPI   C1621447   6.419   3.130   6.108  0.0405 -0.2418  0.2929
  187SAPI    H621448   6.314   3.132   6.071  0.9112 -0.3523 -2.2807
  187SAPI    O621449   6.417   3.094   6.244  0.2161 -0.3146 -0.1709
  187SAPI   HO621450   6.507   3.106   6.274 -0.7991  1.2626  2.3793
  187SAPI   C1121451   6.493   3.261   6.096  0.1766  0.0692 -0.2220
  187SAPI    H121452   6.598   3.239   6.122  0.5101 -0.1466 -1.7073
  187SAPI     P21453   6.499   3.493   6.230 -0.0944 -0.5028 -0.2585
  187SAPI   O1321454   6.391   3.586   6.282 -0.4650 -0.2578 -0.0236
  187SAPI   O1421455   6.587   3.547   6.122  0.6700 -0.2185 -0.5093
  187SAPI   O1221456   6.423   3.362   6.173  0.0327 -0.1387  0.3819
  187SAPI   O1121457   6.585   3.447   6.352 -0.1304 -0.0914 -0.3968
  187SAPI    C121458   6.540   3.360   6.460  0.4662  0.0136  0.1674
  187SAPI    HA21459   6.461   3.289   6.430 -1.1076  1.7786  0.0451
  187SAPI    HB21460   6.619   3.298   6.508  0.3453 -0.0172  0.3272
  187SAPI    C221461   6.477   3.449   6.571 -0.7082 -0.1210  0.1955
  187SAPI    HS21462   6.388   3.502   6.531 -1.2968 -0.6894  0.7330
  187SAPI   O2121463   6.580   3.536   6.630  0.2780 -0.2366  0.0508
  187SAPI   C2121464   6.530   3.654   6.657  0.3979 -0.4693 -0.5032
  187SAPI   O2221465   6.422   3.701   6.623 -0.2705 -0.6482 -0.3197
  187SAPI   C2221466   6.635   3.737   6.743  0.2889  0.2317 -0.0324
  187SAPI   H2R21467   6.733   3.728   6.691  1.0343 -0.1023  1.4171
  187SAPI   H2S21468   6.604   3.843   6.741 -0.4571  0.0128 -0.0253
  187SAPI    C321469   6.422   3.358   6.682  0.1657  0.2209 -0.3103
  187SAPI    HX21470   6.507   3.296   6.715 -0.1252 -0.1061 -0.1684
  187SAPI    HY21471   6.342   3.288   6.648  2.0190 -1.4017 -1.3899
  187SAPI   O3121472   6.379   3.440   6.793 -0.7978  0.4672  0.1219
  187SAPI   C3121473   6.253   3.483   6.784 -0.1577 -0.1495  0.2914
  187SAPI   O3221474   6.177   3.464   6.688 -0.2220 -0.2567  0.4921
  187SAPI   C3221475   6.212   3.562   6.901  0.4272 -0.0676 -0.4801
  187SAPI   H2X21476   6.209   3.666   6.863  1.0019  0.2340  0.2707
  187SAPI   H2Y21477   6.294   3.561   6.977  0.3246  4.7087 -0.1854
  187SAPI   C2321478   6.644   3.666   6.881  0.0972 -0.2774 -0.5958
  187SAPI   H3R21479   6.749   3.637   6.905  0.6954  4.3195  3.0074
  187SAPI   H3S21480   6.590   3.569   6.876 -1.5972  0.2761  4.2171
  187SAPI   C2421481   6.577   3.753   6.981 -0.2851  0.3338 -0.0315
  187SAPI   H4R21482   6.472   3.773   6.951 -0.9572  1.1658  2.7144
  187SAPI   H4S21483   6.623   3.852   7.001 -0.8753  0.6921 -0.4161
  187SAPI   C2521484   6.562   3.675   7.108 -0.1917 -0.1475 -0.8954
  187SAPI   H5R21485   6.517   3.577   7.089  0.6093 -0.6591 -0.2079
  187SAPI   C2621486   6.595   3.715   7.235  0.3866  0.2424 -0.0759
  187SAPI   H6R21487   6.566   3.640   7.309 -2.2690 -1.4225 -2.6800
  187SAPI   C2721488   6.667   3.839   7.275  0.0366  0.1488 -0.2541
  187SAPI   H7R21489   6.687   3.913   7.194  0.1563  1.8768  1.3152
  187SAPI   H7S21490   6.761   3.808   7.326  1.3967  3.1350 -0.8462
  187SAPI   C2821491   6.586   3.917   7.371  0.2225 -0.0333 -0.4432
  187SAPI   H8R21492   6.493   3.955   7.327  0.2896  0.5870 -0.0609
  187SAPI   C2921493   6.614   3.944   7.504 -0.0201 -0.1721  0.4612
  187SAPI   H9R21494   6.547   4.012   7.558 -1.6116 -1.5815  0.3165
  187SAPI  C21021495   6.726   3.887   7.583  0.2973 -0.4719  0.8332
  187SAPI  H10R21496   6.761   3.964   7.655 -0.9326 -0.1432  1.0774
  187SAPI  H10S21497   6.813   3.861   7.519  1.4163 -0.7755  2.4437
  187SAPI  C21121498   6.689   3.768   7.671 -0.1564  1.0851  0.0645
  187SAPI  H11R21499   6.611   3.703   7.629 -0.0890  2.4163 -2.1912
  187SAPI  C21221500   6.713   3.756   7.802  0.1790 -0.2568 -0.4250
  187SAPI  H12R21501   6.654   3.688   7.865 -2.4640  4.1964  2.1329
  187SAPI  C21321502   6.786   3.852   7.888  0.1173 -0.8982  0.0030
  187SAPI  H13R21503   6.742   3.954   7.881  1.6685 -0.1442  0.9102
  187SAPI  H13S21504   6.891   3.864   7.856  0.5373 -2.4237  0.7736
  187SAPI  C21421505   6.782   3.812   8.036  0.5721  0.1344 -0.2841
  187SAPI  H14R21506   6.692   3.757   8.068  1.2649 -0.6571  0.3375
  187SAPI  C21521507   6.880   3.799   8.121 -0.0904  0.1658  0.6354
  187SAPI  H15R21508   6.846   3.765   8.220 -0.2793 -2.1883 -0.1920
  187SAPI  C21621509   7.026   3.837   8.098 -0.4949 -0.1186 -0.6884
  187SAPI  H16R21510   7.052   3.944   8.115 -2.4346  0.3245 -0.4027
  187SAPI  H16S21511   7.050   3.806   7.994 -2.6067 -0.2496 -1.1492
  187SAPI  C21721512   7.127   3.762   8.184 -0.7387 -0.1779  0.1419
  187SAPI  H17R21513   7.229   3.782   8.143  0.0271 -2.6773  0.7384
  187SAPI  H17S21514   7.112   3.652   8.178  0.7600 -0.3099 -1.4182
  187SAPI  C21821515   7.117   3.799   8.328 -0.2575  1.1466  0.0202
  187SAPI  H18R21516   7.171   3.719   8.383  1.7465  0.4513 -2.8066
  187SAPI  H18S21517   7.008   3.797   8.349  0.2112  2.3514  2.7061
  187SAPI  C21921518   7.188   3.935   8.364 -0.4135  0.1691  0.1075
  187SAPI  H19R21519   7.126   4.017   8.320  0.4244  1.3640  1.1347
  187SAPI  H19S21520   7.295   3.920   8.338 -0.7725  0.6917 -1.7903
  187SAPI  C22021521   7.198   3.956   8.517  0.7058 -0.7577 -1.0031
  187SAPI  H20R21522   7.237   4.059   8.530 -1.6970  0.1083 -0.3531
  187SAPI  H20S21523   7.279   3.885   8.545 -0.6964 -1.6823  0.8232
  187SAPI  H20T21524   7.101   3.937   8.567  0.9225  2.0702  0.5849
  187SAPI   C3321525   6.080   3.516   6.971 -0.8669 -0.2855 -0.1344
  187SAPI   H3X21526   6.086   3.407   6.994 -3.3205 -0.2734  0.7848
  187SAPI   H3Y21527   5.984   3.535   6.917 -1.9310 -0.2857  1.6939
  187SAPI   C3421528   6.065   3.599   7.100 -0.4668 -0.2531 -0.3997
  187SAPI   H4X21529   6.085   3.704   7.070  0.3616 -0.5520 -0.9058
  187SAPI   H4Y21530   6.152   3.576   7.166 -0.5280  0.0996 -0.1974
  187SAPI   C3521531   5.927   3.581   7.169  0.2173 -0.0795 -0.1919
  187SAPI   H5X21532   5.891   3.475   7.167 -1.1059  0.3847 -1.2704
  187SAPI   H5Y21533   5.855   3.635   7.106 -1.0154 -2.5216 -0.9375
  187SAPI   C3621534   5.923   3.636   7.315  0.2044 -0.0493  1.2345
  187SAPI   H6X21535   5.963   3.738   7.295  0.2915  0.3280  3.1637
  187SAPI   H6Y21536   5.997   3.582   7.379  2.5962  1.8621  0.1735
  187SAPI   C3721537   5.778   3.650   7.364  0.3323  0.3403  0.2392
  187SAPI   H7X21538   5.747   3.583   7.446 -0.5737 -0.1568 -0.5027
  187SAPI   H7Y21539   5.720   3.615   7.277 -0.0348 -2.7807  1.6880
  187SAPI   C3821540   5.739   3.795   7.397 -0.8454 -0.4000  0.4797
  187SAPI   H8X21541   5.740   3.845   7.297 -0.3406  0.1771  0.7722
  187SAPI   H8Y21542   5.817   3.840   7.462  0.2893 -0.1837 -0.9951
  187SAPI   C3921543   5.601   3.812   7.451  0.4910 -0.2617 -0.4406
  187SAPI   H9X21544   5.552   3.717   7.424 -1.6940  1.2596 -2.0328
  187SAPI   H9Y21545   5.559   3.887   7.380 -0.2035  0.0373  0.2900
  187SAPI  C31021546   5.593   3.842   7.594  0.4204 -0.5499 -0.2860
  187SAPI  H10X21547   5.484   3.845   7.617  0.4433  1.6538 -0.3162
  187SAPI  H10Y21548   5.623   3.946   7.620  0.3517 -0.1910 -1.6010
  187SAPI  C31121549   5.669   3.742   7.684  0.0728  0.0021  1.0713
  187SAPI  H11X21550   5.777   3.763   7.673  0.4557 -1.6475  1.5325
  187SAPI  H11Y21551   5.659   3.637   7.651 -1.0495  0.5147 -0.2670
  187SAPI  C31221552   5.630   3.760   7.828  0.4348 -0.4027  0.7257
  187SAPI  H12X21553   5.523   3.730   7.832 -0.0084  1.0494  0.2351
  187SAPI  H12Y21554   5.632   3.867   7.857  0.2730 -0.7270  1.9866
  187SAPI  C31321555   5.706   3.659   7.913  0.2880  0.3182 -0.2787
  187SAPI  H13X21556   5.815   3.669   7.935  0.5470 -2.6437  0.0449
  187SAPI  H13Y21557   5.705   3.562   7.858 -1.7307  0.3798 -0.3927
  187SAPI  C31421558   5.626   3.646   8.053 -0.6669  0.3892 -0.0337
  187SAPI  H14X21559   5.517   3.646   8.032 -0.3940 -0.4265 -1.5478
  187SAPI  H14Y21560   5.648   3.740   8.107 -1.5211 -0.1170  1.2108
  187SAPI  C31521561   5.669   3.525   8.132  0.6016  0.0485  0.1309
  187SAPI  H15X21562   5.645   3.429   8.080  1.4283 -0.3683  0.5138
  187SAPI  H15Y21563   5.618   3.521   8.231  1.9001 -2.2815  0.7383
  187SAPI  C31621564   5.816   3.515   8.165 -0.5780  0.5405 -0.2876
  187SAPI  H16X21565   5.847   3.598   8.232  1.3490 -0.2562 -0.1666
  187SAPI  H16Y21566   5.877   3.513   8.072  1.0209  1.6968  0.7205
  187SAPI  C31721567   5.855   3.395   8.260 -0.4464 -0.4873  0.5551
  187SAPI  H17X21568   5.823   3.300   8.213 -2.8898  1.3850 -1.7315
  187SAPI  H17Y21569   5.793   3.398   8.353  0.0530  0.2811  0.8669
  187SAPI  C31821570   6.003   3.388   8.289  0.2267  0.4335 -0.0008
  187SAPI  H18X21571   6.028   3.287   8.328 -2.4157 -0.2357  0.0785
  187SAPI  H18Y21572   6.046   3.466   8.356  0.2565 -0.4206  0.9818
  187SAPI  H18Z21573   6.061   3.385   8.194  1.6587 -0.4710  0.8828
  188SAPI   C1221574   1.317   0.393   6.622  0.1560 -0.4260  0.2528
  188SAPI    H221575   1.282   0.326   6.704 -0.2941 -0.5831 -0.0599
  188SAPI    O221576   1.215   0.490   6.594  0.5076  0.3115  0.5655
  188SAPI   HO221577   1.129   0.458   6.624  1.4317 -1.8337  0.9754
  188SAPI   C1321578   1.457   0.452   6.650  0.2014 -0.0484 -0.8035
  188SAPI    H321579   1.529   0.367   6.640  0.5566  0.5323 -3.3494
  188SAPI    O321580   1.482   0.505   6.779  0.0879  0.4774 -0.2878
  188SAPI   HO321581   1.553   0.568   6.765 -1.3150  1.9688 -0.8580
  188SAPI   C1421582   1.499   0.550   6.543  0.5587  0.2786  0.0828
  188SAPI    H421583   1.421   0.629   6.534  1.3280  1.4064  2.8994
  188SAPI    O421584   1.620   0.623   6.565 -0.3824  0.7409  0.2177
  188SAPI   HO421585   1.629   0.693   6.500  1.6162 -0.2364 -0.5987
  188SAPI   C1521586   1.503   0.483   6.413  0.1937  1.1079  0.4559
  188SAPI    H521587   1.583   0.406   6.408  1.7621  2.8056 -0.9963
  188SAPI    O521588   1.534   0.574   6.306  0.1667  0.0021 -0.3266
  188SAPI   HO521589   1.615   0.553   6.260  0.5760  4.1726 -1.6927
  188SAPI   C1621590   1.375   0.404   6.380 -0.2129 -0.5790 -0.2379
  188SAPI    H621591   1.296   0.480   6.361 -1.9719 -1.8669  1.6563
  188SAPI    O621592   1.385   0.328   6.266 -0.1187 -0.3193  0.4730
  188SAPI   HO621593   1.452   0.261   6.280 -1.1262 -1.2147  1.1236
  188SAPI   C1121594   1.338   0.309   6.494 -0.1032  0.1953  0.2353
  188SAPI    H121595   1.430   0.247   6.495 -0.3856 -0.2608 -1.0234
  188SAPI     P21596   1.206   0.081   6.502 -0.2350  0.0026  0.1239
  188SAPI   O1321597   1.349   0.032   6.512  0.8229  0.0294 -0.1768
  188SAPI   O1421598   1.123   0.011   6.407  0.8171  0.3939 -0.1629
  188SAPI   O1221599   1.219   0.236   6.464  0.1651 -0.4026  0.0375
  188SAPI   O1121600   1.138   0.081   6.652  0.0449  0.3090 -0.0112
  188SAPI    C121601   1.012   0.155   6.666  0.2153 -0.1850  0.1751
  188SAPI    HA21602   1.022   0.260   6.633  1.0236  0.2424  1.7071
  188SAPI    HB21603   0.933   0.112   6.601  2.2821 -3.1159 -0.4975
  188SAPI    C221604   0.969   0.154   6.826 -0.1127  0.2193  0.1432
  188SAPI    HS21605   0.877   0.213   6.842 -0.3885 -0.7431  2.2588
  188SAPI   O2121606   1.073   0.206   6.900  0.0440  0.1624  0.0490
  188SAPI   C2121607   1.070   0.347   6.914  0.3044 -0.3744 -0.2403
  188SAPI   O2221608   1.016   0.424   6.839  0.6164  0.2287  1.0737
  188SAPI   C2221609   1.170   0.384   7.024  0.1670 -0.9661 -0.4908
  188SAPI   H2R21610   1.224   0.295   7.063 -2.4002 -1.6051  1.7240
  188SAPI   H2S21611   1.245   0.454   6.983  0.1344 -0.8994 -0.4355
  188SAPI    C321612   0.943   0.010   6.875  0.8252 -0.0797 -0.0189
  188SAPI    HX21613   1.044  -0.036   6.880  0.1287 -1.5713  0.6765
  188SAPI    HY21614   0.892  -0.056   6.801  1.7325 -1.8750  0.9174
  188SAPI   O3121615   0.874   0.010   7.000  0.2309 -0.0480  0.1700
  188SAPI   C3121616   0.922  -0.056   7.105  0.8080  0.3387  0.3999
  188SAPI   O3221617   1.017  -0.130   7.097 -0.0309 -0.0980 -0.3500
  188SAPI   C3221618   0.840  -0.037   7.230  0.4163 -0.3739 -0.2116
  188SAPI   H2X21619   0.741  -0.080   7.203  0.5129 -0.1977 -0.8400
  188SAPI   H2Y21620   0.835   0.069   7.263  2.5085 -0.5195  0.6171
  188SAPI   C2321621   1.100   0.454   7.150  0.5398  0.3511  1.2022
  188SAPI   H3R21622   1.078   0.562   7.136 -2.4293 -0.6204 -2.2727
  188SAPI   H3S21623   1.184   0.456   7.223  2.8105 -2.9268 -1.1775
  188SAPI   C2421624   0.978   0.379   7.207  0.2596 -0.0475  0.6462
  188SAPI   H4R21625   0.910   0.325   7.137 -1.6611  0.6881  1.9023
  188SAPI   H4S21626   0.922   0.461   7.258  0.0252  1.3107 -1.7194
  188SAPI   C2521627   1.024   0.276   7.304  0.0906 -0.1466 -0.2115
  188SAPI   H5R21628   1.066   0.191   7.248 -1.6050 -0.9857 -0.2377
  188SAPI   C2621629   1.022   0.278   7.439  0.0998 -0.5772  0.4181
  188SAPI   H6R21630   1.072   0.193   7.487 -0.3062 -0.9117  0.2532
  188SAPI   C2721631   0.972   0.381   7.536 -0.4914 -1.0570 -0.0159
  188SAPI   H7R21632   0.952   0.317   7.624 -0.1947 -1.5167 -0.2813
  188SAPI   H7S21633   0.870   0.413   7.505 -0.5877  0.7904  2.1159
  188SAPI   C2821634   1.067   0.496   7.555  0.2527 -0.5283  0.3399
  188SAPI   H8R21635   1.099   0.541   7.460 -0.4952  2.9260  1.6627
  188SAPI   C2921636   1.100   0.545   7.673 -0.2266  0.0794 -0.3131
  188SAPI   H9R21637   1.178   0.623   7.681  0.0326 -0.3134  1.1502
  188SAPI  C21021638   1.049   0.504   7.814 -1.1155  0.2993 -0.5004
  188SAPI  H10R21639   1.023   0.396   7.814 -0.8769  0.1865 -3.6437
  188SAPI  H10S21640   0.958   0.568   7.823 -0.8030  0.8749 -1.3077
  188SAPI  C21121641   1.133   0.526   7.933 -0.5336  0.4210  0.2494
  188SAPI  H11R21642   1.169   0.435   7.982 -0.5841  0.6207  0.6638
  188SAPI  C21221643   1.179   0.641   7.988 -0.1178  0.1013  0.0319
  188SAPI  H12R21644   1.232   0.636   8.085  0.7894 -0.5755 -0.4914
  188SAPI  C21321645   1.176   0.787   7.937 -0.1114  1.0249  0.5154
  188SAPI  H13R21646   1.237   0.782   7.844 -0.9570  0.6440 -0.0287
  188SAPI  H13S21647   1.227   0.848   8.014  0.0166 -2.2888  3.1948
  188SAPI  C21421648   1.044   0.843   7.900 -0.3475 -0.2205 -0.0353
  188SAPI  H14R21649   0.983   0.797   7.821 -1.5637 -0.2575  0.9013
  188SAPI  C21521650   0.999   0.950   7.959  0.3340  0.4259 -0.5172
  188SAPI  H15R21651   0.903   0.996   7.931  0.2728  0.0257 -0.9609
  188SAPI  C21621652   1.072   1.020   8.079  0.2330  0.5025 -0.0594
  188SAPI  H16R21653   1.164   1.063   8.033  0.5728 -1.1531 -0.9630
  188SAPI  H16S21654   1.110   0.959   8.164 -1.7653 -0.2987  0.3013
  188SAPI  C21721655   0.978   1.121   8.149 -0.0237 -0.4843 -0.4870
  188SAPI  H17R21656   0.878   1.083   8.179 -0.7096 -0.7463 -3.0610
  188SAPI  H17S21657   0.950   1.199   8.076  0.4252  1.4465  1.3386
  188SAPI  C21821658   1.039   1.169   8.280 -0.6145 -0.8903 -0.0707
  188SAPI  H18R21659   1.055   1.081   8.346  2.1745  0.7197  1.4494
  188SAPI  H18S21660   0.978   1.240   8.340  1.4795  1.1256 -0.2440
  188SAPI  C21921661   1.170   1.246   8.269 -0.3415 -0.0544 -0.2950
  188SAPI  H19R21662   1.162   1.324   8.191 -0.6949 -0.2806 -0.4881
  188SAPI  H19S21663   1.250   1.171   8.249  0.3286  0.3980  0.7117
  188SAPI  C22021664   1.206   1.312   8.400  0.0986 -0.4277 -0.5392
  188SAPI  H20R21665   1.317   1.321   8.407  0.0012 -0.5161  1.5825
  188SAPI  H20S21666   1.179   1.241   8.482  2.0858 -2.3783 -1.5215
  188SAPI  H20T21667   1.162   1.413   8.407 -0.3794 -0.7168  0.7790
  188SAPI   C3321668   0.894  -0.120   7.346 -0.1726  0.3612  0.3450
  188SAPI   H3X21669   0.999  -0.092   7.370 -0.0248 -2.3524  3.1995
  188SAPI   H3Y21670   0.900  -0.228   7.322  3.4239  0.4725  0.3907
  188SAPI   C3421671   0.812  -0.097   7.471 -0.0514  0.4576  0.3552
  188SAPI   H4X21672   0.705  -0.112   7.442  0.4874 -2.3979 -0.2965
  188SAPI   H4Y21673   0.830   0.010   7.496 -0.2031  0.5619  0.0191
  188SAPI   C3521674   0.854  -0.186   7.585  0.1766 -0.2159 -0.5216
  188SAPI   H5X21675   0.963  -0.180   7.608  1.1167  1.3124 -4.8782
  188SAPI   H5Y21676   0.839  -0.293   7.560 -2.7611  0.0055  0.0965
  188SAPI   C3621677   0.789  -0.138   7.716 -0.3474  0.0289  0.8247
  188SAPI   H6X21678   0.679  -0.144   7.725 -0.2356 -0.7984  1.8028
  188SAPI   H6Y21679   0.812  -0.030   7.724 -1.1968  0.2870 -0.1658
  188SAPI   C3721680   0.851  -0.205   7.837  0.1522  0.5115  0.1740
  188SAPI   H7X21681   0.953  -0.171   7.863  1.0037 -0.5186 -1.6328
  188SAPI   H7Y21682   0.852  -0.315   7.819  2.1405  0.8576 -2.1312
  188SAPI   C3821683   0.760  -0.184   7.965  0.4281 -0.3335  0.2385
  188SAPI   H8X21684   0.670  -0.247   7.954 -0.2473  0.6348  0.1419
  188SAPI   H8Y21685   0.733  -0.076   7.960 -1.1309 -0.6950  0.8066
  188SAPI   C3921686   0.821  -0.232   8.097  0.0622  0.5840  0.1710
  188SAPI   H9X21687   0.916  -0.177   8.116  1.3089 -1.5696  0.3249
  188SAPI   H9Y21688   0.863  -0.330   8.067 -0.0776  1.2344 -2.2546
  188SAPI  C31021689   0.730  -0.249   8.219 -0.1440 -0.3095 -0.0183
  188SAPI  H10X21690   0.761  -0.337   8.279 -1.5931 -0.8508 -0.0557
  188SAPI  H10Y21691   0.627  -0.279   8.189 -0.4347 -0.1868  0.8524
  188SAPI  C31121692   0.705  -0.108   8.284  0.6183  0.6991 -0.6500
  188SAPI  H11X21693   0.671  -0.036   8.206  0.0471 -2.6988 -3.6675
  188SAPI  H11Y21694   0.802  -0.083   8.330 -0.1663 -0.4345  1.7094
  188SAPI  C31221695   0.607  -0.117   8.401  0.0609 -0.9431 -0.2355
  188SAPI  H12X21696   0.648  -0.195   8.468 -1.4513 -0.9018  0.7786
  188SAPI  H12Y21697   0.501  -0.147   8.382 -0.3700 -0.1763  0.8928
  188SAPI  C31321698   0.611   0.018   8.476 -0.2800 -0.0752 -0.1553
  188SAPI  H13X21699   0.711   0.067   8.488  0.4600 -1.0875 -2.0351
  188SAPI  H13Y21700   0.579   0.007   8.582  0.6099 -0.9360  0.0272
  188SAPI  C31421701   0.519   0.122   8.406  0.3864  0.6832 -0.3730
  188SAPI  H14X21702   0.453   0.061   8.340  1.4425 -1.0612  0.1648
  188SAPI  H14Y21703   0.582   0.182   8.337  2.1412 -0.5081  0.1678
  188SAPI  C31521704   0.451   0.222   8.499 -0.2414 -0.0347 -0.8879
  188SAPI  H15X21705   0.397   0.300   8.441 -1.1489  2.0357  2.6390
  188SAPI  H15Y21706   0.524   0.281   8.559 -1.4677  1.0051 -0.4155
  188SAPI  C31621707   0.351   0.158   8.595 -0.2882  0.1275  0.6040
  188SAPI  H16X21708   0.335   0.222   8.684  2.5007  0.9217  0.5838
  188SAPI  H16Y21709   0.372   0.056   8.633 -0.2025  0.3638  1.1936
  188SAPI  C31721710   0.213   0.135   8.519  0.2425  0.3697  0.4992
  188SAPI  H17X21711   0.238   0.081   8.425 -0.4277 -1.0252  1.0924
  188SAPI  H17Y21712   0.163   0.231   8.495 -1.5828 -0.1170  2.1340
  188SAPI  C31821713   0.105   0.063   8.600  0.2486 -0.1680  0.7509
  188SAPI  H18X21714   0.128  -0.039   8.636  1.7958 -0.2967 -0.5503
  188SAPI  H18Y21715   0.004   0.057   8.553 -0.5835 -0.5279  2.5418
  188SAPI  H18Z21716   0.091   0.128   8.689  0.6998  0.5345  0.3198
  189POPC     N21717   0.675   0.243  11.054  0.4099  0.2859  0.3763
  189POPC   C1221718   0.823   0.248  11.019 -0.1759  0.2256 -0.0350
  189POPC  H12A21719   0.860   0.148  11.034  1.3766  0.4159 -2.3695
  189POPC  H12B21720   0.866   0.320  11.087  1.2655 -1.4270  0.8241
  189POPC   C1321721   0.657   0.201  11.197 -0.5345 -0.4643  0.6327
  189POPC  H13A21722   0.679   0.095  11.202 -0.8902 -0.6478 -1.3384
  189POPC  H13B21723   0.718   0.254  11.269  0.7275  0.3779 -1.0036
  189POPC  H13C21724   0.554   0.223  11.220 -0.4720  2.4837 -1.6650
  189POPC   C1421725   0.603   0.374  11.049 -0.2891 -0.4199  0.5258
  189POPC  H14A21726   0.496   0.371  11.032 -0.3604  3.7043 -0.4598
  189POPC  H14B21727   0.615   0.432  11.139  0.8802  1.3133 -0.7074
  189POPC  H14C21728   0.639   0.432  10.965 -1.7612 -0.8524 -0.4268
  189POPC   C1521729   0.606   0.146  10.971 -0.0184 -0.5124  0.4179
  189POPC  H15A21730   0.507   0.119  11.005 -0.3701 -1.3826 -1.2408
  189POPC  H15B21731   0.659   0.051  10.973  0.6597 -0.1312  0.5578
  189POPC  H15C21732   0.608   0.175  10.867  3.8668  1.6563  1.0060
  189POPC   C1121733   0.849   0.293  10.875  0.0846  0.1395  0.5606
  189POPC  H11A21734   0.766   0.247  10.818  1.1338 -1.6585  0.4353
  189POPC  H11B21735   0.945   0.241  10.852 -1.2118 -3.5686  3.0401
  189POPC     P21736   0.983   0.511  10.905 -0.3840  0.1846 -0.1849
  189POPC   O1321737   1.034   0.480  11.040  0.1951 -0.4783 -0.1304
  189POPC   O1421738   0.952   0.655  10.886 -0.2407  0.3761  0.4360
  189POPC   O1221739   0.850   0.438  10.862 -0.3521  0.3697 -0.3476
  189POPC   O1121740   1.084   0.461  10.800  0.9720 -0.5016  0.3964
  189POPC    C121741   1.166   0.539  10.716  0.1641 -0.5542  0.0198
  189POPC    HA21742   1.251   0.472  10.692  2.1372  2.1806 -0.9194
  189POPC    HB21743   1.205   0.636  10.754  0.4372 -0.1588 -1.2403
  189POPC    C221744   1.103   0.575  10.577 -0.1679 -0.1387  0.3397
  189POPC    HS21745   1.037   0.661  10.602 -0.7809 -1.5645  3.9438
  189POPC   O2121746   1.029   0.457  10.534 -0.0768  0.4361  0.1111
  189POPC   C2121747   0.919   0.491  10.465  0.0314 -0.1533  0.0540
  189POPC   O2221748   0.880   0.608  10.442 -0.4256  0.2908 -0.4253
  189POPC   C2221749   0.845   0.368  10.413  0.2399 -1.0008  0.1661
  189POPC   H2R21750   0.798   0.323  10.503 -0.9250  0.3996  0.2777
  189POPC   H2S21751   0.919   0.298  10.368  1.0486  0.7635 -1.2677
  189POPC    C321752   1.217   0.610  10.475 -0.0102 -0.2645  0.7955
  189POPC    HX21753   1.295   0.532  10.476 -0.1340 -0.4396 -0.7908
  189POPC    HY21754   1.272   0.706  10.490 -0.6120 -0.0336  1.5491
  189POPC   O3121755   1.164   0.616  10.338 -0.6751  0.6703  0.4899
  189POPC   C3121756   1.248   0.642  10.248  0.4120 -0.0305  0.3943
  189POPC   O3221757   1.361   0.693  10.260 -0.1097  0.0710 -0.6775
  189POPC   C3221758   1.187   0.580  10.122  0.4781 -0.4419 -0.5064
  189POPC   H2X21759   1.120   0.656  10.076 -2.7195 -0.9580  3.0499
  189POPC   H2Y21760   1.140   0.483  10.147  1.1577 -0.4566  0.7488
  189POPC   C2321761   0.733   0.412  10.309 -0.0694  0.1481 -0.7077
  189POPC   H3R21762   0.672   0.496  10.350 -3.7051 -3.2613  1.1974
  189POPC   H3S21763   0.665   0.325  10.305 -0.4793  0.2626  2.4654
  189POPC   C2421764   0.778   0.457  10.169 -0.4426 -0.4828  0.3444
  189POPC   H4R21765   0.860   0.532  10.181 -1.6527  1.2497 -1.7247
  189POPC   H4S21766   0.701   0.512  10.111 -0.1212 -0.7367 -0.3270
  189POPC   C2521767   0.817   0.334  10.088  0.2045  0.3673 -0.3506
  189POPC   H5R21768   0.738   0.258  10.099 -1.2007  1.5634 -1.9425
  189POPC   H5S21769   0.902   0.289  10.144  0.0828  1.6058  0.8525
  189POPC   C2621770   0.865   0.354   9.948  0.8164  0.0484  0.0391
  189POPC   H6R21771   0.910   0.255   9.925  2.2076  0.4317  1.0448
  189POPC   H6S21772   0.961   0.410   9.947  1.8842 -1.6901  1.5191
  189POPC   C2721773   0.756   0.380   9.842  0.2643  0.3449 -0.3947
  189POPC   H7R21774   0.660   0.338   9.881  1.8531 -2.6451  0.4592
  189POPC   H7S21775   0.776   0.322   9.749  2.4946  0.9493 -0.3103
  189POPC   C2821776   0.739   0.525   9.799 -0.2050  0.2065 -0.3072
  189POPC   H8R21777   0.709   0.591   9.884  1.3002  0.0381  0.3701
  189POPC   H8S21778   0.668   0.524   9.713  1.1870 -0.2254 -1.4575
  189POPC   C2921779   0.867   0.581   9.735  0.0372  0.3563  0.1658
  189POPC   H9121780   0.937   0.621   9.811  0.0271 -2.1573  1.5639
  189POPC  C21021781   0.905   0.586   9.606 -0.6551  0.6111 -0.0224
  189POPC  H10121782   1.003   0.627   9.578 -0.9449  1.4199  0.1339
  189POPC  C21121783   0.818   0.532   9.500  0.3917  0.3086  0.4315
  189POPC  H11R21784   0.839   0.605   9.419 -0.0779 -0.1417 -0.0922
  189POPC  H11S21785   0.708   0.535   9.515  0.3425 -2.0958  0.7239
  189POPC  C21221786   0.861   0.388   9.470 -0.4170 -1.0515 -0.2357
  189POPC  H12R21787   0.851   0.320   9.557  0.2120 -3.9693 -2.3551
  189POPC  H12S21788   0.969   0.381   9.448  0.8523 -1.0488  5.3135
  189POPC  C21321789   0.778   0.320   9.359  0.1730  0.7285  0.4679
  189POPC  H13R21790   0.672   0.308   9.389  0.4345 -1.0166  0.7057
  189POPC  H13S21791   0.822   0.218   9.353  0.1315  0.8115 -1.4374
  189POPC  C21421792   0.783   0.395   9.232 -0.2507 -0.5255  0.2106
  189POPC  H14R21793   0.887   0.425   9.209 -0.3208  0.1904  0.8199
  189POPC  H14S21794   0.729   0.491   9.243 -2.1368 -1.4101 -0.8913
  189POPC  C21521795   0.749   0.301   9.115  0.1593  0.1933  0.3785
  189POPC  H15R21796   0.644   0.268   9.123  0.1345  0.3930  0.9048
  189POPC  H15S21797   0.812   0.210   9.127 -0.8493 -1.0552 -3.2248
  189POPC  C21621798   0.783   0.365   8.982  0.0874  0.7446 -0.2941
  189POPC  H16R21799   0.894   0.373   8.973  0.0724 -0.0188 -1.1827
  189POPC  H16S21800   0.752   0.472   8.984 -1.7227  0.2142  1.1688
  189POPC  C21721801   0.714   0.301   8.864 -0.0349 -0.2352  0.0284
  189POPC  H17R21802   0.731   0.357   8.770 -1.0786 -0.3478 -0.2319
  189POPC  H17S21803   0.605   0.294   8.881  0.1133  0.3237  1.2524
  189POPC  C21821804   0.775   0.168   8.838  0.4905 -0.4232  0.1390
  189POPC  H18R21805   0.736   0.125   8.744 -2.3117 -0.5669  1.3257
  189POPC  H18S21806   0.746   0.109   8.928  0.4052 -0.1622  0.2833
  189POPC  H18T21807   0.885   0.175   8.828  0.6568  0.1007  2.1089
  189POPC   C3321808   1.306   0.562  10.018 -0.1412  0.7199  0.1962
  189POPC   H3X21809   1.376   0.477  10.034 -2.1163 -1.3546 -1.8285
  189POPC   H3Y21810   1.361   0.655   9.994  2.4278 -1.1448 -1.4891
  189POPC   C3421811   1.245   0.521   9.886  0.1972  0.0316  0.0446
  189POPC   H4X21812   1.181   0.602   9.845 -0.9844 -0.1379  1.5108
  189POPC   H4Y21813   1.174   0.436   9.900  1.5090 -0.8869  1.2366
  189POPC   C3521814   1.340   0.476   9.768  0.4151 -0.1716 -0.1699
  189POPC   H5X21815   1.393   0.384   9.801 -0.4404 -0.5912  0.0421
  189POPC   H5Y21816   1.418   0.552   9.744  0.2822  0.2061  0.5720
  189POPC   C3621817   1.264   0.453   9.631  0.4682 -0.1024 -0.0656
  189POPC   H6X21818   1.194   0.539   9.622 -0.8089 -1.2127 -0.8691
  189POPC   H6Y21819   1.202   0.364   9.654 -0.5593  0.5572 -0.2487
  189POPC   C3721820   1.349   0.426   9.503 -0.2832 -0.4169  0.3164
  189POPC   H7X21821   1.435   0.359   9.523  0.5154 -0.1478 -2.1124
  189POPC   H7Y21822   1.386   0.523   9.464 -1.6497  0.6512  1.6276
  189POPC   C3821823   1.271   0.364   9.391  0.1532  0.2746  1.1615
  189POPC   H8X21824   1.339   0.372   9.303  0.5248 -0.7082  1.3515
  189POPC   H8Y21825   1.188   0.429   9.359  1.4295  0.8893 -1.0139
  189POPC   C3921826   1.231   0.218   9.410  0.3753 -0.0925  0.0552
  189POPC   H9X21827   1.183   0.202   9.509 -0.3380 -1.0037 -0.4269
  189POPC   H9Y21828   1.320   0.152   9.409 -1.9169 -3.3202 -0.8205
  189POPC  C31021829   1.139   0.154   9.297  0.2356 -0.6702  0.7273
  189POPC  H10X21830   1.058   0.223   9.264  1.7465  0.3485 -0.9171
  189POPC  H10Y21831   1.103   0.053   9.324  0.0835 -0.8718 -0.2107
  189POPC  C31121832   1.231   0.122   9.174 -0.2274 -0.5755 -0.1190
  189POPC  H11X21833   1.293   0.034   9.202  0.1586 -0.0649  0.6725
  189POPC  H11Y21834   1.299   0.205   9.143 -0.7435 -0.2947 -0.5025
  189POPC  C31221835   1.144   0.085   9.054  0.3732  0.3715  0.2431
  189POPC  H12X21836   1.096   0.175   9.009  0.3728  0.5560  0.6119
  189POPC  H12Y21837   1.067   0.017   9.095  0.2321 -0.2485 -1.0146
  189POPC  C31321838   1.211   0.008   8.942 -0.3744 -0.2841  0.5948
  189POPC  H13X21839   1.269  -0.080   8.977 -0.0440  0.3701  1.7055
  189POPC  H13Y21840   1.286   0.081   8.904 -1.8604  0.5694 -0.7528
  189POPC  C31421841   1.130  -0.039   8.825 -0.4844  0.2432 -0.3214
  189POPC  H14X21842   1.066   0.043   8.785  0.9636  0.3228 -2.5511
  189POPC  H14Y21843   1.057  -0.103   8.880 -1.2715  0.9764 -0.4998
  189POPC  C31521844   1.208  -0.112   8.716 -0.0205 -0.1772 -0.7851
  189POPC  H15X21845   1.277  -0.034   8.676 -0.8111  1.0387  0.1900
  189POPC  H15Y21846   1.134  -0.140   8.638  1.1417 -1.6159 -1.4096
  189POPC  C31621847   1.297  -0.232   8.759 -0.6157 -0.4285 -0.1000
  189POPC  H16X21848   1.343  -0.281   8.671 -1.0423 -0.1442 -0.4858
  189POPC  H16Y21849   1.233  -0.307   8.811  0.3400  0.4454  2.4387
  189POPC  H16Z21850   1.384  -0.208   8.825 -1.4985  1.6284  0.3533
  190POPC     N21851   3.715   5.260  11.176 -0.0082 -0.1236  0.2686
  190POPC   C1221852   3.570   5.270  11.120  0.0201 -0.8390  0.7917
  190POPC  H12A21853   3.571   5.327  11.028 -1.6420 -0.2237  1.1251
  190POPC  H12B21854   3.515   5.338  11.184  0.3843  0.9514 -0.7486
  190POPC   C1321855   3.799   5.208  11.061 -0.2979 -0.3178  0.0404
  190POPC  H13A21856   3.738   5.140  11.003 -0.6956  1.6159 -1.8995
  190POPC  H13B21857   3.833   5.287  10.996  4.2430 -2.2656 -0.1232
  190POPC  H13C21858   3.885   5.153  11.095  0.2683 -2.4489 -4.4553
  190POPC   C1421859   3.760   5.392  11.230 -0.1719 -0.7821  0.5402
  190POPC  H14A21860   3.857   5.382  11.277 -0.1630 -0.6625  0.5454
  190POPC  H14B21861   3.758   5.467  11.153  0.4060  0.8968  2.1155
  190POPC  H14C21862   3.704   5.428  11.315  0.5052  2.7290 -0.4361
  190POPC   C1521863   3.717   5.162  11.293 -0.4433 -0.3389 -0.1145
  190POPC  H15A21864   3.645   5.183  11.371  0.5664 -0.3963  0.8422
  190POPC  H15B21865   3.811   5.140  11.340 -1.3893 -0.2185  1.9235
  190POPC  H15C21866   3.690   5.065  11.256  3.7669 -1.5480 -0.2233
  190POPC   C1121867   3.478   5.142  11.091 -0.0113  0.6731 -0.1768
  190POPC  H11A21868   3.376   5.169  11.058 -0.0235 -1.5457 -2.0203
  190POPC  H11B21869   3.461   5.094  11.190  1.6392 -0.7268 -0.5489
  190POPC     P21870   3.510   5.067  10.849 -0.0830 -0.6423  0.0343
  190POPC   O1321871   3.572   4.958  10.781 -0.0805 -0.2348  0.2580
  190POPC   O1421872   3.550   5.200  10.810  0.1306 -0.2311 -0.5754
  190POPC   O1221873   3.540   5.050  10.998 -0.3818  0.2925 -0.2608
  190POPC   O1121874   3.359   5.058  10.842 -0.5883 -0.6706  0.3448
  190POPC    C121875   3.268   4.964  10.899  0.0564 -0.2822  0.7736
  190POPC    HA21876   3.164   4.999  10.881 -0.1829 -0.3341  2.0284
  190POPC    HB21877   3.280   4.960  11.010 -0.2059 -3.1023  0.7501
  190POPC    C221878   3.272   4.822  10.841 -0.0130 -0.2084 -0.2811
  190POPC    HS21879   3.374   4.783  10.864 -0.5641 -1.0698  0.7699
  190POPC   O2121880   3.234   4.838  10.703 -0.0965 -0.5695 -0.8757
  190POPC   C2121881   3.290   4.747  10.628  0.0106 -1.1293  0.5523
  190POPC   O2221882   3.359   4.657  10.670  0.5274  0.1872  0.5153
  190POPC   C2221883   3.243   4.764  10.483 -0.3605  0.1900  0.3832
  190POPC   H2R21884   3.262   4.868  10.450 -2.3679  0.0891 -1.2240
  190POPC   H2S21885   3.132   4.758  10.483 -0.4275  0.7539  2.4932
  190POPC    C321886   3.174   4.727  10.914 -0.1395 -0.5517  0.1058
  190POPC    HX21887   3.069   4.758  10.898  0.5135  0.6436 -2.1019
  190POPC    HY21888   3.174   4.735  11.025 -0.0454  1.5484 -0.0351
  190POPC   O3121889   3.191   4.593  10.875  0.5346 -0.1176  0.6739
  190POPC   C3121890   3.277   4.520  10.939  0.4632 -0.2598  0.4337
  190POPC   O3221891   3.337   4.556  11.038  0.3279 -0.2941  0.8276
  190POPC   C3221892   3.262   4.371  10.895  0.1552  0.0391  0.1218
  190POPC   H2X21893   3.164   4.330  10.926  0.8689  0.2123  2.6990
  190POPC   H2Y21894   3.341   4.313  10.948 -0.7592 -1.7078 -0.3674
  190POPC   C2321895   3.308   4.659  10.380  0.5046 -0.4299  0.6818
  190POPC   H3R21896   3.252   4.564  10.397  0.1526 -0.6390 -1.4486
  190POPC   H3S21897   3.415   4.658  10.412  0.0627 -1.8280  2.1947
  190POPC   C2421898   3.302   4.699  10.232 -0.3790 -0.2666  0.2268
  190POPC   H4R21899   3.362   4.792  10.221 -0.0147 -0.5948 -0.5919
  190POPC   H4S21900   3.196   4.707  10.200 -0.7847  0.1777  1.6208
  190POPC   C2521901   3.366   4.587  10.152  0.8819  0.4016  0.1283
  190POPC   H5R21902   3.356   4.489  10.204 -1.3035  1.1144  1.0909
  190POPC   H5S21903   3.477   4.598  10.145  1.0081  0.1611  1.7075
  190POPC   C2621904   3.318   4.564  10.010  0.1774 -0.0953 -0.1765
  190POPC   H6R21905   3.321   4.661   9.957  2.9862 -1.3690 -2.5066
  190POPC   H6S21906   3.218   4.515  10.017 -0.3111  0.7617 -1.0309
  190POPC   C2721907   3.420   4.483   9.929  0.4935  0.4788 -0.0185
  190POPC   H7R21908   3.440   4.382   9.972  0.2145  0.6829  0.5931
  190POPC   H7S21909   3.518   4.534   9.928 -0.0916  1.6282  0.6995
  190POPC   C2821910   3.378   4.463   9.781 -0.4287  0.8580  1.5124
  190POPC   H8R21911   3.459   4.408   9.728 -2.1446 -0.9943  0.7231
  190POPC   H8S21912   3.372   4.560   9.728  0.8085  0.9605  1.5540
  190POPC   C2921913   3.250   4.392   9.764 -0.4967  0.0558  1.0979
  190POPC   H9121914   3.167   4.406   9.835 -0.3183 -1.2707  1.5776
  190POPC  C21021915   3.232   4.317   9.650  0.1125  0.2343 -0.5764
  190POPC  H10121916   3.132   4.272   9.641 -0.3064  1.3418 -1.7119
  190POPC  C21121917   3.326   4.300   9.533 -0.1147  0.3188  0.0381
  190POPC  H11R21918   3.413   4.235   9.557 -2.6710 -2.8952  1.0252
  190POPC  H11S21919   3.358   4.401   9.499  0.4950 -0.6072 -2.2843
  190POPC  C21221920   3.270   4.218   9.417  0.0679  0.7222 -0.5605
  190POPC  H12R21921   3.174   4.262   9.385 -0.4909 -1.0250 -1.3674
  190POPC  H12S21922   3.252   4.115   9.454  0.8905  0.3574 -1.1395
  190POPC  C21321923   3.368   4.206   9.299 -0.6403  0.1705 -0.2151
  190POPC  H13R21924   3.461   4.162   9.341 -1.1687  0.0959  0.9199
  190POPC  H13S21925   3.385   4.308   9.258  1.9209 -1.0239 -2.2168
  190POPC  C21421926   3.319   4.109   9.185  0.0447  0.2540 -0.2628
  190POPC  H14R21927   3.302   4.008   9.228  0.6982  0.1569 -0.2142
  190POPC  H14S21928   3.417   4.106   9.132 -0.5060 -3.0655 -1.1855
  190POPC  C21521929   3.198   4.166   9.116  0.0718  0.2202  0.5378
  190POPC  H15R21930   3.229   4.269   9.088 -2.8756  0.2662 -2.9358
  190POPC  H15S21931   3.115   4.178   9.189  0.5323 -1.7483  1.4188
  190POPC  C21621932   3.150   4.101   8.984 -0.3490  0.2811  0.1891
  190POPC  H16R21933   3.041   4.110   8.962 -0.0948  3.3191  0.0780
  190POPC  H16S21934   3.169   3.991   8.993  1.1798  0.3968 -1.3444
  190POPC  C21721935   3.217   4.150   8.854  0.3630 -0.2517  0.3985
  190POPC  H17R21936   3.325   4.125   8.866 -0.0610 -2.3127  0.1991
  190POPC  H17S21937   3.203   4.259   8.842 -0.5453 -0.5983 -1.7919
  190POPC  C21821938   3.156   4.094   8.724  0.0362 -0.0809  0.6542
  190POPC  H18R21939   3.166   3.984   8.717 -0.3864 -0.0935  0.2705
  190POPC  H18S21940   3.197   4.145   8.634  0.1353 -0.5149  0.4524
  190POPC  H18T21941   3.048   4.114   8.713  0.2227 -0.5304 -2.6468
  190POPC   C3321942   3.264   4.346  10.744 -0.1329 -1.1190  0.0661
  190POPC   H3X21943   3.239   4.439  10.688  1.8179  0.8293  2.3048
  190POPC   H3Y21944   3.183   4.278  10.712 -1.5427 -0.1277  1.4371
  190POPC   C3421945   3.398   4.301  10.689 -0.0556 -0.2450 -0.2724
  190POPC   H4X21946   3.409   4.191  10.706  0.4539 -0.1984 -0.2679
  190POPC   H4Y21947   3.482   4.340  10.751  0.1943 -2.1772  0.6478
  190POPC   C3521948   3.430   4.321  10.540 -0.0179 -0.0776 -0.6509
  190POPC   H5X21949   3.476   4.422  10.536  1.1327 -0.3564  3.1325
  190POPC   H5Y21950   3.335   4.334  10.485  1.2984 -0.0846 -3.0005
  190POPC   C3621951   3.524   4.212  10.478 -0.9721 -0.1267  0.3193
  190POPC   H6X21952   3.484   4.113  10.511  1.8554 -0.8119  1.8744
  190POPC   H6Y21953   3.628   4.216  10.518 -0.6937  2.3479 -0.6039
  190POPC   C3721954   3.532   4.223  10.328 -0.0682 -0.0002  0.3279
  190POPC   H7X21955   3.570   4.321  10.294 -0.9770  0.7591  1.4792
  190POPC   H7Y21956   3.425   4.228  10.297 -0.1541 -0.2514  0.5827
  190POPC   C3821957   3.612   4.119  10.253 -0.4338 -0.2851 -0.6028
  190POPC   H8X21958   3.579   4.022  10.297  1.4365  0.0492  1.6542
  190POPC   H8Y21959   3.719   4.133  10.279 -0.5434  3.4378 -1.8745
  190POPC   C3921960   3.606   4.116  10.097 -0.2278  0.1376 -0.0810
  190POPC   H9X21961   3.692   4.053  10.065 -1.0054 -1.9918  1.8993
  190POPC   H9Y21962   3.622   4.220  10.062  1.9890 -0.2953 -0.4630
  190POPC  C31021963   3.473   4.067  10.028 -0.2869  0.2843 -0.3219
  190POPC  H10X21964   3.383   4.121  10.063 -0.4517  0.0540 -0.3853
  190POPC  H10Y21965   3.465   3.968  10.079  0.1356 -0.1543 -1.1031
  190POPC  C31121966   3.469   4.072   9.872 -0.0363 -0.4647 -0.1172
  190POPC  H11X21967   3.481   4.177   9.838 -0.9994 -0.5485 -0.7548
  190POPC  H11Y21968   3.379   4.024   9.828 -0.0826  0.4463 -1.0431
  190POPC  C31221969   3.584   3.995   9.815  1.3054  0.0058 -0.4217
  190POPC  H12X21970   3.584   3.887   9.844  3.6840  0.0224 -0.2627
  190POPC  H12Y21971   3.684   4.028   9.850  1.3133  0.6764 -1.0735
  190POPC  C31321972   3.602   4.010   9.661  0.4549 -0.2967 -0.3771
  190POPC  H13X21973   3.627   4.117   9.646  0.7230  0.0176  2.2079
  190POPC  H13Y21974   3.510   3.991   9.602 -0.3795 -1.4407  1.2590
  190POPC  C31421975   3.714   3.921   9.609  0.1029  0.7505 -0.5343
  190POPC  H14X21976   3.668   3.823   9.634 -0.8843  0.9907 -1.3652
  190POPC  H14Y21977   3.809   3.945   9.662 -0.1443  2.5769 -0.8785
  190POPC  C31521978   3.730   3.921   9.456  0.0211  0.1685  0.0314
  190POPC  H15X21979   3.633   3.895   9.410 -2.6372  3.9522  3.2379
  190POPC  H15Y21980   3.799   3.837   9.429  1.2202  0.7701  1.1265
  190POPC  C31621981   3.790   4.049   9.413 -0.1293 -0.5396  0.1205
  190POPC  H16X21982   3.870   4.076   9.485 -0.2454 -0.8352  0.3583
  190POPC  H16Y21983   3.709   4.124   9.423  0.7855  0.6212 -1.1257
  190POPC  H16Z21984   3.840   4.041   9.314  2.9709 -1.8248  1.6954
  191POPC     N21985   3.348   5.345   6.398 -0.4285  0.0057  0.1206
  191POPC   C1221986   3.487   5.315   6.343  0.9476  0.0238 -0.0005
  191POPC  H12A21987   3.511   5.402   6.285 -1.4890  2.0989  1.9975
  191POPC  H12B21988   3.478   5.236   6.269  0.0296 -1.7140  1.9075
  191POPC   C1321989   3.298   5.241   6.490 -0.7095 -0.4862  0.2967
  191POPC  H13A21990   3.193   5.218   6.474 -0.6305 -0.6566  0.0318
  191POPC  H13B21991   3.333   5.139   6.480 -1.1437 -0.4750 -1.6017
  191POPC  H13C21992   3.309   5.275   6.592  1.0218  2.3706 -0.7871
  191POPC   C1421993   3.343   5.473   6.474  0.6777 -0.5357 -0.0967
  191POPC  H14A21994   3.362   5.557   6.409  0.7292 -0.7512 -0.3620
  191POPC  H14B21995   3.247   5.503   6.514  0.0339 -0.6745 -1.5157
  191POPC  H14C21996   3.417   5.472   6.552 -1.1747 -1.1647  1.7017
  191POPC   C1521997   3.252   5.359   6.281  0.4613 -0.4763  0.3756
  191POPC  H15A21998   3.255   5.452   6.227  0.7926  0.5908  2.1988
  191POPC  H15B21999   3.156   5.363   6.329 -0.2858 -3.4410 -0.7798
  191POPC  H15C22000   3.248   5.274   6.215 -1.7990 -0.0356 -0.0909
  191POPC   C1122001   3.603   5.293   6.441  0.4409 -0.5037 -0.5338
  191POPC  H11A22002   3.564   5.208   6.501 -0.9286  0.7734  0.4470
  191POPC  H11B22003   3.618   5.381   6.508  1.0691  0.0585 -1.4061
  191POPC     P22004   3.801   5.365   6.287 -0.2859 -0.0747 -0.0332
  191POPC   O1322005   3.735   5.496   6.288 -0.3037  0.0669  0.4753
  191POPC   O1422006   3.827   5.300   6.161  0.9505  0.1003 -0.0456
  191POPC   O1222007   3.725   5.264   6.375  0.1069  0.3711  0.2055
  191POPC   O1122008   3.941   5.362   6.365 -0.3912 -0.4851  0.5317
  191POPC    C122009   3.995   5.252   6.443 -0.3556 -0.4138 -0.1297
  191POPC    HA22010   4.105   5.265   6.435 -0.3327 -0.4952  0.0509
  191POPC    HB22011   3.991   5.157   6.386  2.0659 -1.3629  1.2235
  191POPC    C222012   3.945   5.250   6.587  0.3674  0.3740 -0.0552
  191POPC    HS22013   3.840   5.213   6.583  0.1586  0.8266  0.9726
  191POPC   O2122014   3.946   5.379   6.649  0.4744  0.0403 -0.2683
  191POPC   C2122015   3.851   5.402   6.734 -0.1827  0.1100  0.2446
  191POPC   O2222016   3.752   5.340   6.748  0.7234  0.5814 -0.5773
  191POPC   C2222017   3.893   5.521   6.817 -0.3087  0.1180 -0.2805
  191POPC   H2R22018   3.858   5.616   6.771 -0.2881  1.0457  1.5718
  191POPC   H2S22019   4.002   5.504   6.827 -0.4197 -0.9496 -0.7319
  191POPC    C322020   4.033   5.154   6.671  0.0354 -0.0994 -0.0102
  191POPC    HX22021   4.138   5.190   6.672  0.1842 -0.5461  1.7659
  191POPC    HY22022   4.038   5.053   6.626  0.8308  0.6527 -1.6719
  191POPC   O3122023   4.011   5.155   6.812 -0.4886 -0.0014 -0.6733
  191POPC   C3122024   3.916   5.074   6.859  0.4119  0.6771  0.2422
  191POPC   O3222025   3.848   5.007   6.785  0.0778 -0.0869  0.7485
  191POPC   C3222026   3.912   5.072   7.012 -0.0050  0.1246 -0.0806
  191POPC   H2X22027   3.971   5.156   7.054 -1.7233  2.6581 -2.5450
  191POPC   H2Y22028   3.948   4.973   7.048 -0.6918 -0.5279 -1.1659
  191POPC   C2322029   3.842   5.513   6.959  0.1766  0.4895  0.4032
  191POPC   H3R22030   3.896   5.574   7.035  0.0146  0.4250  0.5695
  191POPC   H3S22031   3.854   5.410   7.001 -1.9402  0.6275  1.3951
  191POPC   C2422032   3.699   5.556   6.975  0.7894  0.2764  0.4643
  191POPC   H4R22033   3.633   5.511   6.898  0.6122  1.8717 -0.3332
  191POPC   H4S22034   3.686   5.666   6.970  0.6508  0.2301 -0.2544
  191POPC   C2522035   3.630   5.528   7.113 -0.2644 -0.5774 -0.0266
  191POPC   H5R22036   3.621   5.417   7.114  1.5233 -0.7564 -1.2654
  191POPC   H5S22037   3.524   5.559   7.122 -0.1215 -0.6826  2.2192
  191POPC   C2622038   3.717   5.556   7.237  0.1774  0.0912  0.0936
  191POPC   H6R22039   3.740   5.665   7.241 -1.9125  0.5710 -0.7293
  191POPC   H6S22040   3.811   5.498   7.225 -0.1662 -1.0323  2.5418
  191POPC   C2722041   3.657   5.526   7.376  0.2960 -0.1255  0.4038
  191POPC   H7R22042   3.732   5.536   7.456  0.8852  2.7694 -0.4528
  191POPC   H7S22043   3.625   5.420   7.367  1.6290 -0.6911  2.1181
  191POPC   C2822044   3.531   5.613   7.419  0.6096 -0.2420 -0.1938
  191POPC   H8R22045   3.477   5.574   7.508  1.3354  0.8076  0.7292
  191POPC   H8S22046   3.468   5.607   7.328  0.9717 -1.3691 -0.3673
  191POPC   C2922047   3.587   5.750   7.453  0.0482 -0.2692 -0.0735
  191POPC   H9122048   3.598   5.829   7.377  1.0765 -0.1185  0.2185
  191POPC  C21022049   3.635   5.790   7.576 -0.1932  0.2609 -0.2203
  191POPC  H10122050   3.671   5.894   7.586  0.9828 -0.2497  1.0746
  191POPC  C21122051   3.633   5.709   7.703  0.3067  0.1873 -0.1732
  191POPC  H11R22052   3.568   5.619   7.696  2.0493 -1.2193  0.8640
  191POPC  H11S22053   3.580   5.778   7.771  0.9461  0.3250  0.1979
  191POPC  C21222054   3.775   5.691   7.759  0.6864 -0.1345 -0.3933
  191POPC  H12R22055   3.835   5.784   7.759 -1.9266  1.6032 -1.8520
  191POPC  H12S22056   3.822   5.621   7.686 -1.0949 -1.2679 -0.4875
  191POPC  C21322057   3.784   5.631   7.902 -0.9601  0.4341 -0.2874
  191POPC  H13R22058   3.881   5.578   7.914 -2.1224 -1.5674  0.6709
  191POPC  H13S22059   3.702   5.561   7.930 -0.4989  1.0274  2.6795
  191POPC  C21422060   3.776   5.737   8.004  0.1182 -0.5212  0.1009
  191POPC  H14R22061   3.685   5.798   7.984 -0.2828 -1.2253 -0.2434
  191POPC  H14S22062   3.865   5.804   8.008  0.9239 -1.4456 -1.8063
  191POPC  C21522063   3.740   5.679   8.145 -0.5092  0.0136  0.3741
  191POPC  H15R22064   3.786   5.581   8.170 -0.5324  0.2137  1.2265
  191POPC  H15S22065   3.631   5.656   8.138 -0.5258 -0.1929  1.2534
  191POPC  C21622066   3.760   5.776   8.259 -0.2881  0.2640 -0.8873
  191POPC  H16R22067   3.686   5.859   8.250 -0.8697 -0.0515  0.9244
  191POPC  H16S22068   3.860   5.824   8.244  0.1642 -0.8412 -1.4606
  191POPC  C21722069   3.769   5.704   8.390  0.7306 -0.6675 -0.0409
  191POPC  H17R22070   3.875   5.674   8.400  1.6526  2.5796  0.6892
  191POPC  H17S22071   3.700   5.617   8.388  0.7618 -0.6866 -0.3544
  191POPC  C21822072   3.734   5.812   8.497 -0.0123 -0.2084  0.2976
  191POPC  H18R22073   3.806   5.896   8.488  1.1917 -1.3385 -0.8152
  191POPC  H18S22074   3.735   5.764   8.598  1.2698 -3.4135 -1.1754
  191POPC  H18T22075   3.634   5.854   8.474  0.1526 -0.8016 -1.5799
  191POPC   C3322076   3.761   5.079   7.084 -0.1530 -0.0336  0.5659
  191POPC   H3X22077   3.688   5.014   7.032 -1.0258  1.3533  0.0323
  191POPC   H3Y22078   3.719   5.180   7.065  0.3000 -0.1208 -0.9438
  191POPC   C3422079   3.751   5.048   7.234 -0.6634  0.2123  0.4133
  191POPC   H4X22080   3.783   4.941   7.237 -1.4227 -0.1374 -2.2902
  191POPC   H4Y22081   3.651   5.046   7.281 -0.4101  0.2812  0.9584
  191POPC   C3522082   3.840   5.140   7.320  0.2229 -0.5267 -0.0535
  191POPC   H5X22083   3.825   5.246   7.290  0.3258 -0.5661 -0.2437
  191POPC   H5Y22084   3.944   5.103   7.311  0.8473  0.9442  0.8555
  191POPC   C3622085   3.813   5.120   7.471 -0.7990 -0.0470 -0.0747
  191POPC   H6X22086   3.841   5.014   7.493  3.9422  0.6808 -1.8718
  191POPC   H6Y22087   3.705   5.139   7.485 -0.9345 -2.1936  2.0193
  191POPC   C3722088   3.895   5.202   7.574 -0.8319 -0.2942 -0.9166
  191POPC   H7X22089   3.901   5.308   7.542  1.1639  0.2698  1.1581
  191POPC   H7Y22090   3.998   5.159   7.571 -0.3002  0.8660 -0.0093
  191POPC   C3822091   3.839   5.185   7.712  0.3703 -0.2667 -0.2918
  191POPC   H8X22092   3.848   5.079   7.745  0.4879  0.0899  0.8773
  191POPC   H8Y22093   3.731   5.207   7.698  0.2286 -1.5276 -1.2526
  191POPC   C3922094   3.900   5.289   7.812 -0.2344  0.2087  0.4958
  191POPC   H9X22095   3.854   5.296   7.914  3.7698 -0.0716  2.4106
  191POPC   H9Y22096   3.888   5.395   7.780 -1.2612  0.5397  1.8777
  191POPC  C31022097   4.051   5.261   7.829 -0.5278 -0.8576 -0.0809
  191POPC  H10X22098   4.103   5.283   7.733 -1.4388 -1.6177 -0.7566
  191POPC  H10Y22099   4.078   5.158   7.862  0.3695 -0.5690  0.0921
  191POPC  C31122100   4.104   5.350   7.941 -0.4680  0.4414  0.4395
  191POPC  H11X22101   4.078   5.294   8.033  3.1903 -3.7070 -0.9265
  191POPC  H11Y22102   4.053   5.450   7.938  0.0850  0.6774 -3.2986
  191POPC  C31222103   4.253   5.362   7.945  0.1339 -0.3438 -0.6406
  191POPC  H12X22104   4.296   5.438   7.877  2.5398 -3.2385 -2.4699
  191POPC  H12Y22105   4.296   5.265   7.914  0.5195 -0.0195 -1.1325
  191POPC  C31322106   4.309   5.379   8.087 -0.0454 -0.0003  0.2003
  191POPC  H13X22107   4.246   5.458   8.134 -1.6134 -0.2969 -1.3216
  191POPC  H13Y22108   4.411   5.422   8.079  0.7266 -1.5278  1.6055
  191POPC  C31422109   4.298   5.244   8.170 -0.6722 -0.3827  0.1589
  191POPC  H14X22110   4.357   5.170   8.112 -1.7756 -2.4196  1.5767
  191POPC  H14Y22111   4.195   5.207   8.187 -0.3927 -1.9660 -1.3871
  191POPC  C31522112   4.369   5.257   8.309 -0.1940  0.1942  0.1414
  191POPC  H15X22113   4.315   5.337   8.364  1.3942  2.4273 -1.4424
  191POPC  H15Y22114   4.474   5.290   8.296  0.0513  0.2258  2.1510
  191POPC  C31622115   4.370   5.124   8.395  0.3113  0.5902 -0.0031
  191POPC  H16X22116   4.407   5.045   8.326  0.6467  1.1965 -0.5172
  191POPC  H16Y22117   4.270   5.093   8.432  0.3646 -0.4724 -0.7241
  191POPC  H16Z22118   4.432   5.138   8.487 -0.2635  1.9669  0.1876
  192POPC     N22119   1.656   1.619   6.190  0.3180 -0.0396  0.0196
  192POPC   C1222120   1.663   1.601   6.340  0.2277 -0.2635 -0.1139
  192POPC  H12A22121   1.593   1.524   6.367 -2.1547  1.3421 -1.5867
  192POPC  H12B22122   1.640   1.691   6.394  1.3081  0.7542 -1.3130
  192POPC   C1322123   1.730   1.743   6.148  0.4982  0.1657  0.3838
  192POPC  H13A22124   1.831   1.741   6.186  0.2914 -1.9651  0.9345
  192POPC  H13B22125   1.735   1.750   6.041 -0.3051  2.0955  0.4549
  192POPC  H13C22126   1.685   1.835   6.180 -1.4400 -0.7776  0.4525
  192POPC   C1422127   1.705   1.501   6.113 -0.3351 -0.0296 -0.0276
  192POPC  H14A22128   1.809   1.501   6.145 -0.9441  1.8816  2.1360
  192POPC  H14B22129   1.663   1.410   6.154 -0.4906  1.5406  3.4428
  192POPC  H14C22130   1.691   1.504   6.006 -0.5812 -1.2771 -0.0401
  192POPC   C1522131   1.509   1.639   6.153  0.8970  1.1822  0.0089
  192POPC  H15A22132   1.490   1.670   6.051 -3.3967 -0.8618  0.0694
  192POPC  H15B22133   1.460   1.712   6.217  0.0899 -0.0720  0.8350
  192POPC  H15C22134   1.454   1.547   6.169  3.6009 -0.0744  2.5826
  192POPC   C1122135   1.798   1.546   6.393 -0.5181 -0.1738  0.6564
  192POPC  H11A22136   1.800   1.440   6.361 -1.1181  0.0463 -0.1021
  192POPC  H11B22137   1.795   1.547   6.505  0.9775 -0.2859  0.7135
  192POPC     P22138   2.037   1.568   6.287  0.3839 -0.2733  0.0976
  192POPC   O1322139   2.103   1.675   6.207 -0.2142  0.2526 -0.2311
  192POPC   O1422140   2.006   1.441   6.222 -0.5282 -0.0835 -0.0354
  192POPC   O1222141   1.901   1.626   6.347 -0.4059 -0.1651 -0.5088
  192POPC   O1122142   2.126   1.533   6.418 -0.2034  0.1629  0.1054
  192POPC    C122143   2.198   1.641   6.483 -0.3647 -0.0865  0.1614
  192POPC    HA22144   2.151   1.742   6.485  0.7106  0.4098  1.3186
  192POPC    HB22145   2.298   1.655   6.436 -0.8414 -0.1348 -0.8820
  192POPC    C222146   2.242   1.614   6.629 -0.2210  0.0733  0.1421
  192POPC    HS22147   2.300   1.700   6.669 -3.2144  2.6867 -0.9178
  192POPC   O2122148   2.304   1.483   6.639  0.1757  0.1261  0.3165
  192POPC   C2122149   2.418   1.469   6.583  0.0932 -0.3976  0.1957
  192POPC   O2222150   2.491   1.559   6.538 -0.8156 -0.5923 -0.4218
  192POPC   C2222151   2.456   1.320   6.588  0.6406  0.3458 -0.0329
  192POPC   H2R22152   2.508   1.302   6.491 -0.2543  0.1329 -0.4771
  192POPC   H2S22153   2.364   1.258   6.588  0.8985 -0.0487  1.8236
  192POPC    C322154   2.111   1.595   6.713 -0.1339 -0.5577 -0.3012
  192POPC    HX22155   2.070   1.492   6.703 -0.3236 -0.5716  0.5538
  192POPC    HY22156   2.042   1.669   6.668  1.6702  0.6851 -1.0474
  192POPC   O3122157   2.130   1.647   6.849 -0.1813 -0.0204 -0.0980
  192POPC   C3122158   2.145   1.557   6.950 -0.3670 -0.4208  0.1104
  192POPC   O3222159   2.174   1.440   6.935 -0.0292 -0.1577 -0.5378
  192POPC   C3222160   2.138   1.628   7.084 -0.5740 -0.3197  0.1543
  192POPC   H2X22161   2.041   1.680   7.069 -0.8684 -1.5906 -2.8504
  192POPC   H2Y22162   2.224   1.697   7.094 -0.6719  0.0776 -1.5868
  192POPC   C2322163   2.551   1.282   6.704  0.0336 -0.7100 -0.0739
  192POPC   H3R22164   2.634   1.352   6.726 -0.2237 -0.3440 -0.2710
  192POPC   H3S22165   2.604   1.191   6.668 -2.6349 -1.7111 -1.6561
  192POPC   C2422166   2.481   1.244   6.828 -0.4245 -0.4741  0.9809
  192POPC   H4R22167   2.405   1.165   6.811 -1.1425  0.1661  1.1814
  192POPC   H4S22168   2.429   1.335   6.864 -0.8476 -0.2932 -0.0498
  192POPC   C2522169   2.574   1.192   6.936  0.7452 -0.5509 -0.3044
  192POPC   H5R22170   2.658   1.263   6.953  0.2579 -0.7393  3.3232
  192POPC   H5S22171   2.625   1.100   6.900  0.2879 -2.0913  2.8153
  192POPC   C2622172   2.500   1.167   7.073  0.5022 -0.0923 -0.1624
  192POPC   H6R22173   2.562   1.088   7.120  0.3944 -1.4125 -2.1514
  192POPC   H6S22174   2.409   1.108   7.047  1.0814 -0.5537 -1.1791
  192POPC   C2722175   2.465   1.291   7.162  0.3659  0.0525 -0.3782
  192POPC   H7R22176   2.386   1.348   7.108  2.0673  1.7733 -1.1352
  192POPC   H7S22177   2.557   1.352   7.174 -0.2504  0.5320  2.1031
  192POPC   C2822178   2.412   1.258   7.301  0.0278  0.6723  0.2129
  192POPC   H8R22179   2.338   1.176   7.282  0.0378  0.0110  2.7935
  192POPC   H8S22180   2.371   1.355   7.335  0.0072  1.1062 -1.0328
  192POPC   C2922181   2.512   1.198   7.389 -0.5659 -0.0671  0.1921
  192POPC   H9122182   2.588   1.139   7.337 -1.1780  0.7973 -1.7448
  192POPC  C21022183   2.534   1.218   7.521  0.1750  0.6301  0.2617
  192POPC  H10122184   2.618   1.165   7.570 -1.1546 -1.0073  0.7852
  192POPC  C21122185   2.451   1.298   7.614 -0.5519  0.0545 -0.0573
  192POPC  H11R22186   2.343   1.301   7.591 -0.3937  1.0729 -0.7706
  192POPC  H11S22187   2.479   1.406   7.606 -0.8762  0.1357 -0.1033
  192POPC  C21222188   2.476   1.241   7.755  0.0925 -0.2961  0.1762
  192POPC  H12R22189   2.432   1.314   7.826  1.1465 -1.3371  1.9383
  192POPC  H12S22190   2.584   1.224   7.772 -0.3756 -3.9625 -0.2104
  192POPC  C21322191   2.411   1.102   7.771  0.4940 -0.7016  0.5294
  192POPC  H13R22192   2.483   1.030   7.726 -1.8078 -2.5938 -0.2210
  192POPC  H13S22193   2.316   1.084   7.716 -0.2488 -2.9613  2.4523
  192POPC  C21422194   2.403   1.043   7.915 -1.0695 -0.1674 -0.9666
  192POPC  H14R22195   2.387   0.934   7.896 -1.5844 -0.0484 -1.2154
  192POPC  H14S22196   2.330   1.089   7.985  0.4760  0.8140  0.0255
  192POPC  C21522197   2.544   1.043   7.982 -0.5842 -0.5641  0.0506
  192POPC  H15R22198   2.590   1.144   7.985 -0.7966 -0.3792 -2.1336
  192POPC  H15S22199   2.605   0.987   7.908  1.5429  1.6317  0.0787
  192POPC  C21622200   2.551   0.977   8.117 -0.2316 -0.7634 -0.2825
  192POPC  H16R22201   2.474   0.898   8.129  0.4019 -1.5190 -1.0261
  192POPC  H16S22202   2.529   1.055   8.192  0.3295  0.2282 -1.1387
  192POPC  C21722203   2.688   0.914   8.138 -0.5256 -0.5551 -0.3045
  192POPC  H17R22204   2.690   0.813   8.092  0.4792 -0.7020  0.0451
  192POPC  H17S22205   2.698   0.891   8.246 -0.8162  0.6972 -0.0021
  192POPC  C21822206   2.811   0.994   8.097 -0.3227  0.5217 -0.8941
  192POPC  H18R22207   2.796   1.003   7.987 -1.4153  0.6167 -0.7485
  192POPC  H18S22208   2.905   0.939   8.117 -0.4906  0.3110 -0.6737
  192POPC  H18T22209   2.818   1.100   8.129 -0.4484  0.5321 -0.8978
  192POPC   C3322210   2.131   1.528   7.202  1.0126 -0.6693 -0.0791
  192POPC   H3X22211   2.200   1.446   7.174  0.6884 -0.6068 -1.0994
  192POPC   H3Y22212   2.027   1.487   7.204  0.0393  1.5433 -2.2286
  192POPC   C3422213   2.150   1.579   7.337  1.1553  0.2502  0.3370
  192POPC   H4X22214   2.098   1.676   7.348 -0.4315 -0.1819 -2.8619
  192POPC   H4Y22215   2.257   1.609   7.336  0.8301  1.6013  2.2641
  192POPC   C3522216   2.110   1.483   7.447  0.3460  0.5861  0.2000
  192POPC   H5X22217   2.179   1.397   7.444  0.0824  0.3300  1.3589
  192POPC   H5Y22218   2.002   1.455   7.451  0.4391 -0.0459 -1.3343
  192POPC   C3622219   2.139   1.543   7.580 -0.1646 -0.2135 -0.7601
  192POPC   H6X22220   2.080   1.632   7.611 -0.8248 -0.3402 -1.6156
  192POPC   H6Y22221   2.242   1.584   7.580 -0.7515  1.4173  1.8500
  192POPC   C3722222   2.108   1.435   7.681  0.0797 -0.5925  0.1031
  192POPC   H7X22223   2.172   1.344   7.672  1.1657  0.1679  0.1059
  192POPC   H7Y22224   2.003   1.397   7.673 -0.1617  0.2595 -0.7310
  192POPC   C3822225   2.111   1.495   7.822 -0.8465  0.4087 -0.7243
  192POPC   H8X22226   2.047   1.585   7.812 -0.7335  0.4689 -0.9130
  192POPC   H8Y22227   2.208   1.538   7.856 -0.4723 -1.7034  0.9754
  192POPC   C3922228   2.065   1.409   7.940  0.0296  0.5833  0.7077
  192POPC   H9X22229   2.131   1.320   7.945  1.4989  1.5148 -1.2560
  192POPC   H9Y22230   1.971   1.361   7.908  1.0593 -0.5932 -0.6143
  192POPC  C31022231   2.041   1.481   8.074 -0.1965  0.0275  0.3544
  192POPC  H10X22232   1.998   1.578   8.042 -0.9111 -0.0290  1.1180
  192POPC  H10Y22233   2.139   1.484   8.126  0.8378 -2.1832 -1.3930
  192POPC  C31122234   1.941   1.412   8.173 -0.3422  0.3478  0.4298
  192POPC  H11X22235   1.979   1.313   8.207  1.4449  1.1929  0.9807
  192POPC  H11Y22236   1.854   1.383   8.111  0.4881  1.2614 -1.2114
  192POPC  C31222237   1.896   1.502   8.293  1.1592  0.5376  0.4673
  192POPC  H12X22238   1.859   1.604   8.269  0.3434 -0.0968 -1.0255
  192POPC  H12Y22239   1.978   1.530   8.363  1.9047 -0.1212 -0.1341
  192POPC  C31322240   1.780   1.430   8.370 -0.0698 -0.0719  0.1457
  192POPC  H13X22241   1.814   1.332   8.410  0.6940  0.7043  1.4196
  192POPC  H13Y22242   1.696   1.408   8.300  1.5658  0.9906 -2.2040
  192POPC  C31422243   1.717   1.506   8.491  0.1471  0.2170 -0.3139
  192POPC  H14X22244   1.674   1.600   8.450 -1.2645 -0.2666  0.0338
  192POPC  H14Y22245   1.798   1.518   8.566  2.1972  0.0198 -2.4337
  192POPC  C31522246   1.595   1.437   8.554 -0.0122 -0.4112 -0.2487
  192POPC  H15X22247   1.621   1.333   8.581  0.8628  0.4122  2.1876
  192POPC  H15Y22248   1.519   1.434   8.473 -1.6492 -0.1640  1.2395
  192POPC  C31622249   1.535   1.527   8.662 -0.0063 -0.3460 -1.2369
  192POPC  H16X22250   1.612   1.543   8.741 -1.7144  0.3004  0.3375
  192POPC  H16Y22251   1.441   1.490   8.708 -0.6012 -0.0069 -2.1759
  192POPC  H16Z22252   1.522   1.628   8.617  0.8572  0.2320 -0.2502
  193SOD    SOD22253   3.560   1.381  13.324  0.1500  0.1077  0.0859
  194SOD    SOD22254   5.754   1.955   6.215  0.0711 -0.1421 -0.0918
  195SOD    SOD22255   1.834   0.727  13.837 -0.2892  0.3769 -0.2911
  196SOD    SOD22256   0.515   1.756  14.177  0.6173  0.5232  0.4500
  197SOD    SOD22257   1.082   0.679   5.087 -0.2258 -0.4508  0.2607
  198SOD    SOD22258   0.622   1.270  16.131  0.2080  0.5095 -0.0044
  199SOD    SOD22259   3.164   5.268   5.291 -0.3102  0.1012  0.1560
  200SOD    SOD22260   2.666   4.575  15.515  0.5509 -0.0190  0.4915
  201SOD    SOD22261   5.739   6.543   4.515 -0.1122 -0.0876 -0.1753
  202SOD    SOD22262   4.459   1.107  11.129  0.1542  0.4207  0.5701
  203SOD    SOD22263   4.997   4.560   6.470  0.0548  0.1961 -0.3322
  204SOD    SOD22264   0.364   0.663  16.480  0.0365  0.3161 -0.0815
  205SOD    SOD22265   5.260   3.321  14.027  0.3680 -0.2885 -0.0632
  206SOD    SOD22266   6.312   0.273   5.755 -0.7571  0.8010 -0.1454
  207SOD    SOD22267   6.195   1.674   2.584  0.3501 -0.2606 -0.4636
  208SOD    SOD22268   0.301   4.482  11.364  0.1421  0.2609 -0.0602
  209SOD    SOD22269   1.370   3.680   1.564  0.4335  0.2078 -0.4180
  210SOD    SOD22270   6.259   5.113   1.838 -0.3080 -0.6202 -0.4776
  211SOD    SOD22271   5.210   1.796   0.503 -0.1721 -0.1505 -0.2705
  212SOD    SOD22272   5.672   6.601   5.856  0.5519  0.0469  0.4258
  213SOD    SOD22273   1.283   1.202  13.555 -0.5593 -0.2243 -0.1519
  214SOD    SOD22274   3.076   3.666   5.358  0.2687 -0.0807 -0.3711
  215SOD    SOD22275   5.872   2.377  16.762 -0.2494 -0.3419 -0.2513
  216SOD    SOD22276   5.420   6.623  15.077 -0.1460 -0.3330  0.0271
  217SOD    SOD22277   5.841   0.823   1.135 -0.3701 -0.3848 -0.0490
  218SOD    SOD22278   5.501   4.162   4.515 -0.3122  0.1879  0.4036
  219SOD    SOD22279   2.019   2.732   0.865 -0.0162  0.0937 -0.1714
  220SOD    SOD22280   3.320   4.660   1.470  0.0144 -0.0333 -0.4330
  221SOD    SOD22281   1.942   5.244   2.178  0.7173  0.0979 -0.0729
  222SOD    SOD22282   3.201   5.808  12.433  0.0588 -0.4545 -0.3803
  223SOD    SOD22283   3.323   5.385   0.034 -0.4846 -0.5010 -0.2561
  224SOD    SOD22284   4.431   1.726  11.117 -0.2888 -0.1753 -0.2126
  225SOD    SOD22285   6.145   4.411   3.307  0.0252 -0.4050  0.1129
  226SOD    SOD22286   5.022   6.182  12.057 -0.0623  0.2560 -0.3623
  227SOD    SOD22287   1.553   2.898   5.900  0.0488  0.1875  0.7524
  228SOD    SOD22288   2.413   5.904   4.971 -0.4146 -0.2152 -0.5780
  229SOD    SOD22289   0.496   6.712   5.484  0.0139 -0.3509  0.1421
  230SOD    SOD22290   4.830   2.988  11.105 -0.5663  0.3974 -0.0009
  231SOD    SOD22291   2.965   5.875   0.485  0.3678  0.7104  0.1011
  232SOD    SOD22292   1.152   3.476  11.493  0.0444 -0.5434  0.2946
  233SOD    SOD22293   2.698   4.113  13.775 -0.0882  0.8495  0.2018
  234SOD    SOD22294   0.277   4.559   4.739  0.1806  0.0919 -0.4052
  235SOD    SOD22295   2.851   1.316  14.444 -0.0447  0.2109  0.2536
  236SOD    SOD22296   2.883   0.932   4.960 -0.1635 -0.0317 -0.6059
  237SOD    SOD22297   3.981   2.490   0.199  0.4214 -0.4792  0.0705
  238SOD    SOD22298   3.324   0.361  10.473  0.0516 -0.2237  0.5140
  239SOD    SOD22299   0.570   0.751  10.783  0.3732  0.3586  0.1633
  240SOD    SOD22300   3.852   5.528   3.795  0.1522 -0.4199  0.1234
  241SOD    SOD22301   5.711   0.045  13.679 -0.4060  0.3162 -0.4418
  242SOD    SOD22302   1.887   1.238   2.023  0.3967  0.5347  0.0831
  243SOD    SOD22303   2.185   5.593  13.462 -0.3311 -0.3220 -0.0186
  244SOD    SOD22304   0.086   3.657  13.038 -0.4529  0.8564 -0.2077
  245SOD    SOD22305   3.185   2.917  15.931  0.1057  0.6336 -0.2513
  246SOD    SOD22306   2.865   6.273   6.364 -0.0724  0.2191 -0.5274
  247SOD    SOD22307   1.049   5.046   6.522  0.3298 -0.1255  0.5411
  248SOD    SOD22308   4.615   6.163   2.939  0.5312 -0.2261  0.4141
  249SOD    SOD22309   2.282   6.548  10.662 -0.1851 -0.2350  0.1064
  250SOD    SOD22310   3.930   1.445   0.755 -0.0159 -0.0846 -0.6919
  251SOD    SOD22311   0.086   2.065   6.483 -0.1686  0.0394  0.6263
  252SOD    SOD22312   6.074   4.522  11.032  0.2573 -0.2200  0.2842
  253SOD    SOD22313   0.549   5.021  13.442  0.1305 -0.0558  0.3330
  254SOD    SOD22314   4.464   2.181   2.615 -0.2971 -0.2040 -0.3084
  255SOD    SOD22315   6.123   0.538  12.518  0.1244  0.2522 -0.3220
  256SOD    SOD22316   2.845   0.691   4.670 -0.3109 -0.2135 -0.2272
  257SOD    SOD22317   4.225   4.533   5.980  0.3562 -0.1278 -0.0763
  258SOD    SOD22318   4.697   5.507   1.534 -0.5074 -0.0744  0.1345
  259SOD    SOD22319   0.967   2.212  12.038  0.6698  0.2867  0.0334
  260SOD    SOD22320   0.528   1.407  13.196 -0.7460 -0.1257 -0.1633
  261SOD    SOD22321   0.546   0.123   3.018 -0.1655 -0.0292 -0.6906
  262SOD    SOD22322   1.126   6.639   3.135 -0.2334  0.0459  0.6718
  263SOD    SOD22323   3.150   0.207  11.088 -0.0750 -0.2513  0.1756
  264SOD    SOD22324   2.079   4.320   4.917  0.5252 -0.4953 -0.4461
  265SOD    SOD22325   2.106   1.916   1.529  0.7604  0.1446  0.1641
  266SOD    SOD22326   1.970   1.933  12.741  0.3288  0.6636  0.2089
  267SOD    SOD22327   5.320   5.942   2.862 -0.2325  0.1648  0.5888
  268SOD    SOD22328   2.130   5.449  16.703 -0.4972 -0.0854  0.1860
  269SOD    SOD22329   5.593   3.302  12.660  0.6613 -0.1506  0.1777
  270CLA    CLA22330   1.390   2.643  12.243 -0.2289 -0.0882  0.0666
  271CLA    CLA22331   4.466   4.652  11.570  0.0753  0.5238 -0.0893
  272CLA    CLA22332   4.194   6.512   4.366  0.1385 -0.4561  0.2452
  273CLA    CLA22333   2.590   0.130   2.967  0.2838 -0.0963 -0.1855
  274CLA    CLA22334   5.012   4.558   1.249 -0.2471 -0.1181  0.0981
  275CLA    CLA22335   2.545   5.811   4.733 -0.1305  0.2476  0.4375
  276CLA    CLA22336   4.887   3.933  12.093  0.2676  0.5035 -0.2599
  277CLA    CLA22337   2.122   0.066  13.304  0.3821  0.3278 -0.5916
  278CLA    CLA22338   0.295   2.619   4.896 -0.1463 -0.1303 -0.0490
  279CLA    CLA22339   3.232   0.581  16.027 -0.0356  0.2606  0.1496
  280CLA    CLA22340   4.835   2.774   0.928 -0.3550 -0.0341  0.2068
  281CLA    CLA22341   5.143   0.050  15.385 -0.1395 -0.1765 -0.3401
  282CLA    CLA22342   4.636   0.288   0.028  0.2477 -0.0742 -0.0235
  283CLA    CLA22343   1.013   1.248  14.821  0.3994 -0.1134 -0.2805
  284CLA    CLA22344   4.281   2.885   5.286 -0.5591  0.0346 -0.4167
  285CLA    CLA22345   5.118   1.063  17.063 -0.1613  0.0911  0.0286
  286CLA    CLA22346   6.350   1.793  13.256  0.2970  0.2222  0.2662
  287CLA    CLA22347   3.776   4.370  13.810  0.1731  0.1164 -0.0327
  288CLA    CLA22348   5.670   4.340   1.748 -0.1927  0.1257  0.0481
  289CLA    CLA22349   2.863   1.421   0.324 -0.1169 -0.4890  0.1995
  290CLA    CLA22350   6.216   3.419   1.831  0.0909  0.6768 -0.3490
  291CLA    CLA22351   3.470   3.191  17.080  0.3240  0.2425 -0.4391
  292CLA    CLA22352   6.091   2.118   4.201  0.1265  0.1845  0.2008
  293CLA    CLA22353   3.411   2.212  14.753 -0.2536  0.1570  0.3739
  294CLA    CLA22354   6.679   6.706   5.301 -0.0411  0.0456  0.2320
  295CLA    CLA22355   2.527   5.677   1.711 -0.2129  0.1834  0.5360
  296CLA    CLA22356   1.460   2.046   1.488  0.1608 -0.4672  0.1479
  297CLA    CLA22357   0.050   2.041  14.952  0.3593  0.1812 -0.4005
  298CLA    CLA22358   1.603   2.899   0.865 -0.0307 -0.0983  0.0439
  299CLA    CLA22359   0.701   6.241   5.363  0.4158  0.1026 -0.0271
  300CLA    CLA22360   1.691   1.692  13.780 -0.3783 -0.1623 -0.3542
  301CLA    CLA22361   2.156   4.819  16.519 -0.2725 -0.2334 -0.1922
  302CLA    CLA22362   5.354   2.382   0.328 -0.0777  0.1666 -0.2086
  303CLA    CLA22363   2.683   0.066  16.764 -0.2295 -0.2585 -0.3231
  304CLA    CLA22364   0.215   1.330  13.576 -0.1702  0.0326 -0.3871
  305CLA    CLA22365   5.907   2.919   2.231 -0.0200  0.0644 -0.3157
  306CLA    CLA22366   6.115   1.464   0.861  0.0741  0.5517  0.3599
  307CLA    CLA22367   2.190   5.649   2.880  0.2874 -0.1846  0.5217
  308CLA    CLA22368   5.818   5.601   0.786  0.2774  0.2621  0.0567
  309CLA    CLA22369   3.737   1.133   4.841 -0.2514 -0.0578 -0.0547
  310CLA    CLA22370   2.873   0.361   0.376  0.3932  0.4327  0.3878
  311CLA    CLA22371   2.556   2.541  14.060 -0.0194  0.1279  0.0816
  312CLA    CLA22372   5.014   0.520  15.413 -0.6492 -0.0788 -0.3385
  313CLA    CLA22373   4.361   5.175   5.643 -0.2071  0.1565 -0.0865
  314CLA    CLA22374   2.034   5.303  13.811  0.0367  0.0837  0.2068
  315CLA    CLA22375   5.872   0.370   2.296 -0.1631  0.2554  0.0049
  316CLA    CLA22376   5.188   1.230  13.571  0.0085  0.4366  0.3823
  317CLA    CLA22377   4.177   0.357   2.381  0.0429 -0.1262  0.2454
  318CLA    CLA22378   2.791   5.678   0.562  0.0128  0.3063  0.2514
  319CLA    CLA22379   3.128   5.860   0.021 -0.1463 -0.1993 -0.1004
  320CLA    CLA22380   1.833   0.664  14.554  0.3427 -0.1742  0.1276
  321CLA    CLA22381   0.566   3.780  13.293  0.5757  0.1926  0.4296
  322CLA    CLA22382   0.402   3.159   3.145  0.3078 -0.0123 -0.0789
  323TIP3   OH222383   5.553   1.014   2.754  0.0381 -0.2270 -0.2166
  323TIP3    H122384   5.525   0.938   2.702 -0.9260  0.3608 -0.5739
  323TIP3    H222385   5.473   1.043   2.798  0.4262  0.5233 -0.0058
  324TIP3   OH222386   6.263   1.512  16.521  0.3414  0.2303  0.0893
  324TIP3    H122387   6.221   1.491  16.605 -0.6485  1.5616 -0.0516
  324TIP3    H222388   6.201   1.482  16.455  0.4068  0.6168 -0.1493
  325TIP3   OH222389   6.700   4.008   1.418  0.0411  0.2653  0.4004
  325TIP3    H122390   6.645   3.966   1.352  1.0930  0.1808 -0.4309
  325TIP3    H222391   6.748   4.076   1.369  0.1388  0.8207  1.2564
  326TIP3   OH222392   0.234   0.061  12.052  0.1912 -0.1673  0.3613
  326TIP3    H122393   0.140   0.065  12.036 -0.0287 -1.4082  1.2852
  326TIP3    H222394   0.242   0.045  12.146  1.3786  2.4537  0.7690
  327TIP3   OH222395   3.880   6.146   1.692 -0.2865  0.0755  0.2272
  327TIP3    H122396   3.974   6.130   1.694  0.1167  2.0861 -1.1349
  327TIP3    H222397   3.844   6.070   1.646  0.9272  0.3386 -1.2037
  328TIP3   OH222398   2.807   1.536  12.332 -0.3578 -0.3539  0.0506
  328TIP3    H122399   2.848   1.569  12.412  0.1977  1.2787 -0.8800
  328TIP3    H222400   2.767   1.454  12.358  0.7735 -0.3995  1.7485
  329TIP3   OH222401   0.834   0.489  12.918  0.1279  0.7779  0.4218
  329TIP3    H122402   0.918   0.444  12.920 -0.3744 -0.1123  1.7440
  329TIP3    H222403   0.832   0.531  12.832  1.5185  0.0342  0.0110
  330TIP3   OH222404   0.332   3.228  14.804  0.1644  0.4619 -0.5469
  330TIP3    H122405   0.354   3.297  14.867  0.4060  1.1726 -1.4045
  330TIP3    H222406   0.400   3.162  14.816  0.8183  1.0865 -0.8130
  331TIP3   OH222407   5.637   0.662  10.494 -0.2696 -0.5415 -0.1097
  331TIP3    H122408   5.563   0.640  10.551  0.0820  1.4942  1.1648
  331TIP3    H222409   5.688   0.581  10.491 -2.1061 -1.7451 -0.3812
  332TIP3   OH222410   2.277   0.066   0.817 -0.0146 -0.4123 -0.0829
  332TIP3    H122411   2.197   0.112   0.791 -0.3727 -0.8241  0.2901
  332TIP3    H222412   2.316   0.121   0.885 -0.5139 -0.7281  0.4602
  333TIP3   OH222413   5.327   4.630  11.195 -0.2029 -0.1680  0.5644
  333TIP3    H122414   5.343   4.724  11.183  1.2704 -0.4998 -0.1923
  333TIP3    H222415   5.249   4.612  11.144  0.4308  0.3525 -0.5988
  334TIP3   OH222416   6.624   1.259  15.847  0.0322 -0.5065  0.1247
  334TIP3    H122417   6.677   1.189  15.810  0.8825 -0.2012  0.7439
  334TIP3    H222418   6.634   1.332  15.786  0.2775 -0.4624  0.2208
  335TIP3   OH222419   3.700   4.963   1.095 -0.1742  0.1705  0.0338
  335TIP3    H122420   3.719   4.935   1.185  0.4207  0.6195  0.0511
  335TIP3    H222421   3.786   4.968   1.053 -0.4283  0.2460 -0.4756
  336TIP3   OH222422   1.259   2.728   3.261  1.0415 -0.7634  0.4378
  336TIP3    H122423   1.193   2.797   3.256  0.0628 -1.6293  1.2666
  336TIP3    H222424   1.337   2.766   3.220 -0.0829  0.1345 -0.9171
  337TIP3   OH222425   2.447   3.536  13.652  0.1627 -0.2328 -0.4007
  337TIP3    H122426   2.506   3.481  13.704  0.8479 -0.0554 -0.9806
  337TIP3    H222427   2.398   3.586  13.717  2.1382  1.1649  0.0738
  338TIP3   OH222428   6.629   5.381   5.425 -0.0576  0.2228 -0.3021
  338TIP3    H122429   6.595   5.420   5.344  1.7651 -1.0707 -1.7375
  338TIP3    H222430   6.575   5.419   5.494 -2.2776  0.6600 -2.2022
  339TIP3   OH222431   5.243   2.216   4.976  0.3567 -0.5134 -0.1089
  339TIP3    H122432   5.260   2.244   4.886  2.5289  0.8376  0.6775
  339TIP3    H222433   5.316   2.158   4.998 -0.7744 -1.7779  0.4191
  340TIP3   OH222434   3.654   3.003  11.746  0.6997  0.2020 -0.1139
  340TIP3    H122435   3.587   2.948  11.787 -1.9199  1.5877 -2.3903
  340TIP3    H222436   3.663   2.967  11.658  1.3020  1.4356 -0.5603
  341TIP3   OH222437   3.413   1.825  10.702 -0.7679 -0.1083 -0.8695
  341TIP3    H122438   3.388   1.830  10.610 -0.6145  2.6711 -0.8150
  341TIP3    H222439   3.390   1.911  10.738  1.8209 -0.1120  0.9803
  342TIP3   OH222440   5.467   1.684  13.188 -0.4867 -0.4443  0.3180
  342TIP3    H122441   5.389   1.724  13.149 -1.4290 -0.7854  1.8348
  342TIP3    H222442   5.433   1.621  13.251  0.9929 -2.3810 -0.7532
  343TIP3   OH222443   0.885   3.899   3.283 -0.1553  0.3982  0.3749
  343TIP3    H122444   0.939   3.822   3.266  0.1651  1.0568 -1.7395
  343TIP3    H222445   0.795   3.869   3.271 -0.1280 -0.0863  1.3757
  344TIP3   OH222446   5.089   3.935  17.234  0.0399  0.1264 -0.2569
  344TIP3    H122447   5.047   3.859  17.193  0.0495 -0.5081  0.8919
  344TIP3    H222448   5.054   4.010  17.186 -0.2709 -0.5775 -1.1514
  345TIP3   OH222449   4.722   2.796  12.175 -0.0368  0.2598 -0.0662
  345TIP3    H122450   4.722   2.775  12.269 -0.3931  1.3886  0.1958
  345TIP3    H222451   4.633   2.825  12.157 -0.2473 -0.9349 -0.9886
  346TIP3   OH222452   1.666   0.553  15.897  0.1038  0.1080  0.1190
  346TIP3    H122453   1.585   0.566  15.848  0.6207 -1.4726 -1.1909
  346TIP3    H222454   1.691   0.641  15.926 -0.9073  0.9039 -1.3675
  347TIP3   OH222455   4.778   4.418  13.940 -0.3873  0.3658 -0.0452
  347TIP3    H122456   4.711   4.356  13.968 -0.7473  1.1098  0.7938
  347TIP3    H222457   4.805   4.388  13.854 -1.7103 -0.0231 -0.3274
  348TIP3   OH222458   4.327   3.579  13.013 -0.2878 -0.5081  0.0150
  348TIP3    H122459   4.383   3.546  13.083  0.7839  0.1249 -0.5358
  348TIP3    H222460   4.379   3.569  12.933 -0.2255  1.7807 -0.2571
  349TIP3   OH222461   3.657   5.806   0.618 -0.4367  0.1405  0.0490
  349TIP3    H122462   3.564   5.828   0.613 -0.6851 -0.4235  1.6513
  349TIP3    H222463   3.686   5.848   0.700  0.2677 -1.2361  0.5073
  350TIP3   OH222464   6.207   0.172  12.336  0.4100 -0.0671 -0.2401
  350TIP3    H122465   6.173   0.092  12.298  0.2671  0.3313 -0.9521
  350TIP3    H222466   6.257   0.213  12.266 -0.0382  0.7828 -0.0663
  351TIP3   OH222467   2.182   2.736  14.260  0.6719  0.2573 -0.1616
  351TIP3    H122468   2.188   2.678  14.336  0.0670 -1.1043 -1.1157
  351TIP3    H222469   2.091   2.729  14.232  0.1870  2.9033  0.6268
  352TIP3   OH222470   2.019   4.102   4.927  0.2144  0.7427 -0.0082
  352TIP3    H122471   1.928   4.094   4.899  0.4063 -1.6937 -0.0229
  352TIP3    H222472   2.040   4.017   4.966  3.1993  0.3909 -2.2049
  353TIP3   OH222473   2.693   4.720   4.387 -0.3505  0.8374  0.6515
  353TIP3    H122474   2.768   4.775   4.413 -1.0158  2.1158 -0.0722
  353TIP3    H222475   2.648   4.772   4.320 -1.7468 -0.0328  0.9041
  354TIP3   OH222476   1.706   3.643  17.228 -0.6624 -0.2849  0.2344
  354TIP3    H122477   1.643   3.650  17.300 -2.5459  0.2840 -1.4361
  354TIP3    H222478   1.774   3.706  17.250 -2.5141  1.7425  0.2508
  355TIP3   OH222479   5.093   4.016   5.729  0.6122  0.3643  0.0950
  355TIP3    H122480   5.046   3.934   5.748  0.4040  0.4054 -0.2315
  355TIP3    H222481   5.167   3.989   5.675  1.8276  0.1048  1.8459
  356TIP3   OH222482   5.149   0.023  10.609 -0.0620 -0.4473 -0.5889
  356TIP3    H122483   5.243   0.032  10.591 -0.2659  0.4507 -1.2141
  356TIP3    H222484   5.114   0.111  10.597 -0.4458 -0.0632  2.7798
  357TIP3   OH222485   3.258   6.659   4.091 -0.0050  0.4590 -0.1609
  357TIP3    H122486   3.173   6.677   4.052 -0.6670 -0.4332  0.8566
  357TIP3    H222487   3.239   6.626   4.179  1.2669 -2.3224 -0.8658
  358TIP3   OH222488   2.558   2.730   3.795 -0.1234  0.9345 -0.5302
  358TIP3    H122489   2.641   2.731   3.748  0.2498 -0.2326  0.0795
  358TIP3    H222490   2.582   2.747   3.886 -0.4167 -0.5750 -0.1647
  359TIP3   OH222491   6.126   4.143   4.479  0.3386  0.0194 -0.1254
  359TIP3    H122492   6.178   4.151   4.559  0.8881 -0.2059 -0.4556
  359TIP3    H222493   6.116   4.049   4.467 -0.8491  0.0776  0.3858
  360TIP3   OH222494   0.632   1.727   1.222 -0.2142 -0.6540  0.2965
  360TIP3    H122495   0.546   1.702   1.256 -0.5977  0.9408  0.5320
  360TIP3    H222496   0.626   1.714   1.128 -0.5328 -1.0555  0.3709
  361TIP3   OH222497   2.983   3.235   4.318 -0.5360  0.1220 -0.7288
  361TIP3    H122498   2.997   3.233   4.224 -1.9379 -1.7790 -0.9371
  361TIP3    H222499   3.061   3.277   4.354 -0.7153  2.3318 -2.8438
  362TIP3   OH222500   3.000   3.666   1.965 -0.6575  0.1457 -0.1622
  362TIP3    H122501   3.005   3.758   1.938  3.8065 -0.2079 -0.9569
  362TIP3    H222502   2.951   3.624   1.895 -2.7975  1.8747  0.2259
  363TIP3   OH222503   2.382   0.920  13.144  0.5123 -0.0107  0.1162
  363TIP3    H122504   2.342   0.840  13.176 -0.1932  0.0950 -0.4972
  363TIP3    H222505   2.458   0.891  13.093  1.2759 -0.2049  1.3400
  364TIP3   OH222506   5.336   6.300  14.373 -0.5398  0.1988  0.0101
  364TIP3    H122507   5.254   6.331  14.411 -0.8190  0.6943 -0.9846
  364TIP3    H222508   5.343   6.209  14.401 -1.4540  0.1400  0.0518
  365TIP3   OH222509   4.420   0.442  15.231  0.2941  0.1637 -0.3104
  365TIP3    H122510   4.514   0.426  15.229  0.4040  0.7860 -0.2566
  365TIP3    H222511   4.382   0.362  15.268  0.9299  0.4704  1.0191
  366TIP3   OH222512   5.436   1.397  12.469 -0.2904 -0.2342  0.1351
  366TIP3    H122513   5.361   1.373  12.523 -1.9150 -2.2438 -2.8912
  366TIP3    H222514   5.483   1.314  12.454 -0.2518  0.1551 -2.0491
  367TIP3   OH222515   4.950   5.125  15.701 -0.1572  0.5754 -0.3469
  367TIP3    H122516   4.947   5.103  15.608  1.6848  0.8029 -0.4762
  367TIP3    H222517   4.998   5.208  15.705  1.7782 -0.5546  0.9677
  368TIP3   OH222518   3.749   2.429   4.031 -0.3120  0.0369 -0.0231
  368TIP3    H122519   3.685   2.456   4.097 -1.9750 -1.0597 -1.1576
  368TIP3    H222520   3.717   2.345   3.999  0.5749  0.4643 -2.1000
  369TIP3   OH222521   3.428   5.827   0.067 -0.3368 -0.1449 -0.0065
  369TIP3    H122522   3.482   5.904   0.088  0.5020 -0.9805  0.9261
  369TIP3    H222523   3.343   5.864   0.045  0.6874  1.2154 -1.8046
  370TIP3   OH222524   1.582   3.152   3.704 -1.0257  0.0593  0.9702
  370TIP3    H122525   1.539   3.068   3.718 -0.4180 -0.1464  1.6384
  370TIP3    H222526   1.642   3.161   3.778  0.9236 -0.1839 -0.5130
  371TIP3   OH222527   2.698   2.561   0.718 -0.3803 -0.3879  0.0996
  371TIP3    H122528   2.786   2.572   0.755  0.9986 -1.5328 -2.6335
  371TIP3    H222529   2.688   2.636   0.659 -1.1111 -0.4056  0.2027
  372TIP3   OH222530   2.637   1.805  12.836  0.1763 -0.2366  0.6534
  372TIP3    H122531   2.654   1.895  12.810  0.3742 -0.9874 -1.9371
  372TIP3    H222532   2.722   1.762  12.835 -0.2449 -1.0669 -0.6157
  373TIP3   OH222533   2.270   0.329  12.504  0.6770  0.7086  0.2330
  373TIP3    H122534   2.210   0.378  12.561  0.6363  0.1894  0.6411
  373TIP3    H222535   2.238   0.239  12.507  0.4150  0.7603 -0.9763
  374TIP3   OH222536   5.159   3.107  14.081 -0.2233 -0.4251  0.0016
  374TIP3    H122537   5.155   3.011  14.091 -0.2631 -0.2392  2.1294
  374TIP3    H222538   5.068   3.135  14.095 -0.5798 -0.1916 -2.5118
  375TIP3   OH222539   5.904   5.839  13.445  0.3897  0.0558  0.0690
  375TIP3    H122540   5.906   5.828  13.350 -0.0865 -0.5724  0.1288
  375TIP3    H222541   5.853   5.765  13.477  0.1903  0.4953  0.7829
  376TIP3   OH222542   1.400   0.343  16.474 -0.2303  0.3669 -0.0857
  376TIP3    H122543   1.414   0.350  16.568 -1.8437 -2.9135  0.4767
  376TIP3    H222544   1.478   0.298  16.441  0.9690  2.7361 -0.5785
  377TIP3   OH222545   3.156   0.908  12.779 -0.1235 -0.3152 -0.1460
  377TIP3    H122546   3.105   0.857  12.716  0.1972 -1.9443  0.8772
  377TIP3    H222547   3.115   0.888  12.864  0.5927  0.3967  0.3697
  378TIP3   OH222548   3.855   6.325   3.462 -0.2347 -0.1629 -0.1339
  378TIP3    H122549   3.770   6.346   3.500  0.0818 -0.4895  0.7503
  378TIP3    H222550   3.846   6.236   3.429 -1.5303  1.1908 -3.7536
  379TIP3   OH222551   2.874   0.008  16.130  0.1732  0.3654  0.3054
  379TIP3    H122552   2.852   0.053  16.049 -2.0148 -0.8675  0.1983
  379TIP3    H222553   2.818   0.048  16.196  1.0660  0.5171  0.9915
  380TIP3   OH222554   1.645   6.481   0.487 -0.5632  0.4015 -0.2441
  380TIP3    H122555   1.656   6.397   0.441 -1.2692  0.3151 -0.2576
  380TIP3    H222556   1.584   6.461   0.558  1.5185  0.2227  1.5470
  381TIP3   OH222557   5.454   2.717   4.601 -0.0807 -0.3353 -0.2922
  381TIP3    H122558   5.468   2.779   4.529  0.3210  0.6148  0.5819
  381TIP3    H222559   5.360   2.701   4.601 -0.4345  1.5959  0.5213
  382TIP3   OH222560   1.211   4.448   1.373  0.4314  0.5088  0.3612
  382TIP3    H122561   1.139   4.385   1.375  0.8442 -0.0408 -1.2528
  382TIP3    H222562   1.177   4.524   1.419 -0.4058 -0.5510  1.5250
  383TIP3   OH222563   5.057   6.755  16.860  0.4223 -0.3512  0.0250
  383TIP3    H122564   4.984   6.728  16.916  0.1776 -1.0043 -0.6075
  383TIP3    H222565   5.132   6.763  16.919 -0.2041  0.5387  0.7162
  384TIP3   OH222566   2.670   4.385  13.604  0.3062  0.6473  0.4425
  384TIP3    H122567   2.761   4.366  13.624 -0.0191  0.7838  2.0590
  384TIP3    H222568   2.661   4.479  13.621 -0.5716  0.2932  1.9544
  385TIP3   OH222569   5.865   1.429  12.811  0.0756  0.0310 -0.3661
  385TIP3    H122570   5.781   1.423  12.766  0.0734 -3.0978 -0.0979
  385TIP3    H222571   5.871   1.519  12.840 -2.5149  0.6714 -1.6694
  386TIP3   OH222572   4.722   2.788  11.154 -0.2723 -0.2501 -0.0214
  386TIP3    H122573   4.670   2.721  11.110 -1.2465 -0.1902  1.0150
  386TIP3    H222574   4.743   2.749  11.239  1.0400 -0.1139 -0.2755
  387TIP3   OH222575   1.909   3.458  11.820  0.4124  0.0799  0.7578
  387TIP3    H122576   1.975   3.449  11.752 -0.4245  0.0584 -0.0609
  387TIP3    H222577   1.837   3.402  11.792 -0.4961  1.1140  0.9587
  388TIP3   OH222578   2.322   6.205  12.941  0.6657  0.3186  0.7532
  388TIP3    H122579   2.301   6.270  13.008  0.7520  0.8144  0.3001
  388TIP3    H222580   2.260   6.222  12.870  1.5140  0.7296  0.1004
  389TIP3   OH222581   3.470   3.502   3.772 -0.0024 -0.1561  0.0537
  389TIP3    H122582   3.382   3.530   3.798 -0.3292 -1.3738  0.2879
  389TIP3    H222583   3.459   3.412   3.743  1.5607 -1.0850  2.2454
  390TIP3   OH222584   4.551   6.463   3.910 -0.1575  0.3656  0.4265
  390TIP3    H122585   4.505   6.499   3.834  0.0503  0.4390  0.3355
  390TIP3    H222586   4.481   6.439   3.971 -0.2950  0.9017  0.4794
  391TIP3   OH222587   6.430   0.608  16.248 -0.1538  0.9635 -1.4061
  391TIP3    H122588   6.341   0.585  16.222 -1.3848  1.9389  1.6459
  391TIP3    H222589   6.430   0.598  16.344  3.0314  0.9597 -1.3485
  392TIP3   OH222590   6.162   1.883   3.357 -0.0360  0.1474  0.4128
  392TIP3    H122591   6.124   1.795   3.363 -0.2526  0.0648 -1.8664
  392TIP3    H222592   6.227   1.885   3.428 -0.6232 -1.5428  1.0337
  393TIP3   OH222593   1.693   2.461   3.756 -0.4654  0.3134  0.0371
  393TIP3    H122594   1.784   2.446   3.778 -0.5451 -1.1057 -0.5506
  393TIP3    H222595   1.650   2.479   3.840  0.1028 -0.3625  0.4798
  394TIP3   OH222596   6.724   0.062   4.279  0.0615 -0.0167  0.5514
  394TIP3    H122597   6.673   0.087   4.356 -0.4901  1.9286 -0.3989
  394TIP3    H222598   6.815   0.062   4.309 -0.2803 -0.9220  1.6059
  395TIP3   OH222599   4.514   0.166  13.020  0.5149  0.4524  0.0638
  395TIP3    H122600   4.574   0.097  13.049  1.2118  0.4671 -1.3043
  395TIP3    H222601   4.518   0.232  13.089  2.9804  0.9883 -0.5156
  396TIP3   OH222602   3.566   4.594  14.567 -0.2142 -0.2869 -0.3444
  396TIP3    H122603   3.507   4.588  14.491 -0.1193 -0.8580 -0.3764
  396TIP3    H222604   3.508   4.614  14.640 -0.3437 -0.0155 -0.5212
  397TIP3   OH222605   3.571   1.203  12.768  0.1460  0.4255  0.2308
  397TIP3    H122606   3.599   1.114  12.745  0.8553  1.0473 -1.4389
  397TIP3    H222607   3.481   1.193  12.797  1.2529 -1.2931  3.3879
  398TIP3   OH222608   1.048   6.002   3.846 -0.0834 -0.3102  0.2132
  398TIP3    H122609   1.017   5.971   3.931  1.3885 -3.0725 -0.2094
  398TIP3    H222610   1.080   6.091   3.863 -1.3527 -0.2076  2.1792
  399TIP3   OH222611   1.516   2.373  16.996 -0.4844 -0.9585  0.1033
  399TIP3    H122612   1.592   2.348  17.048  0.5162  1.3140 -0.1982
  399TIP3    H222613   1.441   2.353  17.052  0.4288 -1.3167  1.2174
  400TIP3   OH222614   1.471   5.627  15.971 -1.0086  0.4438  0.9985
  400TIP3    H122615   1.424   5.682  15.909 -0.2729  0.2703  0.2823
  400TIP3    H222616   1.417   5.629  16.050 -3.1606 -1.1438 -0.3419
  401TIP3   OH222617   3.047   4.604  13.210 -0.2534  0.5860 -0.5070
  401TIP3    H122618   3.078   4.650  13.288 -0.7460  0.4818 -0.2503
  401TIP3    H222619   3.124   4.600  13.153 -0.4997  2.8573 -1.0668
  402TIP3   OH222620   1.556   5.242  15.519  0.0640 -0.6100 -0.7366
  402TIP3    H122621   1.632   5.266  15.467  1.3003  0.4934  1.5149
  402TIP3    H222622   1.495   5.315  15.508  0.1160 -0.6138 -1.0410
  403TIP3   OH222623   3.396   1.442   4.377 -0.4789 -0.0044 -0.2391
  403TIP3    H122624   3.352   1.476   4.299  0.2475 -1.8243 -1.4893
  403TIP3    H222625   3.467   1.388   4.342  0.4920 -0.0156  1.7136
  404TIP3   OH222626   2.640   5.971  11.396  0.2906 -0.3856 -0.3279
  404TIP3    H122627   2.704   5.900  11.399  0.0725 -0.6032 -0.7750
  404TIP3    H222628   2.557   5.927  11.381 -0.1181 -0.1898  1.3156
  405TIP3   OH222629   1.216   5.345  15.654 -0.2545 -0.5540 -0.5553
  405TIP3    H122630   1.285   5.313  15.713 -0.7820 -0.8219 -0.0763
  405TIP3    H222631   1.262   5.368  15.574  0.4211 -0.5640 -0.1748
  406TIP3   OH222632   2.469   6.768   0.104  0.3564 -0.0771 -0.1717
  406TIP3    H122633   2.523   6.791   0.180  0.4617 -1.4707  0.1886
  406TIP3    H222634   2.528   6.779   0.029  1.3568 -2.1053  0.2675
  407TIP3   OH222635   4.896   0.237  11.865  0.3102  0.3783 -0.3469
  407TIP3    H122636   4.893   0.173  11.794  0.1154  0.1816 -0.1623
  407TIP3    H222637   4.984   0.274  11.861 -0.4291  2.0175 -2.1503
  408TIP3   OH222638   3.786   4.374  13.482  0.5400 -0.2663 -0.1364
  408TIP3    H122639   3.872   4.331  13.493  1.2521  1.0080 -0.6525
  408TIP3    H222640   3.756   4.389  13.572  0.7503 -0.9048  0.0489
  409TIP3   OH222641   5.505   4.915   6.072  0.0182 -0.2043 -0.7744
  409TIP3    H122642   5.525   4.889   6.162 -1.4740 -1.5176 -0.8054
  409TIP3    H222643   5.415   4.886   6.058 -0.0373  0.7165 -2.4268
  410TIP3   OH222644   6.480   5.958  14.613  0.5656  0.0351 -0.0767
  410TIP3    H122645   6.390   5.925  14.614  0.8139 -0.6472  0.0184
  410TIP3    H222646   6.490   6.001  14.698 -0.1784  1.5143 -0.7190
  411TIP3   OH222647   4.742   1.081  16.808 -0.5351 -0.3396 -0.1989
  411TIP3    H122648   4.810   1.109  16.747 -0.2410 -0.1852  0.1967
  411TIP3    H222649   4.687   1.022  16.757  0.1471 -0.8055 -0.3995
  412TIP3   OH222650   2.530   5.792   3.260 -0.8936 -0.8394  0.3052
  412TIP3    H122651   2.482   5.722   3.215  1.5397 -1.5810 -1.2274
  412TIP3    H222652   2.579   5.747   3.329  1.6974 -0.9316 -1.5038
  413TIP3   OH222653   3.373   1.201   2.798 -0.6756  0.2592 -0.4411
  413TIP3    H122654   3.388   1.107   2.807  1.9640  0.7594  0.5300
  413TIP3    H222655   3.443   1.232   2.740 -1.4467  1.6684 -0.6594
  414TIP3   OH222656   0.153   3.123   0.325  0.1218  0.3391 -0.1649
  414TIP3    H122657   0.136   3.172   0.245 -3.1886 -0.7722 -0.2473
  414TIP3    H222658   0.069   3.122   0.371  1.5804 -0.3214  2.6186
  415TIP3   OH222659   3.850   3.719   0.204  0.1054  0.0275 -0.1269
  415TIP3    H122660   3.901   3.648   0.166 -1.2030 -1.1876  0.3301
  415TIP3    H222661   3.874   3.720   0.296 -0.1010 -0.0363 -0.0710
  416TIP3   OH222662   0.245   0.569  12.633 -0.2972 -0.1836  0.3047
  416TIP3    H122663   0.151   0.565  12.653 -0.1246  0.6205  1.3176
  416TIP3    H222664   0.264   0.662  12.622  0.3594 -0.3524 -0.0622
  417TIP3   OH222665   1.269   4.643   0.279 -0.4551  0.0817  0.4815
  417TIP3    H122666   1.247   4.654   0.186 -2.3196 -1.5006  0.7041
  417TIP3    H222667   1.253   4.729   0.317  1.9306  1.2148 -0.9330
  418TIP3   OH222668   2.011   2.333  17.126  0.4404 -0.0129  0.4960
  418TIP3    H122669   1.995   2.421  17.091  1.5817 -0.9477 -2.4584
  418TIP3    H222670   2.103   2.333  17.151  0.5107 -0.4566  0.2348
  419TIP3   OH222671   0.516   3.602   2.453 -0.3112 -0.4277 -0.3704
  419TIP3    H122672   0.462   3.523   2.454  1.1123 -1.4040  1.3334
  419TIP3    H222673   0.573   3.591   2.376 -0.1974 -0.9997 -0.2086
  420TIP3   OH222674   5.450   5.987  15.923  0.1018 -0.1252  0.5190
  420TIP3    H122675   5.497   6.070  15.920  0.4753 -0.3669 -0.5994
  420TIP3    H222676   5.364   6.008  15.961  0.6316  0.5482  1.3358
  421TIP3   OH222677   0.435   6.694  12.893  0.0870 -0.3240  0.0962
  421TIP3    H122678   0.462   6.607  12.923 -1.8667 -0.3261  1.9419
  421TIP3    H222679   0.509   6.750  12.916  1.3162 -1.4458 -1.0031
  422TIP3   OH222680   5.174   1.093  16.154  0.6247 -0.3872  0.6940
  422TIP3    H122681   5.269   1.102  16.157  0.6009 -0.5010  4.1642
  422TIP3    H222682   5.141   1.183  16.158  0.5551 -0.3276 -0.8686
  423TIP3   OH222683   5.059   5.624   2.547 -0.9352 -0.3511 -0.4944
  423TIP3    H122684   5.059   5.640   2.453 -1.2906 -1.1706 -0.6331
  423TIP3    H222685   5.112   5.545   2.558 -1.5199 -0.6933 -0.0857
  424TIP3   OH222686   4.257   2.610   2.321  0.1790  0.1433  0.1246
  424TIP3    H122687   4.279   2.666   2.247  0.2330 -0.4697 -0.3283
  424TIP3    H222688   4.300   2.527   2.302  0.5912  0.1297  1.0773
  425TIP3   OH222689   2.253   4.803  13.733 -0.0166  0.0907  0.3295
  425TIP3    H122690   2.316   4.848  13.676 -0.0960  1.0691  1.0071
  425TIP3    H222691   2.170   4.848  13.716 -0.3738 -0.6814  0.0221
  426TIP3   OH222692   1.243   5.464  16.776 -0.5154  0.3509  1.0180
  426TIP3    H122693   1.227   5.390  16.717 -2.8063  0.1275  1.8721
  426TIP3    H222694   1.235   5.427  16.864  1.1629  1.0389  1.4820
  427TIP3   OH222695   2.827   1.407   1.528 -0.5325 -0.7470 -0.1595
  427TIP3    H122696   2.800   1.398   1.619  0.1102 -0.2021  0.0912
  427TIP3    H222697   2.758   1.461   1.488  0.8886  1.9585  0.8474
  428TIP3   OH222698   0.694   1.825  13.865 -0.1383 -0.1608 -0.0255
  428TIP3    H122699   0.779   1.783  13.873 -0.4931 -0.8434  0.2357
  428TIP3    H222700   0.668   1.844  13.955 -1.0251 -1.5055  0.0087
  429TIP3   OH222701   0.771   6.533  12.475  0.0771 -0.1271  0.1285
  429TIP3    H122702   0.815   6.604  12.428  0.2842 -0.7113 -0.5650
  429TIP3    H222703   0.798   6.544  12.566  0.6386  0.2844 -0.0877
  430TIP3   OH222704   0.216   4.239  14.386 -0.7599  0.3641 -0.2443
  430TIP3    H122705   0.137   4.260  14.336 -1.4444 -0.6401  0.4011
  430TIP3    H222706   0.286   4.286  14.340 -1.4832  0.0063 -1.7521
  431TIP3   OH222707   1.531   1.534  14.748  0.4760  0.1345  0.0413
  431TIP3    H122708   1.583   1.486  14.683  0.9193  0.1112  0.4149
  431TIP3    H222709   1.596   1.578  14.803  0.0946  0.2279  0.4167
  432TIP3   OH222710   4.487   0.700   4.835 -0.0487 -0.0186 -0.4463
  432TIP3    H122711   4.447   0.685   4.921 -1.2400  2.7361 -0.4546
  432TIP3    H222712   4.464   0.623   4.783  0.2832 -1.5032  1.5426
  433TIP3   OH222713   1.351   4.114  12.435  0.3437  0.1849  0.1761
  433TIP3    H122714   1.354   4.058  12.513 -1.4084  1.1473  0.9413
  433TIP3    H222715   1.426   4.172  12.445  0.2643  0.1484  1.0157
  434TIP3   OH222716   1.711   5.595   4.063  0.0035  0.0919 -0.2442
  434TIP3    H122717   1.719   5.579   3.969  1.1649  1.1135 -0.3316
  434TIP3    H222718   1.770   5.669   4.080  0.0006 -0.2474  1.3326
  435TIP3   OH222719   0.785   4.174  13.422  0.4764  0.3085 -0.1404
  435TIP3    H122720   0.828   4.139  13.499 -0.5750 -1.1476 -0.1932
  435TIP3    H222721   0.761   4.263  13.446  2.3913  0.7295  0.3073
  436TIP3   OH222722   0.528   4.602   0.772  0.3344  0.5368  0.1507
  436TIP3    H122723   0.436   4.627   0.772 -0.1375 -1.1592  0.7394
  436TIP3    H222724   0.535   4.532   0.838  1.7558 -0.3621 -0.9069
  437TIP3   OH222725   0.699   2.906   5.870 -0.3615  0.3264  0.5066
  437TIP3    H122726   0.622   2.961   5.849 -1.7229 -1.3556  1.0122
  437TIP3    H222727   0.703   2.844   5.798 -0.3468 -0.5055  1.2216
  438TIP3   OH222728   4.812   6.589   3.856 -0.2322  0.1322  0.1435
  438TIP3    H122729   4.736   6.564   3.907 -0.4989 -1.0910 -0.8231
  438TIP3    H222730   4.821   6.519   3.790  2.2247 -0.2278  0.7803
  439TIP3   OH222731   2.721   5.149  16.017  0.0799 -0.2550 -0.2903
  439TIP3    H122732   2.656   5.111  16.075  0.8948 -0.0370  0.7763
  439TIP3    H222733   2.772   5.075  15.986  0.1518 -0.2855 -0.0972
  440TIP3   OH222734   4.355   0.581   2.951 -0.3806 -0.0281 -0.1402
  440TIP3    H122735   4.385   0.669   2.932  0.7500 -0.1451  1.0921
  440TIP3    H222736   4.384   0.563   3.040 -1.3224 -1.3379 -0.0702
  441TIP3   OH222737   3.319   3.695  17.124  0.1445 -0.2145  0.4570
  441TIP3    H122738   3.346   3.615  17.170 -0.9829 -0.2726  1.0349
  441TIP3    H222739   3.224   3.688  17.119  0.1575  0.4360 -0.7267
  442TIP3   OH222740   1.542   0.079   6.343 -0.1701 -0.0506 -0.3358
  442TIP3    H122741   1.548   0.016   6.271 -1.2829  1.2641 -1.5986
  442TIP3    H222742   1.469   0.048   6.396 -0.0994 -0.3669 -0.4210
  443TIP3   OH222743   4.060   5.671   5.403  0.2230 -0.3939  0.4047
  443TIP3    H122744   4.020   5.728   5.337 -1.4703 -1.5448  0.4232
  443TIP3    H222745   4.123   5.618   5.353  0.8346  0.5354  0.1702
  444TIP3   OH222746   4.544   0.595   3.672  0.7041 -0.1363  0.5802
  444TIP3    H122747   4.626   0.579   3.718  0.0059  0.7045  2.2051
  444TIP3    H222748   4.503   0.667   3.721 -0.8937 -0.3982 -0.3171
  445TIP3   OH222749   5.605   0.727   3.105  0.0860  0.3623 -0.1599
  445TIP3    H122750   5.588   0.733   3.199 -1.0325  1.2152 -0.4108
  445TIP3    H222751   5.680   0.668   3.099  0.1626  0.2785  1.2662
  446TIP3   OH222752   4.739   6.320  11.464 -0.1499  0.3661  0.4067
  446TIP3    H122753   4.827   6.354  11.479 -1.3804  3.5738  0.5556
  446TIP3    H222754   4.708   6.296  11.551  1.1988 -2.5880  0.1646
  447TIP3   OH222755   2.832   4.733  15.556  0.0322 -0.1400  0.6116
  447TIP3    H122756   2.916   4.733  15.511  0.1487 -0.5059  0.8241
  447TIP3    H222757   2.854   4.728  15.649 -0.2351 -0.8391  0.6419
  448TIP3   OH222758   4.078   2.131   1.298 -0.4341 -0.0960 -0.4894
  448TIP3    H122759   4.159   2.088   1.325 -0.9856  1.1896  3.4228
  448TIP3    H222760   4.106   2.216   1.264 -0.1265  0.2686  0.6728
  449TIP3   OH222761   1.888   0.512  11.299  0.0566 -0.6457  0.5141
  449TIP3    H122762   1.835   0.447  11.344 -0.5005  0.0332  0.8499
  449TIP3    H222763   1.833   0.591  11.298  0.6096 -0.2634 -0.1355
  450TIP3   OH222764   6.052   0.678   2.669 -0.0417  0.3415  0.6868
  450TIP3    H122765   6.048   0.681   2.765 -0.3290 -0.4491  0.6985
  450TIP3    H222766   5.979   0.622   2.644 -0.4762  1.2180 -0.0404
  451TIP3   OH222767   1.796   2.933   5.176 -0.2192 -0.1391 -0.0257
  451TIP3    H122768   1.815   2.990   5.250 -3.4294 -0.0146  0.7646
  451TIP3    H222769   1.780   2.992   5.102  0.4437 -0.1741 -0.2006
  452TIP3   OH222770   1.103   3.341  11.687  0.0658  0.5379 -0.2125
  452TIP3    H122771   1.062   3.255  11.698  0.1665  0.7209  1.6437
  452TIP3    H222772   1.145   3.358  11.771  2.6006  1.0685 -1.5696
  453TIP3   OH222773   3.232   4.014   1.450 -0.3644  0.3482 -0.1594
  453TIP3    H122774   3.214   4.107   1.467 -1.2838 -0.4678  3.7457
  453TIP3    H222775   3.145   3.976   1.437 -0.0203 -0.0626 -1.2460
  454TIP3   OH222776   3.800   5.898  11.904  0.0865  0.5778  0.6066
  454TIP3    H122777   3.854   5.963  11.949 -0.6166  1.0878  0.7247
  454TIP3    H222778   3.710   5.923  11.925 -0.2625  0.8517 -1.1219
  455TIP3   OH222779   0.321   6.372   0.781  0.3126  0.6698 -0.2885
  455TIP3    H122780   0.304   6.464   0.799 -1.7562  0.5587 -1.5837
  455TIP3    H222781   0.235   6.333   0.768  1.2914 -0.8826 -2.4409
  456TIP3   OH222782   4.529   2.997  13.609  0.5862 -0.2864 -0.0159
  456TIP3    H122783   4.453   3.053  13.594 -0.6084 -1.2255  2.2727
  456TIP3    H222784   4.513   2.920  13.555  0.7330  0.2429 -0.8194
  457TIP3   OH222785   3.925   6.432   4.076 -0.5903 -0.2767 -0.1242
  457TIP3    H122786   3.940   6.526   4.062 -1.3956 -0.0534  0.4924
  457TIP3    H222787   3.859   6.409   4.011 -1.7997  0.0095  0.9821
  458TIP3   OH222788   3.488   6.345  12.996  0.5289 -0.4139  1.2443
  458TIP3    H122789   3.496   6.307  12.909  0.6505  0.7761  0.7286
  458TIP3    H222790   3.439   6.426  12.983 -1.3843 -1.3216  2.6054
  459TIP3   OH222791   0.746   6.122   2.705 -0.1387  0.2980 -0.5108
  459TIP3    H122792   0.761   6.076   2.622  0.6327  0.4910 -0.4867
  459TIP3    H222793   0.667   6.081   2.741  0.9436 -1.5354 -0.1402
  460TIP3   OH222794   3.612   6.097  11.951  0.5591  0.3202 -0.1946
  460TIP3    H122795   3.523   6.085  11.983 -0.1071  0.4346 -1.9145
  460TIP3    H222796   3.646   6.172  12.001  0.3753 -0.8804  1.7792
  461TIP3   OH222797   3.350   0.901  11.072  0.0389 -0.7403  0.2490
  461TIP3    H122798   3.344   0.991  11.103 -1.6740 -0.4249 -0.9349
  461TIP3    H222799   3.381   0.908  10.982  0.5341 -1.3936  0.3597
  462TIP3   OH222800   0.058   4.954  14.909  0.0544  0.4308  0.0222
  462TIP3    H122801   0.025   4.921  14.826  0.1743  0.5411 -0.0690
  462TIP3    H222802  -0.019   4.959  14.966 -0.6139  3.3671 -1.0550
  463TIP3   OH222803   1.570   1.665   2.986  0.1467 -0.5004 -0.4834
  463TIP3    H122804   1.616   1.607   3.047  1.5415 -1.1401 -2.1286
  463TIP3    H222805   1.629   1.673   2.911 -1.8800 -0.3717 -2.1107
  464TIP3   OH222806   3.895   5.008   0.452 -0.5559 -0.2267 -0.5758
  464TIP3    H122807   3.827   4.941   0.449 -0.4139 -0.3983 -0.0721
  464TIP3    H222808   3.857   5.078   0.504  0.4432 -1.2474  1.6156
  465TIP3   OH222809   1.103   1.214  14.137 -0.4319  0.6779  0.0386
  465TIP3    H122810   1.138   1.282  14.194  0.5268  0.4564 -0.2728
  465TIP3    H222811   1.089   1.259  14.053  1.6745  0.1677 -0.6341
  466TIP3   OH222812   3.278   4.456   3.257 -0.0749  0.3540  0.9933
  466TIP3    H122813   3.291   4.410   3.174 -1.0630  1.7713  0.0204
  466TIP3    H222814   3.183   4.467   3.264  0.0826  1.4618  1.6249
  467TIP3   OH222815   3.268   5.378  14.625 -0.4857 -0.0203  0.2499
  467TIP3    H122816   3.198   5.363  14.561 -0.1275  0.8937 -0.3644
  467TIP3    H222817   3.222   5.400  14.706 -0.9404 -0.9684  0.2546
  468TIP3   OH222818   2.544   1.048   1.935 -0.2130 -0.3367 -0.3804
  468TIP3    H122819   2.586   1.130   1.963 -0.8325 -0.3237  0.5437
  468TIP3    H222820   2.549   1.050   1.840 -2.0917  1.7829 -0.4743
  469TIP3   OH222821   5.638   0.547  15.322 -0.7479 -0.4088 -0.3744
  469TIP3    H122822   5.659   0.602  15.247 -0.5305  0.4527  0.3083
  469TIP3    H222823   5.559   0.587  15.360 -1.7272 -1.6955 -0.9898
  470TIP3   OH222824   1.562   5.991   3.317 -0.3032  0.3775 -0.2538
  470TIP3    H122825   1.646   6.017   3.279  0.3191 -0.9946  0.1446
  470TIP3    H222826   1.541   5.908   3.274 -0.6969 -0.0560  0.7603
  471TIP3   OH222827   1.573   3.467  15.580 -0.0965  0.2131  0.3750
  471TIP3    H122828   1.520   3.391  15.605 -0.6640 -0.4977 -2.7664
  471TIP3    H222829   1.663   3.434  15.579 -0.1844 -0.0325  0.3967
  472TIP3   OH222830   5.892   4.027  13.071 -0.0021  0.5804 -0.2640
  472TIP3    H122831   5.952   3.979  13.015 -1.4677 -1.8993  0.2304
  472TIP3    H222832   5.806   4.016  13.030 -0.5391  1.8069  0.4946
  473TIP3   OH222833   4.036   4.202   5.352 -0.0095 -0.5658  0.3885
  473TIP3    H122834   4.129   4.182   5.345  0.4083  0.3434  2.7398
  473TIP3    H222835   4.022   4.215   5.446 -2.6535 -1.3359  0.1247
  474TIP3   OH222836   1.625   5.115   2.953  0.1193  0.5014  0.2153
  474TIP3    H122837   1.627   5.066   2.871 -0.0109  0.7305  0.0753
  474TIP3    H222838   1.533   5.138   2.965  0.3224  1.6345 -0.2699
  475TIP3   OH222839   1.936   3.896   0.199 -0.1648  0.1896 -0.0104
  475TIP3    H122840   2.022   3.929   0.226 -0.9011  0.8943  1.5200
  475TIP3    H222841   1.951   3.860   0.112  1.8550 -0.4085  0.5552
  476TIP3   OH222842   1.565   0.702  12.982  0.5377 -0.6101 -0.6009
  476TIP3    H122843   1.658   0.724  12.975 -0.0727  3.0106  1.3785
  476TIP3    H222844   1.563   0.619  13.030  2.6905 -0.0947  0.4295
  477TIP3   OH222845   5.634   4.349  14.010 -0.2718  0.4889  0.2966
  477TIP3    H122846   5.580   4.421  13.978 -0.8733 -0.3407 -0.5404
  477TIP3    H222847   5.629   4.357  14.106 -0.7943  1.2061  0.2155
  478TIP3   OH222848   5.439   2.511  12.587 -0.7834 -0.3764  0.5256
  478TIP3    H122849   5.390   2.445  12.636  0.9985 -1.8852  0.3282
  478TIP3    H222850   5.531   2.488  12.602 -0.1899 -0.2863 -2.6804
  479TIP3   OH222851   2.238   4.833  14.173 -0.1620  0.3442  0.2047
  479TIP3    H122852   2.328   4.859  14.150  0.0367 -0.0973  0.4827
  479TIP3    H222853   2.184   4.872  14.104  0.2202  0.8227  0.1770
  480TIP3   OH222854   3.538   2.743   3.762 -0.2389 -0.1404  0.1282
  480TIP3    H122855   3.597   2.669   3.748  0.7581  1.2057 -3.2964
  480TIP3    H222856   3.455   2.714   3.724 -0.3919 -0.2506  0.5550
  481TIP3   OH222857   1.995   0.598  14.033  0.0797 -0.0954  0.2835
  481TIP3    H122858   2.030   0.532  13.972 -1.1937 -1.6958  1.2401
  481TIP3    H222859   1.957   0.546  14.104  1.8773  1.7394  2.6601
  482TIP3   OH222860   1.151   6.465   0.479 -0.1135  0.3169  0.2395
  482TIP3    H122861   1.207   6.450   0.403  1.5992 -0.0708  1.5199
  482TIP3    H222862   1.090   6.533   0.452  0.3922  0.0933 -1.5028
  483TIP3   OH222863   3.548   1.667   3.289 -0.0809 -0.5430  0.3168
  483TIP3    H122864   3.540   1.750   3.242  3.0538  0.0557  0.7375
  483TIP3    H222865   3.553   1.600   3.220  0.9021 -0.0167 -0.1305
  484TIP3   OH222866   2.823   1.980   1.716  0.0554  0.0022 -0.1820
  484TIP3    H122867   2.818   1.927   1.637 -1.7650  0.7833 -0.6169
  484TIP3    H222868   2.809   1.918   1.788 -0.6159 -0.3373 -0.6063
  485TIP3   OH222869   2.155   5.420  11.263 -0.2277 -0.2630  0.4127
  485TIP3    H122870   2.110   5.436  11.180 -0.3828 -0.3335  0.4824
  485TIP3    H222871   2.248   5.423  11.242 -0.2682 -0.3374  0.2258
  486TIP3   OH222872   4.189   4.903  12.785 -0.1313 -0.0401 -0.3089
  486TIP3    H122873   4.255   4.836  12.801 -1.6620 -1.0835  1.8474
  486TIP3    H222874   4.119   4.883  12.847 -2.7208  0.7184 -2.9073
  487TIP3   OH222875   0.956   4.617   6.581 -0.3321  0.0078  0.0703
  487TIP3    H122876   1.044   4.597   6.549  0.2368  1.2295  0.8183
  487TIP3    H222877   0.902   4.624   6.502  0.5798  0.7577 -0.4933
  488TIP3   OH222878   2.433   2.892   4.608 -0.3248 -0.1835 -0.2398
  488TIP3    H122879   2.508   2.933   4.565 -0.9473 -0.0982 -1.2450
  488TIP3    H222880   2.367   2.961   4.614 -0.7975 -0.6079 -0.5184
  489TIP3   OH222881   4.915   5.956   4.098 -0.7089 -0.0048  0.3585
  489TIP3    H122882   4.828   5.967   4.136 -0.7627  0.1926  0.1749
  489TIP3    H222883   4.962   6.035   4.123 -1.3649  1.0512 -1.6785
  490TIP3   OH222884   1.100   5.286   4.034  0.4865 -0.2988 -0.5652
  490TIP3    H122885   1.081   5.237   4.114 -0.6345  0.7427 -0.1816
  490TIP3    H222886   1.187   5.324   4.049  1.5479 -2.4793 -1.0383
  491TIP3   OH222887   1.530   4.662  16.414 -0.6136 -0.0664  0.0096
  491TIP3    H122888   1.478   4.742  16.417 -2.6822 -1.3745 -0.0432
  491TIP3    H222889   1.579   4.668  16.332 -2.6337 -0.0008 -1.2017
  492TIP3   OH222890   1.852   4.276  15.007 -0.3660  0.2738 -0.4376
  492TIP3    H122891   1.778   4.216  15.016 -0.2688  0.2866  0.4530
  492TIP3    H222892   1.850   4.329  15.087 -1.4477  2.5941 -1.9140
  493TIP3   OH222893   0.600   4.934  12.786 -0.1165  0.1158  0.1375
  493TIP3    H122894   0.618   4.854  12.737 -1.4977 -0.6281  0.8382
  493TIP3    H222895   0.545   4.986  12.728  1.5768  1.0106 -0.7131
  494TIP3   OH222896   1.570   3.338  14.255 -0.1870  0.1494 -0.6636
  494TIP3    H122897   1.644   3.380  14.211  1.1891  0.5167  1.8723
  494TIP3    H222898   1.516   3.411  14.285 -0.2415 -0.0383 -0.3016
  495TIP3   OH222899   2.144   2.794   2.734  0.2366  0.2826 -0.1504
  495TIP3    H122900   2.208   2.828   2.797  0.1446 -1.1710  0.7448
  495TIP3    H222901   2.142   2.700   2.750 -0.8963  0.0923 -1.3256
  496TIP3   OH222902   5.105   6.425   4.761 -0.3414  0.7690 -0.0618
  496TIP3    H122903   5.050   6.502   4.775  1.0142  2.0027 -1.3006
  496TIP3    H222904   5.082   6.394   4.674 -0.9716 -0.2996  0.4867
  497TIP3   OH222905   4.351   1.216  14.294 -0.2557 -0.2335 -0.2611
  497TIP3    H122906   4.343   1.276  14.368  0.1818 -0.1005 -0.3216
  497TIP3    H222907   4.443   1.223  14.267 -1.1090  1.9198 -2.7008
  498TIP3   OH222908   6.491   3.484  16.607 -0.3413 -0.0213  0.3969
  498TIP3    H122909   6.504   3.552  16.540  2.5624 -1.5519 -0.6977
  498TIP3    H222910   6.406   3.445  16.585 -1.4068  2.3152  0.2205
  499TIP3   OH222911   6.139   3.070   1.763  0.3162  0.3072 -0.4218
  499TIP3    H122912   6.206   3.136   1.745  1.6198 -0.9225 -0.2013
  499TIP3    H222913   6.079   3.076   1.688  1.2060  0.7768 -1.1041
  500TIP3   OH222914   1.733   6.422  14.788  0.2829 -0.0078  0.0706
  500TIP3    H122915   1.792   6.353  14.759  1.4450  1.5213 -1.2700
  500TIP3    H222916   1.786   6.477  14.846 -0.0327  0.9078 -0.4914
  501TIP3   OH222917   3.741   0.544   5.036  0.3728  0.4858 -0.1172
  501TIP3    H122918   3.692   0.553   5.118 -1.8217 -0.0243 -1.3186
  501TIP3    H222919   3.829   0.574   5.057 -0.0657  0.0689  2.5002
  502TIP3   OH222920   2.156   3.512   1.350  0.2305 -1.1115  0.3003
  502TIP3    H122921   2.126   3.427   1.318  2.4612 -1.9239  0.3231
  502TIP3    H222922   2.210   3.547   1.279 -0.0540 -0.0475  0.5993
  503TIP3   OH222923   2.543   6.326  13.136 -0.0357 -0.1098 -0.0548
  503TIP3    H122924   2.527   6.233  13.116 -2.1387  0.3803 -0.8471
  503TIP3    H222925   2.512   6.372  13.058 -0.4553  1.3429  0.9485
  504TIP3   OH222926   3.817   4.441   4.350  0.5662 -0.2338 -0.6539
  504TIP3    H122927   3.900   4.456   4.395 -0.7739 -0.1809  1.8662
  504TIP3    H222928   3.795   4.350   4.369  0.5795 -0.5955 -2.2675
  505TIP3   OH222929   1.821   3.451   5.251 -0.0457 -0.1050  0.3555
  505TIP3    H122930   1.896   3.449   5.192  0.7049  0.8573  1.2736
  505TIP3    H222931   1.833   3.374   5.307 -0.6256 -0.8770 -0.5656
  506TIP3   OH222932   2.179   4.905  16.808  0.4131  0.1703 -0.6038
  506TIP3    H122933   2.102   4.952  16.778 -0.9490 -0.8226  1.2272
  506TIP3    H222934   2.203   4.848  16.735 -1.4350 -0.5207 -0.6871
  507TIP3   OH222935   1.252   0.997  11.481  0.1347 -0.6189 -0.3578
  507TIP3    H122936   1.237   0.904  11.465  2.3747 -0.9054 -0.8985
  507TIP3    H222937   1.318   1.022  11.417 -0.4853  1.3820 -0.2604
  508TIP3   OH222938   0.653   2.928   0.317  0.5037  0.0031 -0.3450
  508TIP3    H122939   0.675   2.867   0.387  0.9575  0.1194 -0.3878
  508TIP3    H222940   0.691   3.011   0.344  0.0066  0.2378 -0.3543
  509TIP3   OH222941   1.796   1.375  12.965 -0.0294 -0.2587 -0.2227
  509TIP3    H122942   1.750   1.396  13.047 -0.1683  1.2397 -0.6692
  509TIP3    H222943   1.860   1.445  12.955  1.4627 -1.6147 -0.3108
  510TIP3   OH222944   5.659   1.186  13.809 -0.0091  0.1490  0.5695
  510TIP3    H122945   5.711   1.206  13.886 -0.3067 -0.2964  0.8866
  510TIP3    H222946   5.719   1.198  13.735  0.2502  0.6566  0.8609
  511TIP3   OH222947   5.845   3.310  14.018  0.0483 -0.0120  0.0093
  511TIP3    H122948   5.920   3.271  13.973 -0.3339  0.5656 -1.1672
  511TIP3    H222949   5.777   3.313  13.950 -1.0174 -0.4796  1.0383
  512TIP3   OH222950   5.884   6.476   4.656 -0.3677  0.1087 -0.1056
  512TIP3    H122951   5.968   6.449   4.618 -1.6416 -2.2671 -1.3621
  512TIP3    H222952   5.908   6.520   4.737  2.0300 -2.4539  0.6689
  513TIP3   OH222953   6.440   1.599   6.144  0.1359 -0.0434 -0.0396
  513TIP3    H122954   6.506   1.662   6.172 -1.6654  1.4946  0.9036
  513TIP3    H222955   6.366   1.615   6.202 -0.9114 -2.0430 -0.7650
  514TIP3   OH222956   2.386   3.326   5.968 -0.2523  0.1358 -0.5811
  514TIP3    H122957   2.412   3.412   6.001 -0.7842  0.2260 -0.3937
  514TIP3    H222958   2.307   3.343   5.917 -0.0823 -0.1729 -0.9453
  515TIP3   OH222959   0.439   1.670   4.640 -0.1326  0.0483 -0.3604
  515TIP3    H122960   0.415   1.634   4.555 -1.6277  1.2511 -0.4815
  515TIP3    H222961   0.357   1.668   4.691  0.3654  0.8030  0.4978
  516TIP3   OH222962   5.812   2.087   4.372  0.5559  0.0656  0.2441
  516TIP3    H122963   5.907   2.097   4.363  0.5815  1.7355  1.9823
  516TIP3    H222964   5.783   2.168   4.414 -1.4634 -0.9653  0.9167
  517TIP3   OH222965   4.462   2.793  14.214  0.4779 -0.6076  0.3241
  517TIP3    H122966   4.541   2.778  14.265 -0.0798  0.0829  1.4063
  517TIP3    H222967   4.439   2.707  14.179  2.2093 -0.6565 -0.7473
  518TIP3   OH222968   3.910   4.362  16.597 -0.1797 -0.4245 -0.2542
  518TIP3    H122969   3.871   4.305  16.662  0.1305 -1.0291 -0.5962
  518TIP3    H222970   3.967   4.305  16.546  0.2927  0.2265 -0.4671
  519TIP3   OH222971   6.354   1.953   3.164 -0.6812  0.4680  0.4818
  519TIP3    H122972   6.414   2.008   3.215 -0.2976  0.2580  0.2654
  519TIP3    H222973   6.295   1.915   3.228  0.4978 -0.6777  0.9091
  520TIP3   OH222974   4.941   4.130  12.972  0.4781 -0.0801 -0.7263
  520TIP3    H122975   4.914   4.097  12.887  1.5108  0.4768 -1.2679
  520TIP3    H222976   5.036   4.138  12.967  0.5739 -0.2382  0.5441
  521TIP3   OH222977   6.232   3.399  13.734 -0.1563 -0.0738  0.1262
  521TIP3    H122978   6.171   3.431  13.667  0.2496  0.3352 -0.0485
  521TIP3    H222979   6.236   3.470  13.798  1.2881  0.5196 -0.6139
  522TIP3   OH222980   1.362   2.814   1.589 -0.3173 -0.1318 -0.0318
  522TIP3    H122981   1.404   2.891   1.628 -1.3305 -0.4763  1.8082
  522TIP3    H222982   1.269   2.823   1.612 -0.4436 -1.8801  0.1792
  523TIP3   OH222983   1.628   2.050  15.485 -0.3782 -0.4229 -0.1307
  523TIP3    H122984   1.717   2.019  15.472 -0.7571 -1.2865 -0.7109
  523TIP3    H222985   1.607   2.097  15.404 -0.6208 -0.6300 -0.1877
  524TIP3   OH222986   3.589   4.868  14.129 -0.2141  0.3843 -0.1039
  524TIP3    H122987   3.633   4.909  14.204  0.0720  0.0382 -0.0863
  524TIP3    H222988   3.628   4.781  14.122  0.6293  0.8577 -1.4227
  525TIP3   OH222989   0.159   5.308  15.862 -0.4998 -0.0704 -0.1143
  525TIP3    H122990   0.073   5.270  15.877 -0.4169 -0.0149  0.5363
  525TIP3    H222991   0.209   5.286  15.941 -0.1469  0.5453 -0.1613
  526TIP3   OH222992   6.390   4.018  13.736 -0.2810  0.0693  0.4451
  526TIP3    H122993   6.410   3.985  13.649 -1.7507  0.0652  0.1078
  526TIP3    H222994   6.475   4.044  13.772  0.6387 -2.2554 -0.0158
  527TIP3   OH222995   4.927   4.364  13.164  0.3440  0.4618 -0.5601
  527TIP3    H122996   4.912   4.308  13.088  0.4049  1.9555 -1.7066
  527TIP3    H222997   4.862   4.337  13.228 -0.0485 -0.4705 -1.3464
  528TIP3   OH222998   4.436   0.834   2.827  0.3296 -0.2273  0.3094
  528TIP3    H122999   4.377   0.879   2.767 -0.9332 -1.4263  0.6372
  528TIP3    H223000   4.495   0.903   2.859 -0.6960  0.9232 -0.2532
  529TIP3   OH223001   1.022   4.553   5.272 -0.0571 -0.1775 -0.2339
  529TIP3    H123002   0.994   4.489   5.337  0.0646  0.3793  0.3624
  529TIP3    H223003   0.941   4.593   5.241 -0.0161  0.5912  0.6340
  530TIP3   OH223004   2.824   2.493   1.757  0.3929 -0.0827 -0.1450
  530TIP3    H123005   2.848   2.506   1.848  1.0761 -2.1379 -0.0044
  530TIP3    H223006   2.881   2.553   1.709 -0.5214  1.5679  0.8238
  531TIP3   OH223007   5.589   0.122  17.218 -0.5009  0.1398 -0.1627
  531TIP3    H123008   5.535   0.070  17.160 -1.1904  1.2055 -0.4820
  531TIP3    H223009   5.542   0.121  17.302  0.3086 -1.0885  0.3100
  532TIP3   OH223010   2.151   1.398  11.871  0.1642 -0.5342 -0.4730
  532TIP3    H123011   2.224   1.365  11.923  2.2097  0.5141 -2.5640
  532TIP3    H223012   2.135   1.331  11.805 -0.5660 -0.6138 -0.2233
  533TIP3   OH223013   3.032   2.113   1.095 -0.6696 -0.0066 -0.5372
  533TIP3    H123014   3.082   2.108   1.176 -1.0226  0.7653 -0.2634
  533TIP3    H223015   2.979   2.192   1.105 -0.7729  0.0488 -1.4871
  534TIP3   OH223016   0.624   5.989  12.788  0.7344 -0.3205  0.3447
  534TIP3    H123017   0.601   5.941  12.709  2.6756 -2.9540  1.3236
  534TIP3    H223018   0.566   5.954  12.856 -0.7362  1.7330  0.2153
  535TIP3   OH223019   3.134   2.746  15.046 -0.2013  0.3946  0.3097
  535TIP3    H123020   3.187   2.765  15.124 -0.7658 -0.9146  1.0196
  535TIP3    H223021   3.193   2.696  14.989 -0.2027  0.2268  0.4552
  536TIP3   OH223022   2.671   3.824   5.168  0.1825 -0.0708  0.3540
  536TIP3    H123023   2.621   3.752   5.127 -1.3727  0.7601  0.7516
  536TIP3    H223024   2.604   3.877   5.211  1.4704  0.9186  1.1395
  537TIP3   OH223025   2.695   1.806   1.310  0.7239 -0.4944  0.7815
  537TIP3    H123026   2.655   1.891   1.291 -0.4570 -1.3164 -0.4375
  537TIP3    H223027   2.789   1.823   1.307  0.4949  0.7352  0.3928
  538TIP3   OH223028   5.524   6.502   0.096 -0.1827  0.0276  0.5326
  538TIP3    H123029   5.559   6.569   0.155 -0.9271  1.4233 -0.5695
  538TIP3    H223030   5.594   6.485   0.034 -0.6108  1.1839 -0.3099
  539TIP3   OH223031   0.283   1.479   1.749 -0.1021 -0.2573  0.2364
  539TIP3    H123032   0.360   1.458   1.697 -1.4747 -1.7242 -1.2644
  539TIP3    H223033   0.255   1.565   1.717  0.9196  0.2941  0.8096
  540TIP3   OH223034   5.154   3.749  11.662  0.1169  0.0464 -0.0833
  540TIP3    H123035   5.097   3.801  11.605 -0.1170  0.9464  0.9444
  540TIP3    H223036   5.232   3.803  11.673  0.7415 -0.7303 -0.6515
  541TIP3   OH223037   6.057   6.682  15.132  0.0862  0.2737 -0.2299
  541TIP3    H123038   6.075   6.592  15.157  0.0083  0.1784 -0.5189
  541TIP3    H223039   6.045   6.679  15.037  0.6740  0.6875 -0.3191
  542TIP3   OH223040   4.425   5.130   3.215 -0.0833  0.1881  0.1337
  542TIP3    H123041   4.378   5.063   3.167 -0.2819 -1.0642  2.0324
  542TIP3    H223042   4.390   5.125   3.304  0.9168  1.8409  0.6485
  543TIP3   OH223043   2.672   4.719   1.426 -0.6073 -0.2688 -0.0578
  543TIP3    H123044   2.658   4.789   1.362 -0.4891 -1.3484 -1.2858
  543TIP3    H223045   2.593   4.665   1.420  0.6341 -2.0002 -1.4045
  544TIP3   OH223046   0.234   6.300  14.471 -0.0030  0.2600 -0.2391
  544TIP3    H123047   0.151   6.265  14.438  0.1034  0.2167 -0.4679
  544TIP3    H223048   0.237   6.273  14.563 -0.8984  1.4925  0.1540
  545TIP3   OH223049   5.577   4.375   4.889 -0.4465 -0.3661  0.2220
  545TIP3    H123050   5.619   4.297   4.853 -0.0181 -0.8130  1.6837
  545TIP3    H223051   5.611   4.383   4.978 -0.1608  1.7249 -0.0379
  546TIP3   OH223052   2.456   0.977   4.104  0.3148  0.4909 -0.0982
  546TIP3    H123053   2.398   0.969   4.028 -2.0569  3.0558  1.3266
  546TIP3    H223054   2.531   0.922   4.083 -1.0281 -0.1576 -3.5750
  547TIP3   OH223055   4.263   1.698  16.770  0.5393 -0.3981  0.4260
  547TIP3    H123056   4.230   1.618  16.809 -1.1219 -0.1462 -0.4461
  547TIP3    H223057   4.244   1.690  16.676  0.9120  0.7386  0.2323
  548TIP3   OH223058   1.290   4.662  13.598  0.2065  0.6532  0.0631
  548TIP3    H123059   1.340   4.740  13.621  0.4432  0.3198  0.7094
  548TIP3    H223060   1.355   4.602  13.561 -0.0262  0.8674 -0.7009
  549TIP3   OH223061   2.093   6.253   4.923  0.0354 -0.0594 -0.6550
  549TIP3    H123062   2.048   6.173   4.897  0.4893 -0.1669 -1.1119
  549TIP3    H223063   2.167   6.260   4.863 -1.2176  1.8411 -2.0528
  550TIP3   OH223064   4.860   5.252  12.761  0.0498  0.2013 -0.1462
  550TIP3    H123065   4.806   5.177  12.739  0.8257 -0.4306  0.0853
  550TIP3    H223066   4.820   5.289  12.840  0.4954 -0.8246  0.5699
  551TIP3   OH223067   1.855   0.317  16.457  0.0471 -0.7668  0.4208
  551TIP3    H123068   1.802   0.372  16.399  1.3188  1.1832  1.0617
  551TIP3    H223069   1.945   0.332  16.429  0.5736 -0.7370  2.0886
  552TIP3   OH223070   1.387   0.121   2.279 -0.3376 -0.1725 -0.3368
  552TIP3    H123071   1.335   0.151   2.205 -1.1780  1.2216  0.7945
  552TIP3    H223072   1.468   0.172   2.273  0.0867 -0.9206 -0.9744
  553TIP3   OH223073   2.510   3.286  13.316 -0.3873 -0.4511  0.2745
  553TIP3    H123074   2.565   3.341  13.371 -1.7182  0.3657  0.8111
  553TIP3    H223075   2.572   3.232  13.266  0.9063  0.8678  0.4203
  554TIP3   OH223076   2.895   6.440   1.620  0.3175 -0.2822 -0.5517
  554TIP3    H123077   2.831   6.469   1.555 -0.5282 -1.1707 -0.1283
  554TIP3    H223078   2.851   6.455   1.704  0.9618 -0.1968 -0.2297
  555TIP3   OH223079   6.437   0.703   5.704  0.5772 -0.5819  0.1669
  555TIP3    H123080   6.431   0.628   5.763  0.3991 -0.6987 -0.0015
  555TIP3    H223081   6.400   0.776   5.753 -0.5788 -0.9060 -0.1963
  556TIP3   OH223082   5.790   6.170   5.638  0.2619 -0.4860  0.2553
  556TIP3    H123083   5.811   6.165   5.732 -0.9007  0.2816  0.5805
  556TIP3    H223084   5.744   6.088   5.619  2.6229 -1.7210 -0.2260
  557TIP3   OH223085   0.438   1.608   0.112  0.0186 -0.3256 -0.2144
  557TIP3    H123086   0.392   1.692   0.111  1.0300  0.2224 -0.4636
  557TIP3    H223087   0.496   1.613   0.188  1.7286  0.0906 -1.5198
  558TIP3   OH223088   1.279   1.696   0.205  0.3419 -0.0021 -0.1920
  558TIP3    H123089   1.295   1.789   0.190 -1.6210  0.5599  1.0680
  558TIP3    H223090   1.208   1.673   0.146 -0.8767 -0.0682  1.2488
  559TIP3   OH223091   4.012   1.588  12.217  0.1643 -0.5976  0.4633
  559TIP3    H123092   3.939   1.650  12.222  1.5462  1.2413 -1.2594
  559TIP3    H223093   3.970   1.502  12.212 -1.9008  0.4439 -0.8751
  560TIP3   OH223094   0.215   4.668   5.622 -0.0710  0.2460 -0.0463
  560TIP3    H123095   0.271   4.592   5.639 -1.0983 -0.6880 -0.7905
  560TIP3    H223096   0.277   4.740   5.609  1.0538 -1.0370 -2.1856
  561TIP3   OH223097   2.612   5.636  14.784 -0.1083  0.3683  0.5888
  561TIP3    H123098   2.538   5.679  14.741  0.4093  1.6814  0.9771
  561TIP3    H223099   2.596   5.542  14.773 -0.6054  0.6725 -1.4076
  562TIP3   OH223100   1.785   0.655  16.528 -0.3663 -0.4827 -0.2879
  562TIP3    H123101   1.854   0.720  16.516  1.6925 -2.5586  0.0568
  562TIP3    H223102   1.750   0.672  16.615  4.6920 -3.9276  2.6292
  563TIP3   OH223103   4.599   3.394  12.347  0.3158  0.4913  0.1336
  563TIP3    H123104   4.527   3.332  12.336  0.0078  1.0922 -1.3000
  563TIP3    H223105   4.626   3.383  12.438  0.2161 -1.6802 -0.0784
  564TIP3   OH223106   0.470   5.626  14.963 -0.5782 -0.2523  0.4288
  564TIP3    H123107   0.544   5.686  14.967 -1.4854  0.9020  0.1238
  564TIP3    H223108   0.436   5.623  15.052 -0.6016 -0.2419  0.4195
  565TIP3   OH223109   3.407   6.224  10.495 -0.0892 -0.2407 -0.1281
  565TIP3    H123110   3.422   6.284  10.567 -0.6011  0.8723 -0.9318
  565TIP3    H223111   3.375   6.143  10.536 -2.1353  0.9960  0.7577
  566TIP3   OH223112   0.218   2.677  14.155  0.0302 -0.3841 -0.4495
  566TIP3    H123113   0.153   2.652  14.089  1.0074  0.4838 -1.7722
  566TIP3    H223114   0.198   2.769  14.173  1.8727  0.3555 -2.0560
  567TIP3   OH223115   3.643   1.405   4.146 -0.0286  0.5788 -0.4435
  567TIP3    H123116   3.660   1.471   4.213 -0.8526 -0.4640  0.8331
  567TIP3    H223117   3.635   1.323   4.195  0.9521 -0.4767 -1.9905
  568TIP3   OH223118   5.163   2.956  11.653  0.8681  0.0279 -0.5612
  568TIP3    H123119   5.207   3.002  11.581  1.3402 -2.1251 -1.7304
  568TIP3    H223120   5.070   2.962  11.632  0.8901  0.8801 -0.4229
  569TIP3   OH223121   0.698   1.361  13.922  0.0221  0.0725  0.2392
  569TIP3    H123122   0.623   1.303  13.922  0.0900 -0.0253  1.4666
  569TIP3    H223123   0.770   1.308  13.888 -0.3989  0.0921 -0.6916
  570TIP3   OH223124   6.145   2.458  13.435  0.0927 -0.0087 -0.2653
  570TIP3    H123125   6.098   2.394  13.488 -0.9937 -0.0996 -1.3218
  570TIP3    H223126   6.225   2.477  13.486 -0.0636 -1.4176  0.5388
  571TIP3   OH223127   3.150   6.212  11.434 -0.3345 -0.0239 -0.1012
  571TIP3    H123128   3.094   6.287  11.415  0.3528  0.0895 -1.7623
  571TIP3    H223129   3.093   6.136  11.422 -0.3742  0.1295 -0.9037
  572TIP3   OH223130   3.783   3.705  11.059  0.0854 -0.1699  0.2915
  572TIP3    H123131   3.750   3.777  11.113 -2.4192 -3.2351  3.1228
  572TIP3    H223132   3.758   3.729  10.970  0.8498  3.2323  0.9206
  573TIP3   OH223133   2.994   0.023  14.913 -0.0300 -0.6137 -0.3161
  573TIP3    H123134   3.025   0.112  14.930 -1.0425 -0.3890  0.3739
  573TIP3    H223135   3.032   0.000  14.828  0.3712  0.4116 -0.4138
  574TIP3   OH223136   5.636   2.920   4.548 -0.0632  0.6184  0.7376
  574TIP3    H123137   5.731   2.920   4.556 -0.1383  0.3870  1.6866
  574TIP3    H223138   5.612   2.827   4.554 -0.1402  0.3887 -2.2939
  575TIP3   OH223139   1.552   2.568  14.431 -0.3750 -0.2350  0.3874
  575TIP3    H123140   1.463   2.573  14.466  0.6641  3.1049  2.8328
  575TIP3    H223141   1.546   2.608  14.344 -1.2600 -0.0589  0.5216
  576TIP3   OH223142   0.207   2.822   0.043  0.4206  0.5557 -0.4431
  576TIP3    H123143   0.183   2.760   0.112  0.5369  0.7337 -0.2446
  576TIP3    H223144   0.283   2.869   0.077  1.2771 -0.2423 -1.2059
  577TIP3   OH223145   3.075   2.745  16.323 -0.2967 -0.0471 -0.1911
  577TIP3    H123146   3.108   2.754  16.234  0.2604 -0.8554 -0.0704
  577TIP3    H223147   3.115   2.664  16.355 -1.0169 -0.1144  0.5617
  578TIP3   OH223148   0.053   3.468  13.167  0.5828  0.0191 -0.5056
  578TIP3    H123149   0.085   3.413  13.238 -1.0518 -0.6122 -0.2334
  578TIP3    H223150   0.009   3.407  13.107 -0.7970  0.9301 -0.4567
  579TIP3   OH223151   5.889   6.036  11.582  0.6793  0.1342 -0.0120
  579TIP3    H123152   5.908   5.943  11.572  3.5431  0.5978  0.6342
  579TIP3    H223153   5.861   6.065  11.495  2.3168 -0.8027 -0.8681
  580TIP3   OH223154   4.511   0.239   4.925 -0.5073 -0.3651  0.6576
  580TIP3    H123155   4.512   0.144   4.935 -3.1845 -0.4137  0.7346
  580TIP3    H223156   4.553   0.271   5.006  1.0425 -1.4568  0.3229
  581TIP3   OH223157   1.450   5.329   1.250  0.7780  0.0865 -0.0339
  581TIP3    H123158   1.389   5.359   1.182 -1.2789 -0.4755  1.5060
  581TIP3    H223159   1.449   5.400   1.315  0.6067 -0.5940  0.7091
  582TIP3   OH223160   4.015   5.861   4.551 -0.3559 -0.5609 -0.4931
  582TIP3    H123161   4.088   5.923   4.555  0.4980 -1.5950  0.1071
  582TIP3    H223162   3.986   5.852   4.642 -1.1384 -0.2810 -0.7075
  583TIP3   OH223163   4.725   2.493   0.256 -0.5317  0.0154  0.3499
  583TIP3    H123164   4.753   2.560   0.194  0.2703 -2.4895 -2.0906
  583TIP3    H223165   4.804   2.472   0.306 -0.4957  0.1280  0.3389
  584TIP3   OH223166   5.471   1.418   0.384  0.0675  0.1215  0.1775
  584TIP3    H123167   5.376   1.424   0.377  0.2166  0.4943 -2.2523
  584TIP3    H223168   5.496   1.355   0.316  1.5170 -0.2821  1.0658
  585TIP3   OH223169   3.109   5.877   2.424 -0.4362 -0.6427 -0.0484
  585TIP3    H123170   3.090   5.808   2.361 -0.0586  0.4096 -1.3383
  585TIP3    H223171   3.204   5.874   2.437 -0.3015  0.2190 -0.8042
  586TIP3   OH223172   5.149   1.496  11.210 -0.4902 -0.4526 -0.6132
  586TIP3    H123173   5.211   1.568  11.214  1.3044 -1.9040 -1.3525
  586TIP3    H223174   5.185   1.431  11.271 -2.0491 -0.7607  0.0085
  587TIP3   OH223175   5.799   0.593   1.929  0.7303 -0.0815  0.2243
  587TIP3    H123176   5.787   0.501   1.902  2.6802 -0.3522  0.2488
  587TIP3    H223177   5.793   0.643   1.847  1.9722 -0.4506 -0.0929
  588TIP3   OH223178   0.928   3.982  10.401  0.3731  0.1809 -0.5288
  588TIP3    H123179   0.878   4.018  10.327  0.8215  2.8326  0.4184
  588TIP3    H223180   0.868   3.921  10.443 -1.5309  2.0780 -0.4093
  589TIP3   OH223181   0.894   2.835  13.886  0.1763  0.2166 -0.5302
  589TIP3    H123182   0.825   2.898  13.867 -1.1500 -1.4583 -1.2963
  589TIP3    H223183   0.848   2.755  13.911  1.8446 -0.3305  0.9286
  590TIP3   OH223184   4.525   4.880  10.898  0.2080 -0.6243  0.4053
  590TIP3    H123185   4.444   4.932  10.904  0.9258  0.6726 -0.9984
  590TIP3    H223186   4.529   4.851  10.807  0.7447 -1.6666  0.7490
  591TIP3   OH223187   5.173   3.764  12.562 -0.2444 -0.2336 -0.0158
  591TIP3    H123188   5.166   3.668  12.567 -1.4848 -0.2594 -1.8154
  591TIP3    H223189   5.087   3.795  12.590 -0.4005  0.2867 -1.0554
  592TIP3   OH223190   6.019   3.189  13.855  0.7251  0.2396 -0.5085
  592TIP3    H123191   5.972   3.226  13.780 -1.1794 -1.4419 -0.1627
  592TIP3    H223192   6.086   3.133  13.817 -0.2199 -0.5838 -0.9721
  593TIP3   OH223193   6.364   1.307  12.622  0.2042 -0.3184 -0.6301
  593TIP3    H123194   6.333   1.394  12.600  1.5384  0.2692 -0.2695
  593TIP3    H223195   6.355   1.301  12.717 -0.5392 -0.8487 -0.7246
  594TIP3   OH223196   2.492   5.153   0.454 -0.0999  0.5572 -0.3193
  594TIP3    H123197   2.429   5.133   0.523  0.5306  1.7260  0.6082
  594TIP3    H223198   2.514   5.245   0.468  2.9024 -0.2101  0.2901
  595TIP3   OH223199   4.800   3.133  16.047 -0.2509 -0.1477  0.5005
  595TIP3    H123200   4.705   3.127  16.052 -0.1865 -1.5148  0.5178
  595TIP3    H223201   4.823   3.208  16.101 -1.2341 -0.5060  1.4178
  596TIP3   OH223202   1.021   1.750   2.627 -0.3373  0.9915  0.0228
  596TIP3    H123203   1.066   1.824   2.587  0.3724  0.5275 -0.0603
  596TIP3    H223204   1.011   1.775   2.719 -1.5248  1.8484 -0.3358
  597TIP3   OH223205   2.575   6.340  11.867  0.6591 -0.5305 -0.2651
  597TIP3    H123206   2.595   6.404  11.935  1.4044 -0.6166 -0.3913
  597TIP3    H223207   2.480   6.336  11.865  0.6354 -1.4170  1.5925
  598TIP3   OH223208   4.895   4.485  15.213 -0.3016 -0.5360 -0.7944
  598TIP3    H123209   4.819   4.427  15.201 -0.2974 -0.7151  0.0380
  598TIP3    H223210   4.862   4.573  15.195  0.3486 -1.0432 -4.9335
  599TIP3   OH223211   1.398   3.895  11.086 -0.3512 -0.0560 -0.5733
  599TIP3    H123212   1.339   3.959  11.045  0.4998 -0.3141 -2.2389
  599TIP3    H223213   1.373   3.812  11.046 -0.4284 -0.5370  0.4676
  600TIP3   OH223214   5.368   5.446  15.938 -0.6176 -0.1241  0.2938
  600TIP3    H123215   5.292   5.388  15.928 -0.2118 -0.6691  0.3051
  600TIP3    H223216   5.370   5.497  15.857 -0.1340 -1.1656 -0.3760
  601TIP3   OH223217   4.639   5.011  12.275  0.2391  0.3916  0.0888
  601TIP3    H123218   4.695   5.029  12.350  2.0801 -0.7049 -0.9970
  601TIP3    H223219   4.694   5.028  12.199 -2.1507  3.3632 -1.1155
  602TIP3   OH223220   2.231   3.984   0.731  0.2469 -0.0816  0.2164
  602TIP3    H123221   2.241   4.074   0.761 -0.3323  0.5023 -1.3033
  602TIP3    H223222   2.306   3.970   0.672  0.2188 -0.5171  0.2832
  603TIP3   OH223223   5.796   1.759   6.336 -0.2173 -0.4607  0.1110
  603TIP3    H123224   5.853   1.683   6.322  0.5603  0.0660  0.3892
  603TIP3    H223225   5.780   1.760   6.430  0.1680 -0.0001  0.1728
  604TIP3   OH223226   6.285   0.092  17.018 -0.1021 -0.4197  0.4101
  604TIP3    H123227   6.247   0.042  17.090 -3.1190 -0.9744 -1.4641
  604TIP3    H223228   6.351   0.033  16.981 -1.7749 -2.0261 -0.1157
  605TIP3   OH223229   6.661   3.960  14.369 -0.2536 -0.5225  0.0496
  605TIP3    H123230   6.742   4.010  14.360 -0.3616 -0.2386  0.6693
  605TIP3    H223231   6.681   3.894  14.434 -0.2567 -1.0002 -0.4286
  606TIP3   OH223232   6.496   0.294   2.793 -0.0975  0.3468 -0.0689
  606TIP3    H123233   6.539   0.374   2.764  1.6482 -0.9649 -1.2105
  606TIP3    H223234   6.554   0.223   2.763 -1.7180 -1.3501  0.6925
  607TIP3   OH223235   5.730   5.698   3.739 -0.3278  0.2685  0.3322
  607TIP3    H123236   5.778   5.617   3.756 -1.7396 -0.5270  0.5753
  607TIP3    H223237   5.638   5.672   3.740 -0.7443  1.6259 -0.9129
  608TIP3   OH223238   0.309   5.002   0.993  0.1089  0.2063  0.0971
  608TIP3    H123239   0.400   5.011   1.021  1.2917 -1.4195 -2.9006
  608TIP3    H223240   0.281   4.917   1.027 -0.1844  0.5303  0.6802
  609TIP3   OH223241   1.938   1.496   0.189  0.2781 -0.3574 -0.4307
  609TIP3    H123242   1.930   1.556   0.115 -2.5218  1.7073  1.4264
  609TIP3    H223243   1.881   1.422   0.166 -0.7431  0.3703 -0.2726
  610TIP3   OH223244   0.919   3.942   4.028 -0.0095  0.6321  0.1636
  610TIP3    H123245   0.989   3.899   4.077 -0.4243 -0.2820 -0.0364
  610TIP3    H223246   0.839   3.921   4.076 -0.5043 -0.8660 -1.2712
  611TIP3   OH223247   0.535   5.020   4.980  0.0043  1.0841  0.3783
  611TIP3    H123248   0.626   4.991   4.980 -0.2167  0.3703 -0.9125
  611TIP3    H223249   0.538   5.108   5.019  1.4300  1.6203 -0.9130
  612TIP3   OH223250   3.003   6.656   5.055 -0.2482 -0.5519  0.3294
  612TIP3    H123251   2.946   6.733   5.047 -1.3221 -1.3269  0.3669
  612TIP3    H223252   3.061   6.660   4.980 -1.5074 -0.6770 -0.6674
  613TIP3   OH223253   4.500   4.472  13.305  0.7125  0.4112  0.9203
  613TIP3    H123254   4.435   4.409  13.337  0.9979 -0.3418  0.0372
  613TIP3    H223255   4.550   4.497  13.383 -0.9459  1.3865  1.7120
  614TIP3   OH223256   5.819   3.778  15.905 -0.3801 -0.1458  0.0875
  614TIP3    H123257   5.826   3.864  15.946 -1.5583 -0.2876  0.5899
  614TIP3    H223258   5.750   3.733  15.954 -0.1214 -1.1980 -0.4947
  615TIP3   OH223259   5.951   6.434   1.250 -0.8170 -0.0356  0.0739
  615TIP3    H123260   5.889   6.373   1.291 -1.7838  1.5578  1.0488
  615TIP3    H223261   5.899   6.479   1.184 -0.0114 -0.4939 -0.8900
  616TIP3   OH223262   3.882   3.700  13.453  0.4557  0.4199 -0.0255
  616TIP3    H123263   3.868   3.702  13.548 -0.2029 -0.0114 -0.1110
  616TIP3    H223264   3.800   3.734  13.416  1.2271  1.9093 -0.4003
  617TIP3   OH223265   6.436   0.140  15.798 -0.4606  0.1801 -0.0249
  617TIP3    H123266   6.389   0.132  15.881 -1.3185  0.3035 -0.4924
  617TIP3    H223267   6.381   0.092  15.735  0.8340 -1.0289 -0.2615
  618TIP3   OH223268   3.450   5.939  13.733  0.3567 -0.1295  0.2730
  618TIP3    H123269   3.458   6.033  13.749 -0.5262  0.1915 -1.0838
  618TIP3    H223270   3.497   5.924  13.651  0.8694 -0.9584  0.7027
  619TIP3   OH223271   6.277   3.477  14.351  0.0344 -0.0166  0.5847
  619TIP3    H123272   6.313   3.428  14.277 -0.0042  0.3297  0.3360
  619TIP3    H223273   6.266   3.411  14.420  0.4986 -0.2556  0.4363
  620TIP3   OH223274   5.285   3.635  12.186  0.1695  0.5240  0.0084
  620TIP3    H123275   5.309   3.686  12.108  1.0628  1.7882  1.0975
  620TIP3    H223276   5.209   3.680  12.222 -0.6802 -0.4710 -0.5151
  621TIP3   OH223277   0.099   3.602  15.856 -0.0416  0.2098  0.2971
  621TIP3    H123278   0.022   3.627  15.907 -1.1631  0.7259 -1.6266
  621TIP3    H223279   0.081   3.631  15.767  3.0290  1.7266  0.0738
  622TIP3   OH223280   2.169   5.792   3.297 -0.4015  0.5313 -0.1562
  622TIP3    H123281   2.235   5.822   3.234  0.4955 -1.0150  0.0123
  622TIP3    H223282   2.101   5.752   3.243  0.4274 -0.9071 -0.1564
  623TIP3   OH223283   1.071   3.602  10.957 -0.0441  1.0312 -0.9868
  623TIP3    H123284   1.151   3.653  10.945 -0.4719  1.6025 -1.3936
  623TIP3    H223285   1.031   3.599  10.870 -1.2648  2.0638 -0.4754
  624TIP3   OH223286   3.845   4.019  16.405  0.0570  0.2538 -0.2122
  624TIP3    H123287   3.832   4.096  16.350  1.5641  0.8255  0.2088
  624TIP3    H223288   3.883   3.953  16.347 -1.6267 -0.3368 -0.6767
  625TIP3   OH223289   3.517   4.176  11.782 -0.1832 -0.2811  0.3158
  625TIP3    H123290   3.435   4.128  11.782 -0.3649 -0.0111 -1.1356
  625TIP3    H223291   3.579   4.119  11.736 -0.0978  0.3548 -0.3767
  626TIP3   OH223292   5.935   0.078   4.160 -0.0709  0.2524 -0.1703
  626TIP3    H123293   5.855   0.129   4.175 -1.4181 -2.2182  1.3764
  626TIP3    H223294   5.961   0.100   4.070 -2.2886  1.3793 -0.5769
  627TIP3   OH223295   1.861   4.732  16.452  0.1581 -0.8584  0.4609
  627TIP3    H123296   1.942   4.770  16.487  0.5603 -0.4997 -0.8434
  627TIP3    H223297   1.795   4.751  16.519  0.7942  0.3484  0.7673
  628TIP3   OH223298   2.189   6.133   0.554 -0.3145 -0.7312 -0.0169
  628TIP3    H123299   2.203   6.212   0.605  0.0012 -0.1791 -0.9608
  628TIP3    H223300   2.276   6.100   0.533 -0.4392 -1.6936  0.9262
  629TIP3   OH223301   3.889   2.482  16.262  0.0216 -0.2682  0.1783
  629TIP3    H123302   3.920   2.400  16.225  2.8782  0.2838  1.2063
  629TIP3    H223303   3.937   2.491  16.345 -1.5198  1.5978  0.9163
  630TIP3   OH223304   2.546   3.314   4.118 -0.4301 -0.1673 -0.1550
  630TIP3    H123305   2.589   3.321   4.203  0.4286  0.4211 -0.6334
  630TIP3    H223306   2.475   3.252   4.132  0.0522 -0.4944  0.8542
  631TIP3   OH223307   6.750   6.496  14.559  0.1889  0.3825  0.0309
  631TIP3    H123308   6.760   6.573  14.614 -1.1702  0.5245  0.1033
  631TIP3    H223309   6.821   6.502  14.495 -0.1729  1.9196 -0.2440
  632TIP3   OH223310   5.377   0.802  14.839  0.1830 -0.1958  0.3676
  632TIP3    H123311   5.312   0.747  14.882  1.5112 -2.1990 -0.1586
  632TIP3    H223312   5.382   0.768  14.750  0.9931  0.8185  0.0174
  633TIP3   OH223313   3.050   4.800  14.195 -0.4590  0.2487 -0.5065
  633TIP3    H123314   3.062   4.736  14.265 -0.3957  0.0973 -0.6556
  633TIP3    H223315   3.046   4.884  14.240 -0.9962  0.0978 -0.2719
  634TIP3   OH223316   5.773   3.991  14.977  0.1919 -0.4862  0.1626
  634TIP3    H123317   5.785   4.083  15.003 -0.6298 -0.6018  0.9869
  634TIP3    H223318   5.756   3.945  15.059 -0.2544 -1.2286 -0.3410
  635TIP3   OH223319   6.269   5.621  14.822  0.0886 -0.3624  0.0965
  635TIP3    H123320   6.330   5.551  14.846  0.2506 -0.2021  0.1506
  635TIP3    H223321   6.183   5.588  14.850  0.4104  0.2961  1.9373
  636TIP3   OH223322   2.029   6.133   1.200 -0.4937 -0.2787  0.5202
  636TIP3    H123323   2.097   6.180   1.249 -0.6976  0.9273 -0.3156
  636TIP3    H223324   1.949   6.146   1.250 -0.6422  0.6975  0.0528
  637TIP3   OH223325   1.060   4.605   1.538  0.4134 -0.2330 -0.1600
  637TIP3    H123326   0.965   4.612   1.551  0.3650  0.9690 -1.0915
  637TIP3    H223327   1.092   4.565   1.619 -1.1917 -3.0980 -0.8648
  638TIP3   OH223328   2.305   5.944  15.035  0.0158  0.0823 -0.0549
  638TIP3    H123329   2.222   5.910  15.002 -0.3076  0.7633  0.0295
  638TIP3    H223330   2.365   5.939  14.960 -0.2740  0.1629 -0.2923
  639TIP3   OH223331   1.441   2.345  12.970  0.3269  0.1948  0.2212
  639TIP3    H123332   1.361   2.366  12.922  0.6385  0.5632 -0.1383
  639TIP3    H223333   1.477   2.430  12.996  0.9122  0.0565 -0.1274
  640TIP3   OH223334   4.572   5.233  15.049 -0.0874  0.0475 -0.4188
  640TIP3    H123335   4.480   5.210  15.058  0.0826 -0.6385 -0.4413
  640TIP3    H223336   4.580   5.316  15.096  0.1811 -2.0382  3.3969
  641TIP3   OH223337   2.845   6.552   0.551  0.0636 -0.4286 -0.5963
  641TIP3    H123338   2.913   6.614   0.527  0.2334 -0.7887 -1.0402
  641TIP3    H223339   2.771   6.607   0.577  0.7906 -0.0272  0.6988
  642TIP3   OH223340   5.443   3.331  12.487  0.2503 -0.2100  0.3844
  642TIP3    H123341   5.349   3.313  12.482 -0.0944  1.0751  1.9821
  642TIP3    H223342   5.458   3.400  12.422  0.4669 -1.7794 -1.2805
  643TIP3   OH223343   4.378   1.590  14.450  0.0195  0.3146 -0.4321
  643TIP3    H123344   4.343   1.582  14.539 -1.2680 -2.4543 -1.1149
  643TIP3    H223345   4.466   1.554  14.455 -0.8656 -1.9739 -0.6897
  644TIP3   OH223346   2.552   3.811  13.105  0.2307  0.1335  0.5115
  644TIP3    H123347   2.476   3.842  13.055 -0.7382 -1.0340  1.2371
  644TIP3    H223348   2.616   3.785  13.039 -0.1505  0.7602 -0.1092
  645TIP3   OH223349   6.590   0.773   4.856 -0.0336 -0.0881 -0.2471
  645TIP3    H123350   6.614   0.793   4.766  0.4051  0.4963 -0.0010
  645TIP3    H223351   6.631   0.687   4.873  0.1745 -0.0365 -0.4894
  646TIP3   OH223352   6.018   6.056   3.039 -0.1524 -0.2709  0.2162
  646TIP3    H123353   5.984   5.967   3.030  0.3669 -0.1851 -3.4275
  646TIP3    H223354   5.958   6.109   2.986  1.9357  0.8597 -1.0838
  647TIP3   OH223355   3.932   3.537   5.787 -0.0011  0.0541 -0.4157
  647TIP3    H123356   3.847   3.515   5.748 -0.2009 -1.1872  0.6986
  647TIP3    H223357   3.985   3.458   5.774 -0.2564 -0.6073  2.3250
  648TIP3   OH223358   6.728   1.225   3.471 -0.1952 -0.3433 -0.5424
  648TIP3    H123359   6.719   1.185   3.384  0.7157 -1.8145  0.0135
  648TIP3    H223360   6.698   1.315   3.459 -1.4564 -0.9398 -2.0419
  649TIP3   OH223361   4.023   5.929  10.712  0.4023 -0.3105  0.4629
  649TIP3    H123362   3.945   5.875  10.727  2.0572 -3.2852 -1.1118
  649TIP3    H223363   4.064   5.936  10.798  0.0205 -1.3147  0.7306
  650TIP3   OH223364   1.823   2.042   2.858 -0.2233 -0.1426 -1.2146
  650TIP3    H123365   1.869   1.962   2.833  0.5655 -0.6252  1.5900
  650TIP3    H223366   1.758   2.013   2.923  0.0235  1.4713 -0.2253
  651TIP3   OH223367   2.817   6.246   5.227 -0.0931 -0.5183  0.1675
  651TIP3    H123368   2.884   6.308   5.254 -0.6658 -0.0185  0.4249
  651TIP3    H223369   2.831   6.236   5.132 -0.5458  0.6497 -0.0248
  652TIP3   OH223370   1.284   0.894   1.095 -0.6040 -0.2795 -0.2837
  652TIP3    H123371   1.235   0.968   1.131  1.5478  1.9101 -1.6170
  652TIP3    H223372   1.351   0.935   1.040  0.6423 -3.2572 -1.0933
  653TIP3   OH223373   6.155   3.000   4.845  0.1438  0.4521 -0.2594
  653TIP3    H123374   6.247   3.020   4.864 -0.2151 -0.1477  2.2728
  653TIP3    H223375   6.127   2.945   4.918 -1.5089 -1.5538 -2.3574
  654TIP3   OH223376   4.601   3.027  17.175 -0.1232 -0.1157  0.6184
  654TIP3    H123377   4.552   3.040  17.094  1.0551 -0.0247 -0.1020
  654TIP3    H223378   4.597   3.111  17.220 -0.6439 -0.1206  0.5782
  655TIP3   OH223379   3.700   4.841  17.213  0.6524 -0.0486 -0.1470
  655TIP3    H123380   3.776   4.783  17.216  1.6092  1.2454  1.2084
  655TIP3    H223381   3.693   4.875  17.302 -0.8777  0.6616 -0.5331
  656TIP3   OH223382   5.788   0.444  14.821  0.5159  0.3210  0.6200
  656TIP3    H123383   5.852   0.423  14.753  0.3295 -1.4008  0.9621
  656TIP3    H223384   5.726   0.503  14.777 -0.3188 -1.7579 -1.1124
  657TIP3   OH223385   3.227   1.558  11.126  0.1872  0.5419  0.3560
  657TIP3    H123386   3.162   1.492  11.152 -0.2027  0.9797  0.4967
  657TIP3    H223387   3.176   1.623  11.078  0.4707  1.0462  0.7401
  658TIP3   OH223388   1.672   0.359  11.396 -0.0985  0.2116  0.8759
  658TIP3    H123389   1.672   0.308  11.477 -1.6690  0.0108  0.7640
  658TIP3    H223390   1.584   0.348  11.361 -0.0407  1.8941  0.1578
  659TIP3   OH223391   4.221   2.579  15.851  0.2125  0.0986 -0.3149
  659TIP3    H123392   4.282   2.644  15.817 -0.4718  1.2143  0.5874
  659TIP3    H223393   4.172   2.624  15.920 -1.2961 -0.9232 -0.6816
  660TIP3   OH223394   3.912   0.485   1.394  0.3485 -0.2245  0.1998
  660TIP3    H123395   3.998   0.525   1.377  0.5603 -0.3307  0.9985
  660TIP3    H223396   3.917   0.456   1.485 -0.9580  0.8171  0.6107
  661TIP3   OH223397   2.792   3.769   1.131  0.4794  0.4334 -0.3095
  661TIP3    H123398   2.738   3.767   1.052  1.6413 -0.3116 -1.1080
  661TIP3    H223399   2.799   3.677   1.157  0.5494  0.6267  0.3500
  662TIP3   OH223400   5.834   2.176  12.395 -0.5961  0.6018 -0.0701
  662TIP3    H123401   5.762   2.121  12.426 -0.2355 -0.2736 -0.7681
  662TIP3    H223402   5.889   2.117  12.343  1.1383  1.0205  1.2375
  663TIP3   OH223403   3.503   5.314  15.209  0.2955 -0.5206  0.2131
  663TIP3    H123404   3.588   5.320  15.166 -0.1516 -0.8217 -0.7388
  663TIP3    H223405   3.496   5.394  15.260  0.2568  0.5387 -1.4088
  664TIP3   OH223406   5.034   5.648  10.651 -0.2102  0.3150  0.5951
  664TIP3    H123407   5.015   5.702  10.728  0.2222  0.6252  0.4821
  664TIP3    H223408   5.000   5.699  10.577 -0.1177  0.2704  0.5220
  665TIP3   OH223409   6.461   6.224   1.419 -0.0576  0.3995 -0.0932
  665TIP3    H123410   6.497   6.231   1.331  1.6747  1.4177  0.6590
  665TIP3    H223411   6.410   6.143   1.418  1.7233 -0.7478 -1.4168
  666TIP3   OH223412   4.645   4.095  11.020  0.0793  0.5237 -0.5115
  666TIP3    H123413   4.552   4.076  11.032 -0.5536  2.7237 -1.7165
  666TIP3    H223414   4.685   4.069  11.102 -1.6200 -0.3350  0.0820
  667TIP3   OH223415   2.421   0.738  14.749 -0.2936  0.8207 -0.3854
  667TIP3    H123416   2.341   0.690  14.774 -0.6378  1.8748  0.5580
  667TIP3    H223417   2.389   0.818  14.709  0.2930  0.3573 -1.8240
  668TIP3   OH223418   1.777   0.372  14.660  0.4788  0.0220  0.3304
  668TIP3    H123419   1.736   0.380  14.747  2.1098 -0.0381  1.1267
  668TIP3    H223420   1.806   0.462  14.640 -0.6634  0.1936 -0.5354
  669TIP3   OH223421   3.247   3.922   3.079 -0.2519 -0.2686 -0.1402
  669TIP3    H123422   3.202   4.003   3.104  1.4238  0.7065 -0.1932
  669TIP3    H223423   3.321   3.951   3.025  0.6548 -1.7816  0.2519
  670TIP3   OH223424   3.944   0.187  11.870  0.5853 -0.1943  0.0241
  670TIP3    H123425   3.988   0.208  11.952 -2.9843 -0.2990  2.0625
  670TIP3    H223426   3.957   0.265  11.815  0.9643  0.8759  1.6013
  671TIP3   OH223427   6.642   4.525  11.275 -0.1843  0.4635  0.0991
  671TIP3    H123428   6.602   4.449  11.233  0.9544 -0.6453  0.9465
  671TIP3    H223429   6.725   4.492  11.309  0.6660  2.2750 -0.1384
  672TIP3   OH223430   3.350   3.794  15.406  0.2033 -0.5440 -0.1600
  672TIP3    H123431   3.289   3.837  15.345  0.6308  0.7644  0.3085
  672TIP3    H223432   3.337   3.700  15.391 -0.6464 -0.2581 -1.3265
  673TIP3   OH223433   3.462   1.982  11.768  0.3249  0.2353  0.4556
  673TIP3    H123434   3.552   1.951  11.766  0.7280  1.3970  0.9450
  673TIP3    H223435   3.414   1.918  11.715  1.0985 -1.4304  1.7208
  674TIP3   OH223436   0.455   3.476   6.171 -0.2252 -0.0044 -0.1084
  674TIP3    H123437   0.445   3.566   6.140 -1.0158  0.2107  0.7679
  674TIP3    H223438   0.390   3.467   6.240 -1.9836 -2.0381 -1.9431
  675TIP3   OH223439   2.310   5.384   5.281 -0.0993  0.6307  0.4814
  675TIP3    H123440   2.264   5.461   5.248 -1.3803  0.1942  1.2123
  675TIP3    H223441   2.373   5.419   5.344  1.5375  1.3528 -1.5189
  676TIP3   OH223442   4.867   4.476  15.491 -0.0778  0.1416  0.0240
  676TIP3    H123443   4.811   4.552  15.506 -0.6043 -0.2645  0.1545
  676TIP3    H223444   4.878   4.471  15.396 -0.4989  0.0574 -0.0190
  677TIP3   OH223445   5.029   6.533   1.740 -0.3607  0.1959  0.1748
  677TIP3    H123446   5.095   6.571   1.682 -1.4568  0.2164 -1.0619
  677TIP3    H223447   5.066   6.449   1.767  0.1917  0.2353 -0.4697
  678TIP3   OH223448   5.937   4.207  13.998 -0.5391 -0.2705 -0.4226
  678TIP3    H123449   5.989   4.135  14.033 -1.3076 -0.7442 -0.2373
  678TIP3    H223450   5.848   4.171  13.992 -0.7773  0.4260 -1.0327
  679TIP3   OH223451   5.835   0.121   1.299  0.5917  0.0207  0.7286
  679TIP3    H123452   5.926   0.103   1.321  1.1294  1.0219 -0.6484
  679TIP3    H223453   5.800   0.036   1.272  1.2993 -0.2323  0.5886
  680TIP3   OH223454   4.538   2.972   4.418  0.5757  0.2076  0.0724
  680TIP3    H123455   4.601   3.044   4.424  0.8126  0.0979 -1.0575
  680TIP3    H223456   4.486   2.979   4.498  1.1356  1.1341  0.3592
  681TIP3   OH223457   5.948   4.250   4.665  0.8454  0.2529  0.1915
  681TIP3    H123458   6.005   4.241   4.589 -1.3014  0.4813 -1.4977
  681TIP3    H223459   5.979   4.328   4.710  1.2166  0.9464 -1.2702
  682TIP3   OH223460   6.691   1.727   4.607 -1.1139  0.6985 -0.7234
  682TIP3    H123461   6.775   1.759   4.638 -0.9193 -0.5365  0.0780
  682TIP3    H223462   6.627   1.765   4.668 -0.8576 -0.6458  0.4131
  683TIP3   OH223463   1.433   1.977   4.549 -0.5030 -0.1405 -0.4373
  683TIP3    H123464   1.373   2.026   4.493 -2.0847 -0.0985  1.2743
  683TIP3    H223465   1.482   2.045   4.596 -1.9868 -0.1854  1.1863
  684TIP3   OH223466   3.868   1.809  15.367 -0.2534  0.0229 -0.2103
  684TIP3    H123467   3.931   1.742  15.391  0.5712  0.6575 -0.5626
  684TIP3    H223468   3.877   1.876  15.435  1.1580  1.2168 -1.5087
  685TIP3   OH223469   1.020   3.153   3.460 -0.5102 -0.1898  0.5578
  685TIP3    H123470   1.039   3.084   3.397 -1.8945  0.6044 -0.7647
  685TIP3    H223471   0.997   3.107   3.540 -0.8004 -1.2538 -0.1259
  686TIP3   OH223472   1.433   1.089  10.679 -0.6627  0.5710 -0.5919
  686TIP3    H123473   1.513   1.079  10.626  0.3209 -0.1823  0.9814
  686TIP3    H223474   1.464   1.084  10.770 -2.5851 -0.3970  0.0452
  687TIP3   OH223475   5.364   5.880  14.168  0.1752  0.1775 -0.2945
  687TIP3    H123476   5.431   5.857  14.105  1.4395 -2.5003  1.9103
  687TIP3    H223477   5.293   5.819  14.151  0.1674  0.0203  0.2936
  688TIP3   OH223478   0.721   2.581   5.976  0.2736 -0.0893  0.0478
  688TIP3    H123479   0.765   2.611   5.896 -0.4853  0.1754 -0.2695
  688TIP3    H223480   0.682   2.660   6.013 -0.9139 -0.5233 -0.2787
  689TIP3   OH223481   1.228   6.351   4.907  0.0711 -0.3057  0.1714
  689TIP3    H123482   1.162   6.341   4.975 -1.1460  1.4184 -0.7604
  689TIP3    H223483   1.271   6.265   4.903  0.0818 -0.4619  3.0128
  690TIP3   OH223484   1.306   2.466  12.473 -0.2191  0.1165  0.0584
  690TIP3    H123485   1.338   2.495  12.558 -0.6107  1.2258 -0.1634
  690TIP3    H223486   1.342   2.529  12.411  1.5692 -1.7306 -0.8319
  691TIP3   OH223487   2.643   3.462  14.341  0.2595  0.1996 -0.2687
  691TIP3    H123488   2.683   3.543  14.372  0.9937 -0.3826  0.3437
  691TIP3    H223489   2.623   3.413  14.421 -1.0990  0.1980 -0.5888
  692TIP3   OH223490   2.251   0.595   2.967  0.5144 -0.0701 -0.1937
  692TIP3    H123491   2.190   0.528   2.997 -0.1925  0.1159 -1.2148
  692TIP3    H223492   2.335   0.550   2.962 -0.1230 -1.1022 -1.6898
  693TIP3   OH223493   2.457   6.560   1.340 -0.4274 -0.0419 -0.5297
  693TIP3    H123494   2.494   6.513   1.265 -1.5404 -1.6969 -0.0855
  693TIP3    H223495   2.369   6.522   1.351 -0.6100  0.7867  1.0548
  694TIP3   OH223496   6.651   2.222   0.585  0.4585  0.0631  0.0367
  694TIP3    H123497   6.721   2.180   0.535  0.7642  0.5987  0.0239
  694TIP3    H223498   6.640   2.166   0.662  0.4643 -0.3709 -0.2743
  695TIP3   OH223499   0.243   4.666   4.230 -0.4897  0.3139 -0.6194
  695TIP3    H123500   0.239   4.586   4.282 -2.4445  1.3534  0.8916
  695TIP3    H223501   0.176   4.655   4.163  0.8803 -0.3056 -1.9177
  696TIP3   OH223502   6.785   6.094  15.019 -0.1757  0.0984 -0.6294
  696TIP3    H123503   6.846   6.047  14.963  0.4385  1.1879 -0.8797
  696TIP3    H223504   6.824   6.090  15.107  0.3055  0.8506 -0.8009
  697TIP3   OH223505   0.714   2.931  15.869 -0.5728  0.0210  0.6468
  697TIP3    H123506   0.745   2.968  15.786 -1.8138 -0.4291 -0.0206
  697TIP3    H223507   0.795   2.912  15.918  0.1629  0.4360 -0.3838
  698TIP3   OH223508   1.683   4.154  15.911  0.0807  0.1032 -0.0737
  698TIP3    H123509   1.643   4.074  15.879 -2.7965  0.9560  1.2406
  698TIP3    H223510   1.769   4.127  15.943  0.6655 -1.7539 -3.0526
  699TIP3   OH223511   3.713   3.681  13.736 -0.3215 -0.5198  0.5326
  699TIP3    H123512   3.636   3.734  13.761  0.3491  1.2065 -0.9656
  699TIP3    H223513   3.676   3.597  13.710 -1.7092  0.2565 -0.0942
  700TIP3   OH223514   5.484   4.593  16.932  0.3254 -0.3197  0.2087
  700TIP3    H123515   5.441   4.512  16.905 -0.1673  0.4084 -1.2471
  700TIP3    H223516   5.447   4.613  17.018 -0.2626 -1.1174  0.1402
  701TIP3   OH223517   5.101   0.293   3.928  0.3072 -0.4808  0.1523
  701TIP3    H123518   5.049   0.238   3.870 -0.4959 -0.1176  0.5192
  701TIP3    H223519   5.185   0.301   3.884  0.4357 -2.0045  0.0944
  702TIP3   OH223520   0.883   3.907  10.668  0.3070  0.3491  0.1375
  702TIP3    H123521   0.819   3.977  10.660  0.5974  1.2645  4.4230
  702TIP3    H223522   0.957   3.947  10.713  1.4052 -2.1391  0.6570
  703TIP3   OH223523   4.614   1.259  13.984  0.1896  0.1505 -0.2758
  703TIP3    H123524   4.695   1.306  14.002  0.4714 -1.0330  1.7245
  703TIP3    H223525   4.632   1.168  14.011 -2.1597  0.1313  1.3962
  704TIP3   OH223526   1.638   6.608   5.432 -0.5849  0.4058 -0.5177
  704TIP3    H123527   1.578   6.636   5.363 -0.6555  2.8929  0.4795
  704TIP3    H223528   1.584   6.553   5.489 -1.0444 -0.0253 -1.3512
  705TIP3   OH223529   6.609   0.120   4.515 -0.7871  0.1779  0.2104
  705TIP3    H123530   6.559   0.083   4.588  2.3429  1.0762  2.9306
  705TIP3    H223531   6.676   0.174   4.557  2.4598 -0.9702 -3.2618
  706TIP3   OH223532   0.483   2.867  11.198 -0.0041  0.2218 -0.1072
  706TIP3    H123533   0.461   2.900  11.111  1.2903 -0.8858 -0.8693
  706TIP3    H223534   0.522   2.781  11.182  3.1898  1.3315  1.3285
  707TIP3   OH223535   5.754   5.415  14.836 -0.0862  0.5671  0.1274
  707TIP3    H123536   5.723   5.447  14.921  1.0002 -1.6212  1.3958
  707TIP3    H223537   5.694   5.343  14.815  0.5185  0.1772 -0.2657
  708TIP3   OH223538   2.272   5.726   0.761  0.0110  0.0771 -0.0974
  708TIP3    H123539   2.212   5.768   0.822 -1.0577 -0.3046 -0.8693
  708TIP3    H223540   2.343   5.789   0.750 -1.0065  1.1852 -0.3546
  709TIP3   OH223541   6.665   0.511  11.572 -0.0175 -0.5389 -0.0134
  709TIP3    H123542   6.640   0.537  11.661 -0.3463  3.9141 -1.2923
  709TIP3    H223543   6.761   0.512  11.573 -0.0201 -0.6073  0.3409
  710TIP3   OH223544   2.042   3.467  16.323  0.1914 -0.6804 -0.2691
  710TIP3    H123545   2.101   3.450  16.249  2.6340 -0.9429  1.6851
  710TIP3    H223546   2.095   3.519  16.384 -1.1909 -2.0125  2.0955
  711TIP3   OH223547   1.537   4.780   4.411  0.4261 -0.6714  0.1031
  711TIP3    H123548   1.484   4.858   4.421 -0.4505 -1.4170  1.4379
  711TIP3    H223549   1.577   4.766   4.497  1.7661 -0.8481 -0.5300
  712TIP3   OH223550   4.306   1.500   3.493 -0.6082  0.1843  0.0932
  712TIP3    H123551   4.268   1.439   3.556 -0.1854  0.9851  1.1517
  712TIP3    H223552   4.236   1.562   3.473 -1.7168 -1.8292 -2.6209
  713TIP3   OH223553   4.775   4.466   0.781  0.2315  0.7178  0.6869
  713TIP3    H123554   4.735   4.542   0.740  0.2715  0.7843  0.7717
  713TIP3    H223555   4.701   4.419   0.820 -0.0012 -0.1294 -0.7182
  714TIP3   OH223556   2.145   5.706  11.753  0.4736 -0.6877 -0.3255
  714TIP3    H123557   2.117   5.640  11.816  0.1738  0.1691  0.4449
  714TIP3    H223558   2.240   5.699  11.752  0.9829  2.8079  4.2188
  715TIP3   OH223559   1.508   0.873  13.304  0.1640  0.1007 -0.4497
  715TIP3    H123560   1.480   0.783  13.322 -0.5413  0.5302  0.6272
  715TIP3    H223561   1.596   0.878  13.341  0.0239 -0.0086 -0.1045
  716TIP3   OH223562   1.002   6.039  15.488  0.0580  0.6559  0.2701
  716TIP3    H123563   0.912   6.043  15.520  0.3946 -1.0013  1.4398
  716TIP3    H223564   1.054   6.015  15.565  1.4168  0.9254 -0.5516
  717TIP3   OH223565   2.279   1.004   6.476  0.5845 -0.1811 -0.2656
  717TIP3    H123566   2.238   1.087   6.455  0.9637 -0.2400 -1.2269
  717TIP3    H223567   2.206   0.947   6.501  0.2180  0.1042 -0.6892
  718TIP3   OH223568   3.930   3.961   0.063 -0.0997  0.0305 -0.1237
  718TIP3    H123569   3.863   3.897   0.085  0.0924 -0.3492 -0.6280
  718TIP3    H223570   3.994   3.956   0.134  0.9994 -1.8563 -1.2047
  719TIP3   OH223571   0.915   6.511   2.081  0.1448 -0.2437 -0.2176
  719TIP3    H123572   0.846   6.517   2.015 -1.3340  0.3449  1.3468
  719TIP3    H223573   0.875   6.461   2.152  0.9964  0.9954  1.1423
  720TIP3   OH223574   3.625   5.173   4.430 -0.0602  0.0698 -0.1195
  720TIP3    H123575   3.574   5.236   4.379 -3.9126 -1.7774  1.2891
  720TIP3    H223576   3.629   5.095   4.375  0.8801  0.0630 -0.0419
  721TIP3   OH223577   0.255   1.005   0.811  0.1396  0.1902  0.7755
  721TIP3    H123578   0.230   1.068   0.744 -0.0843 -0.7367 -0.0174
  721TIP3    H223579   0.180   1.002   0.870 -1.6683 -2.5293 -1.5504
  722TIP3   OH223580   2.466   5.007  14.238 -0.3765 -0.6482 -0.0136
  722TIP3    H123581   2.523   5.064  14.290 -0.0801 -0.6583 -0.3236
  722TIP3    H223582   2.468   5.045  14.151 -2.7903  0.7782  0.5298
  723TIP3   OH223583   0.320   5.193  17.080 -0.5559  0.0570 -0.0000
  723TIP3    H123584   0.386   5.253  17.046  0.7724 -0.7293  1.1667
  723TIP3    H223585   0.243   5.209  17.025  0.6957  0.7266 -1.5967
  724TIP3   OH223586   5.115   0.532   3.517 -0.4647  0.5475 -0.0779
  724TIP3    H123587   5.148   0.514   3.605 -1.6798 -1.7333 -0.0516
  724TIP3    H223588   5.045   0.596   3.530 -1.2746 -0.4913  0.7290
  725TIP3   OH223589   5.947   0.933  11.168 -0.3235  0.4833 -0.1196
  725TIP3    H123590   5.986   0.849  11.192  0.3464  1.2038  1.3985
  725TIP3    H223591   5.995   0.962  11.091 -0.2479 -0.3084 -0.3636
  726TIP3   OH223592   6.055   4.935  15.498 -0.4691 -0.4807 -0.4733
  726TIP3    H123593   6.010   4.920  15.581 -0.5721 -1.5969 -0.7186
  726TIP3    H223594   6.075   4.847  15.465  0.2135 -0.0316 -1.2785
  727TIP3   OH223595   0.852   5.212   4.374  0.4828  0.4488  0.5883
  727TIP3    H123596   0.818   5.142   4.430 -0.8152 -1.3665 -2.3368
  727TIP3    H223597   0.833   5.293   4.422  1.4546 -1.1185  3.7506
  728TIP3   OH223598   2.611   0.092  12.603 -0.6903  0.4990 -0.3572
  728TIP3    H123599   2.678   0.155  12.628 -1.2746  0.9739  0.0007
  728TIP3    H223600   2.539   0.145  12.569 -0.6458 -0.0418 -1.3190
  729TIP3   OH223601   3.984   5.848  11.022  0.3173 -0.5281 -0.2985
  729TIP3    H123602   4.075   5.828  11.001 -0.3614 -0.4193 -3.5865
  729TIP3    H223603   3.977   5.943  11.007 -0.1319 -0.3867  0.7833
  730TIP3   OH223604   5.546   6.048  13.395 -0.0452 -0.4070  0.0009
  730TIP3    H123605   5.480   6.008  13.451 -0.0947 -1.1280 -0.5586
  730TIP3    H223606   5.528   6.013  13.308  0.6053 -0.0180 -0.2967
  731TIP3   OH223607   1.227   4.897   0.989 -1.0223 -0.1029  0.1288
  731TIP3    H123608   1.178   4.952   1.050 -1.6960 -0.5387 -0.0107
  731TIP3    H223609   1.234   4.812   1.033  0.6595  0.2840  0.6666
  732TIP3   OH223610   5.914   5.510  13.436  0.6182  0.3102 -0.2372
  732TIP3    H123611   5.956   5.559  13.367  2.1360 -0.5483  0.0548
  732TIP3    H223612   5.982   5.452  13.470 -0.2012  0.4418  1.7150
  733TIP3   OH223613   1.024   5.234  11.723  0.3788  0.2063  0.1136
  733TIP3    H123614   1.096   5.212  11.664  0.4172  1.0798 -0.1739
  733TIP3    H223615   0.950   5.251  11.665  0.0660 -0.2475  0.3844
  734TIP3   OH223616   5.488   3.510  12.283  0.4203 -0.3732  0.1068
  734TIP3    H123617   5.540   3.590  12.294 -0.5859  0.1530  1.1982
  734TIP3    H223618   5.409   3.538  12.238  0.3249 -0.8638 -0.0392
  735TIP3   OH223619   1.710   0.758  14.820 -0.1438  0.1929 -0.7237
  735TIP3    H123620   1.755   0.741  14.737  1.0101  0.0223 -0.0694
  735TIP3    H223621   1.625   0.715  14.810  0.4020 -0.7441 -1.4088
  736TIP3   OH223622   1.936   0.308   3.286  0.2692  0.2142  0.1567
  736TIP3    H123623   1.860   0.269   3.242  1.7096 -0.2971 -1.9317
  736TIP3    H223624   1.946   0.257   3.366  0.4854 -1.9981 -1.2421
  737TIP3   OH223625   0.797   6.013  13.240 -0.1869  0.2285  0.3089
  737TIP3    H123626   0.803   6.093  13.187 -1.4005  1.2445  1.6837
  737TIP3    H223627   0.752   6.040  13.320 -1.3796 -2.0138  0.4420
  738TIP3   OH223628   2.266   2.199   4.607 -0.0272 -0.2229 -0.6404
  738TIP3    H123629   2.287   2.285   4.569  1.0742 -0.7068 -1.1504
  738TIP3    H223630   2.305   2.136   4.547 -1.4139 -1.1161 -0.6205
  739TIP3   OH223631   0.982   6.145   5.239  0.5278  0.1751  0.3596
  739TIP3    H123632   0.996   6.050   5.232  0.6905  0.2396 -0.2082
  739TIP3    H223633   0.909   6.154   5.300  0.1575 -0.3375 -0.0032
  740TIP3   OH223634   2.689   3.052  16.439 -0.5600  0.3350 -0.1972
  740TIP3    H123635   2.688   3.137  16.482 -0.8320 -1.0538  2.6188
  740TIP3    H223636   2.658   2.991  16.505  0.2050 -2.0567 -1.9835
  741TIP3   OH223637   2.736   1.699  15.185 -0.0225 -0.2325  0.0278
  741TIP3    H123638   2.739   1.618  15.235 -0.7185  0.5988  1.4556
  741TIP3    H223639   2.708   1.673  15.097 -1.2177 -1.4167  0.7471
  742TIP3   OH223640   0.260   1.967  13.594  0.4263 -0.6215 -0.2781
  742TIP3    H123641   0.216   2.043  13.632  1.3567 -0.0599 -0.3236
  742TIP3    H223642   0.301   1.923  13.669  2.5715  0.6882 -0.6485
  743TIP3   OH223643   5.437   5.086  16.072  0.4120  0.1777 -0.4189
  743TIP3    H123644   5.379   5.041  16.134 -0.1594 -0.5109 -1.4428
  743TIP3    H223645   5.526   5.065  16.103  0.1353 -0.3046  0.0565
  744TIP3   OH223646   5.313   4.903  15.244  0.4819  0.0855  0.1767
  744TIP3    H123647   5.372   4.841  15.203 -0.5210  0.4505 -1.9171
  744TIP3    H223648   5.363   4.943  15.315  2.1111 -0.9191 -0.4086
  745TIP3   OH223649   2.538   5.153  15.379 -0.0405 -0.6518 -0.5969
  745TIP3    H123650   2.585   5.196  15.308 -0.0114  0.5642  0.1468
  745TIP3    H223651   2.597   5.161  15.455 -1.2391  0.4774  0.2270
  746TIP3   OH223652   5.541   4.336  15.863 -0.2586 -0.1553  0.4101
  746TIP3    H123653   5.554   4.247  15.897  0.9118 -0.3947 -0.6004
  746TIP3    H223654   5.599   4.391  15.916  0.6192 -0.3384 -0.3327
  747TIP3   OH223655   2.727   0.686   2.365  0.2460  0.0933 -0.2056
  747TIP3    H123656   2.721   0.763   2.309  1.6497 -0.4428 -1.1448
  747TIP3    H223657   2.770   0.620   2.310  1.7502 -0.4152  1.5062
  748TIP3   OH223658   3.547   4.057  16.302 -0.1307  0.4233 -0.0377
  748TIP3    H123659   3.467   4.096  16.336  0.0330  0.5351  0.2174
  748TIP3    H223660   3.616   4.118  16.327  0.1772 -0.2233  0.7065
  749TIP3   OH223661   1.618   5.141  13.351 -0.0666 -0.3241  0.0859
  749TIP3    H123662   1.563   5.066  13.373 -0.2023 -1.2104 -3.0310
  749TIP3    H223663   1.557   5.215  13.350 -0.6035 -0.7605 -0.2335
  750TIP3   OH223664   3.305   2.772  16.052  0.5951 -0.0158  0.5707
  750TIP3    H123665   3.392   2.778  16.091  0.5429 -0.7582  0.8120
  750TIP3    H223666   3.274   2.684  16.074 -0.7289  0.6712  1.5675
  751TIP3   OH223667   5.960   5.263   5.034 -0.2383  0.3131 -0.1715
  751TIP3    H123668   5.991   5.218   4.955 -0.0304 -1.1755  0.7351
  751TIP3    H223669   5.925   5.346   5.002 -1.7632 -1.0144 -2.0402
  752TIP3   OH223670   4.979   1.415   3.206 -0.2061  0.6015  0.0444
  752TIP3    H123671   5.011   1.410   3.116 -0.8959  0.5372 -0.1993
  752TIP3    H223672   5.009   1.501   3.237  0.7658  0.2683  0.0442
  753TIP3   OH223673   5.453   1.953  16.333  0.6494  0.9106  0.1916
  753TIP3    H123674   5.368   1.991  16.310  0.1051  0.7011  1.7923
  753TIP3    H223675   5.517   2.022  16.314  0.0450  1.3286 -0.3259
  754TIP3   OH223676   4.183   1.861   2.991 -0.5276 -0.0692 -0.2891
  754TIP3    H123677   4.268   1.905   2.992  0.3492 -1.6537 -1.8575
  754TIP3    H223678   4.133   1.906   2.923 -1.1175  1.1320  0.9165
  755TIP3   OH223679   1.164   5.750   1.832  0.2630 -0.5334 -0.1611
  755TIP3    H123680   1.133   5.774   1.919  0.6206 -2.2136  0.4582
  755TIP3    H223681   1.090   5.769   1.774 -0.2744 -0.1955  0.6304
  756TIP3   OH223682   1.179   3.294  11.358  0.2419  0.4010  0.3087
  756TIP3    H123683   1.154   3.202  11.349 -0.7121  0.4401  2.3903
  756TIP3    H223684   1.191   3.324  11.268  0.9931 -1.8634 -0.3796
  757TIP3   OH223685   2.494   0.500   3.980 -0.4579  0.1485  0.4271
  757TIP3    H123686   2.577   0.515   3.935 -1.2819  1.8300 -0.5499
  757TIP3    H223687   2.427   0.538   3.923 -1.9015 -0.9886  1.3062
  758TIP3   OH223688   5.545   2.979  17.101 -0.0470  0.3573 -0.0763
  758TIP3    H123689   5.537   3.019  17.188  0.2201  0.3116 -0.0309
  758TIP3    H223690   5.537   2.885  17.117 -0.3431  0.3694 -0.1477
  759TIP3   OH223691   5.891   4.966  14.701  0.4178 -0.3333 -0.0165
  759TIP3    H123692   5.883   4.872  14.682 -0.9019 -0.3962  0.7726
  759TIP3    H223693   5.803   5.000  14.685  0.6965  0.6273  0.4935
  760TIP3   OH223694   3.011   1.989  15.611 -0.0454  0.0634 -0.1461
  760TIP3    H123695   2.946   1.985  15.541  0.8363  0.4826 -0.9988
  760TIP3    H223696   3.095   1.980  15.567  0.4049 -2.4543  1.1695
  761TIP3   OH223697   3.208   5.043   3.362 -0.3879 -0.1099 -0.3442
  761TIP3    H123698   3.238   4.957   3.391  0.5517  0.7820  1.4638
  761TIP3    H223699   3.286   5.099   3.368 -1.5159  1.4040  0.8547
  762TIP3   OH223700   3.891   0.295  12.171 -0.4045 -0.1383 -0.1198
  762TIP3    H123701   3.965   0.234  12.173  0.4245  0.8339  2.5161
  762TIP3    H223702   3.815   0.241  12.151  0.5028 -1.8183  0.8395
  763TIP3   OH223703   2.454   4.665   0.895 -0.5191 -0.4253  0.1524
  763TIP3    H123704   2.454   4.700   0.805 -0.0115  1.7396  0.9576
  763TIP3    H223705   2.538   4.620   0.903 -1.5595 -2.7160 -1.1956
  764TIP3   OH223706   3.521   4.160   1.470  0.0410 -0.1769 -0.0742
  764TIP3    H123707   3.461   4.187   1.401 -0.6556 -0.1605  0.5219
  764TIP3    H223708   3.596   4.123   1.424 -0.2549  0.1583 -0.8392
  765TIP3   OH223709   1.061   2.319  16.733 -0.2465  0.1867  0.5879
  765TIP3    H123710   1.151   2.346  16.752 -0.7112  2.0743  0.2218
  765TIP3    H223711   1.036   2.371  16.657 -1.1705 -1.3831 -0.1981
  766TIP3   OH223712   5.496   3.274   4.998 -0.0187  0.6626 -0.2830
  766TIP3    H123713   5.500   3.221   5.078  0.7934 -0.6403 -1.1703
  766TIP3    H223714   5.481   3.211   4.928  0.3495  1.6859 -1.2952
  767TIP3   OH223715   4.191   3.472   6.540  0.2461  0.3638 -0.6557
  767TIP3    H123716   4.217   3.415   6.467 -1.9704 -0.4717 -0.8287
  767TIP3    H223717   4.190   3.560   6.502 -0.2915  0.0050 -1.4974
  768TIP3   OH223718   0.555   3.147   0.595 -0.5713  0.0838 -0.1753
  768TIP3    H123719   0.614   3.137   0.669 -2.3657 -1.0131  1.1634
  768TIP3    H223720   0.492   3.075   0.605 -1.5698  0.6575 -2.0758
  769TIP3   OH223721   2.499   0.653   4.866 -0.2853 -0.1137 -0.2966
  769TIP3    H123722   2.443   0.724   4.897 -3.7177 -2.5906 -0.6117
  769TIP3    H223723   2.445   0.603   4.806  2.4787 -2.2603 -1.1151
  770TIP3   OH223724   1.936   3.756   6.145  0.1761 -0.3516  0.2397
  770TIP3    H123725   1.947   3.797   6.231  2.3481 -1.1522  0.3927
  770TIP3    H223726   1.843   3.737   6.139  0.1106 -1.0577  2.8106
  771TIP3   OH223727   1.149   0.210   1.716  0.1694 -0.1440  0.2024
  771TIP3    H123728   1.165   0.300   1.688  2.5524 -0.4784  0.4291
  771TIP3    H223729   1.108   0.219   1.802  2.4640  0.7033  1.2340
  772TIP3   OH223730   0.961   5.804  14.421 -0.0604  0.2338 -0.3232
  772TIP3    H123731   1.028   5.869  14.399 -1.3728  0.9978 -2.2718
  772TIP3    H223732   0.893   5.854  14.466 -0.3971 -0.0500 -0.5088
  773TIP3   OH223733   0.109   2.933  16.164  0.1593  0.0262 -0.3114
  773TIP3    H123734   0.092   3.011  16.215 -0.2450  0.6555 -1.3893
  773TIP3    H223735   0.114   2.862  16.228  2.5890  1.2349  0.8863
  774TIP3   OH223736   5.672   4.811  12.890 -0.2944 -0.3647  0.0996
  774TIP3    H123737   5.747   4.752  12.896  1.7964  2.0419 -0.9745
  774TIP3    H223738   5.662   4.846  12.979  0.7831  0.3494 -0.0492
  775TIP3   OH223739   4.180   2.486   0.300 -0.0933  0.6138  0.1884
  775TIP3    H123740   4.222   2.450   0.378 -0.8278 -0.9573 -0.1194
  775TIP3    H223741   4.248   2.540   0.259  0.7099  0.3982  1.2013
  776TIP3   OH223742   5.482   5.521  16.538  0.1720  0.4125  0.0787
  776TIP3    H123743   5.508   5.602  16.495  0.9178  1.5302  2.5414
  776TIP3    H223744   5.565   5.476  16.556 -0.2322 -0.8867 -1.2111
  777TIP3   OH223745   6.510   0.428  14.629 -0.3772 -0.5726 -0.0211
  777TIP3    H123746   6.502   0.485  14.553  1.8101 -0.9554 -0.5510
  777TIP3    H223747   6.507   0.339  14.594  0.9683 -0.7498  0.2878
  778TIP3   OH223748   6.309   0.173   5.284  0.6301 -0.0090  0.1610
  778TIP3    H123749   6.291   0.171   5.190  0.4705 -2.8557  0.2109
  778TIP3    H223750   6.241   0.229   5.320 -0.2705 -0.1685 -1.2472
  779TIP3   OH223751   5.295   6.557   1.620 -0.3336 -0.5445  0.0652
  779TIP3    H123752   5.384   6.568   1.588 -0.5379 -0.3445 -0.4416
  779TIP3    H223753   5.276   6.464   1.608 -0.0037 -0.6913  0.6750
  780TIP3   OH223754   3.500   2.615  17.219 -0.2496 -0.0847 -0.2833
  780TIP3    H123755   3.431   2.653  17.165  0.5961  0.4848 -0.9766
  780TIP3    H223756   3.567   2.683  17.225 -0.4022 -0.0820  1.6336
  781TIP3   OH223757   1.410   3.476  11.517  0.1037  0.4615  0.8302
  781TIP3    H123758   1.391   3.531  11.441  1.5966 -1.9929 -1.4453
  781TIP3    H223759   1.478   3.524  11.565  0.6860  1.0960 -0.5782
  782TIP3   OH223760   1.230   4.889  15.697  0.3108 -0.3765 -0.1791
  782TIP3    H123761   1.175   4.818  15.733  0.2020  0.5338  1.4892
  782TIP3    H223762   1.314   4.846  15.679  0.9746 -0.5158  2.8900
  783TIP3   OH223763   0.839   5.731   5.578  0.2801  0.0817  0.2210
  783TIP3    H123764   0.804   5.788   5.509 -0.9893  0.1582  0.9108
  783TIP3    H223765   0.802   5.645   5.559  0.2842  0.0092  0.5311
  784TIP3   OH223766   5.376   1.136  13.838  0.1975 -0.0604 -0.1046
  784TIP3    H123767   5.332   1.157  13.756  0.8609  0.7129 -0.2656
  784TIP3    H223768   5.469   1.142  13.817  0.3700 -0.2092  0.6216
  785TIP3   OH223769   0.239   4.603  15.922 -0.6171  0.3230 -0.1710
  785TIP3    H123770   0.149   4.587  15.951 -1.1893  2.1198 -0.8621
  785TIP3    H223771   0.292   4.591  16.001 -1.2877 -2.0403 -0.0331
  786TIP3   OH223772   1.383   1.191  13.122  0.5435 -0.5269  0.5612
  786TIP3    H123773   1.425   1.235  13.048  1.1737 -2.7817 -0.4813
  786TIP3    H223774   1.434   1.111  13.134 -1.1854 -1.4857  1.7142
  787TIP3   OH223775   5.206   3.258   1.349  0.3324 -0.3295  0.4382
  787TIP3    H123776   5.229   3.339   1.394 -0.0840 -0.4220  0.8271
  787TIP3    H223777   5.122   3.233   1.388 -0.8492  0.4452 -1.5063
  788TIP3   OH223778   6.420   3.633  11.884  0.5263  0.6446  0.8047
  788TIP3    H123779   6.398   3.679  11.965  0.9085  0.7386  0.8550
  788TIP3    H223780   6.490   3.685  11.845  1.6487 -0.4566  1.3475
  789TIP3   OH223781   1.659   0.961   0.970  0.1152  0.1736 -0.2911
  789TIP3    H123782   1.722   0.908   1.018  0.1698  0.6583  0.1831
  789TIP3    H223783   1.712   1.031   0.931  0.0227 -0.0225 -0.7667
  790TIP3   OH223784   6.094   3.996  14.052 -0.1063  0.1062 -0.4791
  790TIP3    H123785   6.025   3.941  14.089 -0.7008  0.0897 -1.5816
  790TIP3    H223786   6.137   3.939  13.987  0.1248  0.5188 -0.6882
  791TIP3   OH223787   6.129   2.254   2.128 -0.4058 -0.2847 -0.4649
  791TIP3    H123788   6.044   2.283   2.162 -0.2010  0.3027 -0.4499
  791TIP3    H223789   6.172   2.334   2.099  0.6276 -0.4267  0.6202
  792TIP3   OH223790   1.133   4.093  15.631 -0.0366 -0.3225  0.5865
  792TIP3    H123791   1.129   4.086  15.535  1.4671 -0.3765  0.5174
  792TIP3    H223792   1.200   4.029  15.657 -1.2724 -1.1576  1.7785
  793TIP3   OH223793   0.632   4.714   0.243 -0.1000  0.4700 -0.6800
  793TIP3    H123794   0.646   4.654   0.170 -1.0133  0.5854 -0.9642
  793TIP3    H223795   0.603   4.796   0.201  1.3585  1.1854 -0.3129
  794TIP3   OH223796   0.166   1.864  15.168  0.2153 -0.1248 -0.1494
  794TIP3    H123797   0.136   1.912  15.091  1.0733 -0.2667 -0.5845
  794TIP3    H223798   0.152   1.772  15.147 -1.1148 -0.0878  0.5487
  795TIP3   OH223799   2.211   6.678  10.996 -0.2826 -0.0247 -0.5126
  795TIP3    H123800   2.269   6.711  10.927  0.2314 -0.6831 -0.4021
  795TIP3    H223801   2.159   6.754  11.022  2.7539  1.3661  1.6684
  796TIP3   OH223802   0.940   5.746   3.431  0.3315  0.1200 -0.1868
  796TIP3    H123803   0.889   5.794   3.366  0.7323  1.2900  0.3454
  796TIP3    H223804   0.987   5.680   3.380 -1.5606 -0.8629 -0.6997
  797TIP3   OH223805   2.875   5.052  11.978  0.0706 -0.1052  0.0526
  797TIP3    H123806   2.871   4.997  12.057  1.1708 -0.6393 -0.2615
  797TIP3    H223807   2.915   4.996  11.912  1.5968  1.2037 -0.1634
  798TIP3   OH223808   4.124   6.609  15.649  0.1554 -0.0363  0.3818
  798TIP3    H123809   4.108   6.516  15.667 -0.0920 -0.3195 -1.2138
  798TIP3    H223810   4.094   6.654  15.728 -3.9530 -0.9713 -0.5297
  799TIP3   OH223811   2.987   6.501   4.219  0.3606 -0.0072 -0.1607
  799TIP3    H123812   2.954   6.433   4.160 -0.0908 -1.9025  2.1713
  799TIP3    H223813   2.911   6.525   4.272  0.1075  3.5772 -2.0589
  800TIP3   OH223814   6.705   3.789  15.311 -0.2775 -0.3926  0.0430
  800TIP3    H123815   6.684   3.739  15.232 -0.7063 -1.1119  0.5964
  800TIP3    H223816   6.671   3.735  15.382 -1.7248  1.1946  0.5970
  801TIP3   OH223817   4.514   5.190  11.103  0.3986 -1.1928  0.1174
  801TIP3    H123818   4.456   5.163  11.032 -0.2818 -1.0427  0.6215
  801TIP3    H223819   4.502   5.123  11.170  1.7707 -1.8764 -0.2905
  802TIP3   OH223820   2.767   5.919  13.063  0.2961  0.1576  0.5706
  802TIP3    H123821   2.824   5.991  13.091 -0.6399  1.3830 -0.6236
  802TIP3    H223822   2.681   5.941  13.099  0.0573 -0.5005  0.4071
  803TIP3   OH223823   2.854   1.256   2.557 -0.8232  0.5687  0.7347
  803TIP3    H123824   2.869   1.202   2.480 -2.3357  0.4752  0.4814
  803TIP3    H223825   2.941   1.281   2.587 -0.2292  1.1443 -1.3949
  804TIP3   OH223826   1.147   5.759   5.544  0.4532  0.5248  0.4507
  804TIP3    H123827   1.111   5.826   5.602  0.2649  0.9140 -0.1165
  804TIP3    H223828   1.071   5.712   5.511  0.6071 -0.2765  1.2070
  805TIP3   OH223829   4.567   0.190  14.438  0.2333  0.4813  0.0617
  805TIP3    H123830   4.478   0.222  14.447 -0.3235 -1.2925  1.0188
  805TIP3    H223831   4.565   0.134  14.360  0.5477  0.5826 -0.0213
  806TIP3   OH223832   6.539   3.942  16.956 -0.8840 -0.5761  0.5814
  806TIP3    H123833   6.492   3.927  16.874  0.9771  0.8788 -0.8007
  806TIP3    H223834   6.617   3.993  16.931  0.9840 -2.1545  2.9145
  807TIP3   OH223835   4.033   0.706   1.729 -0.9664  0.2067  0.6319
  807TIP3    H123836   3.941   0.693   1.749 -2.0763  2.8000 -2.3422
  807TIP3    H223837   4.039   0.796   1.699  2.3667 -0.1955 -0.1851
  808TIP3   OH223838   5.468   3.674   1.666  0.3316  0.5651  0.4381
  808TIP3    H123839   5.491   3.757   1.706  3.1631  1.0811 -2.1148
  808TIP3    H223840   5.422   3.698   1.585 -3.1057 -0.4341  2.0193
  809TIP3   OH223841   2.806   0.216  15.933 -0.7274  0.6160  0.0659
  809TIP3    H123842   2.855   0.281  15.984 -0.5724  1.4626 -1.1252
  809TIP3    H223843   2.874   0.167  15.887 -0.9244  0.8720 -0.5037
  810TIP3   OH223844   1.864   1.323  14.353 -0.2263  0.5608  0.1897
  810TIP3    H123845   1.792   1.264  14.372  1.0429 -1.0638  0.1031
  810TIP3    H223846   1.822   1.405  14.327 -2.0116 -0.0951  0.9405
  811TIP3   OH223847   6.766   3.102  10.473  0.0520 -0.3158 -0.1934
  811TIP3    H123848   6.671   3.099  10.482  0.0154 -0.1308 -0.5440
  811TIP3    H223849   6.788   3.195  10.472  0.1910 -0.3508 -0.6066
  812TIP3   OH223850   2.481   3.899   1.808 -0.1892 -0.4691 -0.0751
  812TIP3    H123851   2.463   3.988   1.840 -0.2925 -0.3722 -0.3957
  812TIP3    H223852   2.426   3.843   1.863  1.5658 -0.5600  1.6466
  813TIP3   OH223853   5.488   3.184   5.253  0.3824  0.7524  0.0877
  813TIP3    H123854   5.402   3.177   5.292 -0.0419  1.0572 -0.7700
  813TIP3    H223855   5.548   3.198   5.326 -0.5503  2.6358  0.5099
  814TIP3   OH223856   5.918   4.276  13.194 -0.1534 -0.4189  0.1860
  814TIP3    H123857   5.904   4.205  13.133 -0.1692 -1.5137  1.4441
  814TIP3    H223858   6.013   4.287  13.197 -0.1941  0.2167 -0.6765
  815TIP3   OH223859   2.721   4.097  14.860 -0.1026  0.2481 -0.3513
  815TIP3    H123860   2.798   4.044  14.880  0.4026  0.6672 -1.1384
  815TIP3    H223861   2.657   4.073  14.927  0.7344 -0.0498  0.3548
  816TIP3   OH223862   6.126   6.373  15.153  0.2599  0.2147  0.2002
  816TIP3    H123863   6.126   6.280  15.175 -0.8424  0.6078  1.9807
  816TIP3    H223864   6.204   6.409  15.196  0.7260  0.1123 -0.5463
  817TIP3   OH223865   0.380   0.089  13.617 -0.1724 -0.8622 -0.5005
  817TIP3    H123866   0.420   0.063  13.534  1.5288  1.9639 -0.6543
  817TIP3    H223867   0.448   0.074  13.682 -0.1673  0.4104 -0.1928
  818TIP3   OH223868   5.933   3.995  13.340  0.2309 -0.4466  0.3785
  818TIP3    H123869   5.922   3.988  13.245 -1.3355  2.0994  0.3418
  818TIP3    H223870   6.014   4.046  13.351 -1.2348  1.9555  0.3329
  819TIP3   OH223871   6.551   2.271  16.817  0.4708 -0.1355  0.2382
  819TIP3    H123872   6.542   2.363  16.841 -2.0728 -0.4729  0.7428
  819TIP3    H223873   6.599   2.272  16.734  1.6606  1.5409  0.9141
  820TIP3   OH223874   5.560   1.740  15.125 -0.3907 -0.2149  0.2724
  820TIP3    H123875   5.539   1.704  15.212  1.2458  0.7671  1.1120
  820TIP3    H223876   5.614   1.673  15.084 -0.6716 -0.4263  0.2456
  821TIP3   OH223877   2.081   3.240  11.411 -0.0508 -0.3467 -0.0307
  821TIP3    H123878   2.044   3.322  11.443  3.5671  1.7978 -1.0126
  821TIP3    H223879   2.119   3.199  11.489 -0.0277 -0.0378  0.1224
  822TIP3   OH223880   2.437   5.635   1.416  0.2955 -0.0447  0.2132
  822TIP3    H123881   2.475   5.677   1.493  1.2872  1.2668 -0.9718
  822TIP3    H223882   2.353   5.680   1.403  0.0304 -0.4072  0.6261
  823TIP3   OH223883   6.459   0.776  13.544 -0.1026 -0.0766 -0.9553
  823TIP3    H123884   6.430   0.867  13.538  3.7612  1.2184 -1.4839
  823TIP3    H223885   6.528   0.768  13.478 -0.5718 -3.5091 -1.1284
  824TIP3   OH223886   4.079   3.660   3.408 -0.2741 -0.0867 -0.0294
  824TIP3    H123887   4.106   3.660   3.500  0.5757 -0.5513 -0.2764
  824TIP3    H223888   4.034   3.576   3.396  1.2835 -0.8565 -0.5200
  825TIP3   OH223889   4.058   4.129  14.051 -0.5437 -0.5186 -0.6917
  825TIP3    H123890   4.083   4.209  14.004 -0.4871 -0.4126 -0.4834
  825TIP3    H223891   3.963   4.138  14.063 -0.4507 -0.2209 -0.1818
  826TIP3   OH223892   6.201   4.183   6.107  0.4067  0.3344 -0.2382
  826TIP3    H123893   6.209   4.234   6.027 -1.4704 -0.4813 -0.9610
  826TIP3    H223894   6.269   4.116   6.099  2.2056  2.0547  0.2563
  827TIP3   OH223895   5.886   1.831   0.418  0.3474  0.1960  0.0450
  827TIP3    H123896   5.927   1.854   0.335 -0.0822  1.2704  0.1200
  827TIP3    H223897   5.914   1.899   0.478  1.4013 -1.0769  1.0343
  828TIP3   OH223898   6.150   1.234  11.476 -0.2101  0.3417 -0.4125
  828TIP3    H123899   6.209   1.307  11.458  0.4981 -0.5225 -1.6161
  828TIP3    H223900   6.148   1.183  11.395 -1.4556 -0.4512  0.0971
  829TIP3   OH223901   5.203   0.854   2.826  0.3959  0.4282  0.3252
  829TIP3    H123902   5.235   0.932   2.870  1.1967  0.8123 -0.9211
  829TIP3    H223903   5.277   0.794   2.825  0.2634  0.2681 -0.1349
  830TIP3   OH223904   1.675   1.446   1.640 -0.5278 -0.4189 -0.2060
  830TIP3    H123905   1.601   1.506   1.632  0.0620  0.3690  0.2125
  830TIP3    H223906   1.708   1.436   1.551 -0.8422 -0.3984 -0.3254
  831TIP3   OH223907   0.039   5.512   1.195 -0.1179  0.0570 -0.1479
  831TIP3    H123908   0.098   5.557   1.255  1.6801  1.4285 -2.8883
  831TIP3    H223909   0.066   5.420   1.199  2.0822  0.6371 -1.2039
  832TIP3   OH223910   0.452   4.419  11.545 -0.2480 -0.0028 -0.2986
  832TIP3    H123911   0.526   4.478  11.552 -0.0156 -0.4130  0.8817
  832TIP3    H223912   0.487   4.340  11.504 -0.1393 -0.0072 -0.1980
  833TIP3   OH223913   3.977   4.492   3.824 -0.0742  0.0971  0.3467
  833TIP3    H123914   4.007   4.402   3.807  0.7394  0.2563  0.9110
  833TIP3    H223915   3.931   4.486   3.908 -2.1305 -0.2535 -0.7793
  834TIP3   OH223916   1.032   1.502  16.544  0.1965 -0.2630 -0.0353
  834TIP3    H123917   0.978   1.462  16.612  0.5285 -0.8680 -0.1186
  834TIP3    H223918   1.100   1.436  16.526 -0.6146 -0.6535 -1.8346
  835TIP3   OH223919   1.855   3.020   4.714  0.0878 -0.1736  0.4846
  835TIP3    H123920   1.787   3.000   4.650 -0.7692  0.4518  1.1991
  835TIP3    H223921   1.884   2.934   4.746  0.6787 -0.5051 -0.8921
  836TIP3   OH223922   3.190   4.610  11.899  0.4933 -0.3660 -0.0650
  836TIP3    H123923   3.278   4.646  11.911  0.3058  0.1008 -0.0832
  836TIP3    H223924   3.169   4.626  11.807  0.1639  0.0352  0.0793
  837TIP3   OH223925   1.549   2.759  12.523 -0.2720  0.1140  0.1527
  837TIP3    H123926   1.496   2.757  12.444 -1.5143 -0.8466  0.9927
  837TIP3    H223927   1.495   2.808  12.586  0.0077 -0.5248  0.8921
  838TIP3   OH223928   5.699   5.698  16.676  0.3204 -0.4285  0.2567
  838TIP3    H123929   5.714   5.791  16.662  1.3660 -0.4761  0.9871
  838TIP3    H223930   5.751   5.654  16.608 -0.6218 -0.4718 -0.4479
  839TIP3   OH223931   5.104   1.062  12.495  0.4112  0.3109 -0.0099
  839TIP3    H123932   5.063   1.000  12.434 -1.5129 -0.3234  1.8523
  839TIP3    H223933   5.039   1.073  12.565  2.0694  1.9376  1.3206
  840TIP3   OH223934   3.630   5.058  12.639  0.3671 -0.3618  0.5837
  840TIP3    H123935   3.697   5.076  12.574 -1.7701  2.4764 -0.9086
  840TIP3    H223936   3.566   5.003  12.594 -0.6772  0.8828  0.5082
  841TIP3   OH223937   1.356   2.576  16.824 -0.2338 -0.2992  0.9816
  841TIP3    H123938   1.428   2.533  16.871 -0.5999 -0.9478  0.9553
  841TIP3    H223939   1.340   2.520  16.749 -0.1995  0.3050  0.5234
  842TIP3   OH223940   1.803   1.837  16.982  0.0400  0.2117 -0.4070
  842TIP3    H123941   1.812   1.876  17.069  0.7445 -1.8111  0.4280
  842TIP3    H223942   1.708   1.828  16.970 -0.0930  1.2747 -0.2143
  843TIP3   OH223943   4.296   3.530   4.069  0.6615 -0.2326  0.3892
  843TIP3    H123944   4.243   3.494   4.140  0.7471  0.0681  0.6075
  843TIP3    H223945   4.244   3.514   3.990  0.4543 -0.3476  0.5489
  844TIP3   OH223946   1.507   5.285  13.639  0.0374  0.6521 -0.3622
  844TIP3    H123947   1.469   5.286  13.727  0.5233  0.2800 -0.1478
  844TIP3    H223948   1.601   5.275  13.653  0.0091 -0.6237 -0.9439
  845TIP3   OH223949   5.781   3.349  12.533 -0.4571 -0.1994 -0.5307
  845TIP3    H123950   5.761   3.418  12.470  2.0705  0.8492 -0.2616
  845TIP3    H223951   5.872   3.326  12.514 -0.2572 -1.1672  1.5333
  846TIP3   OH223952   3.171   5.282  12.577  0.4608  0.0845  0.0894
  846TIP3    H123953   3.099   5.334  12.542 -1.1331 -0.3787  2.5676
  846TIP3    H223954   3.184   5.213  12.511 -1.2568  0.2587 -0.4731
  847TIP3   OH223955   2.893   1.336  12.160 -0.0460  0.5003 -0.0848
  847TIP3    H123956   2.980   1.335  12.120 -0.3786 -0.2169 -0.7961
  847TIP3    H223957   2.899   1.403  12.229  1.2217  0.0673  0.2354
  848TIP3   OH223958   0.939   4.218  14.233  0.2868 -0.3114 -0.2948
  848TIP3    H123959   0.881   4.155  14.275  0.1701  0.0747  0.1357
  848TIP3    H223960   1.027   4.185  14.249  0.1929 -0.7677 -0.7357
  849TIP3   OH223961   6.276   0.586   6.164  0.1758  0.3077  0.0598
  849TIP3    H123962   6.327   0.663   6.140  0.6768 -0.2055 -0.5636
  849TIP3    H223963   6.342   0.520   6.186 -0.2347 -0.0838  0.1184
  850TIP3   OH223964   6.394   2.476   0.628  0.2937  0.2990 -0.2162
  850TIP3    H123965   6.452   2.463   0.554 -1.0728  0.5209 -1.3436
  850TIP3    H223966   6.325   2.534   0.595 -0.9277 -0.4989  0.9009
  851TIP3   OH223967   3.426   0.917  10.813 -0.1656 -0.0105 -0.5021
  851TIP3    H123968   3.390   1.004  10.796 -3.0309 -0.9394  0.5856
  851TIP3    H223969   3.414   0.869  10.731  0.3746  0.2520 -0.7399
  852TIP3   OH223970   1.270   5.733   2.768  0.1126  0.1108 -0.7309
  852TIP3    H123971   1.330   5.683   2.823 -1.8646 -0.6064  0.8549
  852TIP3    H223972   1.303   5.822   2.770 -0.3971  0.2810  2.3883
  853TIP3   OH223973   6.401   3.469   3.736  0.3411 -0.3349  0.2257
  853TIP3    H123974   6.484   3.421   3.744  0.0346 -0.7442  1.0867
  853TIP3    H223975   6.405   3.509   3.650  1.4701 -0.2963  0.2819
  854TIP3   OH223976   0.480   5.963   0.807 -0.0145  0.1589  1.1381
  854TIP3    H123977   0.573   5.987   0.810 -0.2206  1.4189 -1.0123
  854TIP3    H223978   0.476   5.888   0.748 -0.3797  0.2701  1.0180
  855TIP3   OH223979   4.859   2.333   4.397 -0.0101  0.4430  0.0996
  855TIP3    H123980   4.816   2.252   4.368 -2.2514  0.7489  2.4306
  855TIP3    H223981   4.851   2.393   4.322 -1.2922 -0.3830 -0.4364
  856TIP3   OH223982   2.455   0.322  14.609 -0.6087 -0.7369  0.4554
  856TIP3    H123983   2.375   0.369  14.632 -0.2158 -0.2640  0.8714
  856TIP3    H223984   2.526   0.376  14.645 -0.1036 -1.1414  0.0740
  857TIP3   OH223985   4.120   2.180  16.209  0.1143  0.3589  0.5214
  857TIP3    H123986   4.029   2.178  16.178  0.0363  1.6248  0.6530
  857TIP3    H223987   4.166   2.235  16.146  0.7878 -0.2411  0.4818
  858TIP3   OH223988   4.669   3.700  11.957  0.5031  0.3922 -0.0154
  858TIP3    H123989   4.750   3.747  11.976  0.5739  1.2950 -2.3712
  858TIP3    H223990   4.626   3.690  12.042  2.1511  1.6466  0.9854
  859TIP3   OH223991   1.752   3.498  13.303  0.2567  0.2095 -0.2183
  859TIP3    H123992   1.796   3.430  13.251 -0.6338  0.2776 -1.0742
  859TIP3    H223993   1.808   3.510  13.379  1.6069  0.1173 -1.1813
  860TIP3   OH223994   4.951   0.740   5.803  0.0512 -0.1375 -0.0864
  860TIP3    H123995   4.988   0.710   5.720  0.0941 -0.8917  0.2053
  860TIP3    H223996   5.027   0.771   5.853 -0.0385  0.8310 -0.5351
  861TIP3   OH223997   4.689   1.119   0.689  0.0181 -0.1625  0.3272
  861TIP3    H123998   4.717   1.107   0.598  0.2012  2.7830 -0.0757
  861TIP3    H223999   4.595   1.133   0.684 -0.5029 -3.2282  0.9643
  862TIP3   OH224000   4.009   4.559   6.062 -0.0095 -0.3406 -0.0751
  862TIP3    H124001   4.019   4.570   6.157  0.1884 -1.3979  0.0401
  862TIP3    H224002   3.944   4.489   6.054  0.1469 -0.4080 -0.7187
  863TIP3   OH224003   1.645   4.590   4.250 -0.2738  0.1642  0.2735
  863TIP3    H124004   1.615   4.635   4.329 -0.0185 -0.8294  0.9463
  863TIP3    H224005   1.643   4.497   4.273  4.4979  0.0464  0.8310
  864TIP3   OH224006   4.739   0.509   4.112  0.0161  0.2586 -0.2291
  864TIP3    H124007   4.693   0.473   4.036  0.2670 -2.5779  0.9284
  864TIP3    H224008   4.671   0.519   4.179  0.0992  1.1786 -0.2812
  865TIP3   OH224009   0.185   6.111  11.919  0.7504 -0.0508 -0.1224
  865TIP3    H124010   0.130   6.180  11.883  1.6283  0.7909  0.1228
  865TIP3    H224011   0.232   6.076  11.843  1.6567  0.8609  0.0138
  866TIP3   OH224012   2.154   6.707  10.557 -0.3497  0.0862  0.0652
  866TIP3    H124013   2.194   6.789  10.531  0.2622 -0.0888  0.4495
  866TIP3    H224014   2.084   6.693  10.492  0.1974  0.3978 -0.5963
  867TIP3   OH224015   3.466   6.741  13.987  0.0231 -0.0172 -0.4854
  867TIP3    H124016   3.417   6.696  13.918 -1.5309  1.4846 -0.3761
  867TIP3    H224017   3.420   6.719  14.067  0.8915 -0.4453 -0.0898
  868TIP3   OH224018   0.872   0.847   2.215  0.6815 -0.1061  0.2974
  868TIP3    H124019   0.787   0.807   2.233  0.7285 -0.8142 -1.0043
  868TIP3    H224020   0.851   0.934   2.181  0.4438 -0.4113 -0.3604
  869TIP3   OH224021   1.973   5.117   4.666 -1.0981  0.4602 -0.0031
  869TIP3    H124022   1.922   5.198   4.661 -0.8901  0.6368  0.6137
  869TIP3    H224023   1.915   5.056   4.711 -0.7684  0.6669  0.7176
  870TIP3   OH224024   0.561   3.296  15.702 -0.6159  0.1536  0.4673
  870TIP3    H124025   0.592   3.329  15.618  1.6489 -0.4129  1.0431
  870TIP3    H224026   0.571   3.370  15.762 -0.6035  0.0564  0.5871
  871TIP3   OH224027   2.156   6.457  17.213  0.6028 -0.3213  0.2831
  871TIP3    H124028   2.159   6.468  17.308  0.0521  1.2656  0.1463
  871TIP3    H224029   2.248   6.460  17.186  0.6407  2.0650  0.5139
  872TIP3   OH224030   2.446   0.609   1.366 -0.2387  0.2714 -0.1021
  872TIP3    H124031   2.380   0.540   1.358 -0.1007 -0.0675  1.4872
  872TIP3    H224032   2.515   0.583   1.306 -1.9487  1.1379 -2.5264
  873TIP3   OH224033   3.037   2.879  16.742  0.3665  0.0656  0.1148
  873TIP3    H124034   3.045   2.892  16.647  0.5450  1.1354  0.2707
  873TIP3    H224035   2.965   2.816  16.751  1.8278 -1.7837 -0.8281
  874TIP3   OH224036   5.121   1.511   4.988  0.0102  0.1583 -0.7968
  874TIP3    H124037   5.094   1.442   4.928  2.0694 -1.9531  0.6110
  874TIP3    H224038   5.131   1.467   5.073  0.8200  2.3022  0.2663
  875TIP3   OH224039   3.695   4.023   1.822  0.2217  0.1625 -0.4625
  875TIP3    H124040   3.764   3.995   1.762  0.3872  0.2733 -0.3251
  875TIP3    H224041   3.623   4.051   1.765 -0.7832 -2.5687 -0.6069
  876TIP3   OH224042   1.707   1.414  12.452  0.5833 -0.1120 -0.0038
  876TIP3    H124043   1.673   1.502  12.463  0.1564 -0.4083  1.1737
  876TIP3    H224044   1.649   1.373  12.388 -0.4222 -0.1624  0.9336
  877TIP3   OH224045   4.468   5.092   6.649 -0.1628 -0.0462  0.5356
  877TIP3    H124046   4.492   5.126   6.563 -1.5394  0.3025  0.2694
  877TIP3    H224047   4.535   5.127   6.708 -0.2646  1.2601 -0.0996
  878TIP3   OH224048   6.321   2.137   2.934  0.2140  0.4362 -0.1759
  878TIP3    H124049   6.342   2.214   2.881  0.7269 -1.1843 -2.3671
  878TIP3    H224050   6.381   2.069   2.903 -1.4592 -1.3740  0.4618
  879TIP3   OH224051   1.159   2.299   4.645 -0.3268 -0.7907  0.1684
  879TIP3    H124052   1.071   2.336   4.656 -0.8906 -1.8112 -0.8277
  879TIP3    H224053   1.189   2.332   4.561  0.3040 -0.3361  0.5673
  880TIP3   OH224054   0.601   1.940  12.778  0.4648 -0.1464 -0.1640
  880TIP3    H124055   0.570   1.975  12.694  0.1527 -0.4795 -0.1895
  880TIP3    H224056   0.614   1.847  12.762 -0.1633 -0.3235  0.3181
  881TIP3   OH224057   1.800   6.365   2.456 -0.1829  0.0015 -0.4081
  881TIP3    H124058   1.856   6.432   2.416 -0.2145 -0.6218 -1.5486
  881TIP3    H224059   1.733   6.347   2.390 -1.5481  0.4952  0.8183
  882TIP3   OH224060   5.321   4.236   3.172  0.0988 -0.8717  0.1244
  882TIP3    H124061   5.352   4.165   3.230  0.7388 -2.0936 -1.6793
  882TIP3    H224062   5.354   4.212   3.086 -0.2988  1.2895 -0.6438
  883TIP3   OH224063   1.013   2.319  11.463 -0.0080  0.2894  0.2131
  883TIP3    H124064   0.976   2.386  11.520  0.2246  0.2770  0.3771
  883TIP3    H224065   1.105   2.342  11.455 -0.3280  1.0986 -1.2817
  884TIP3   OH224066   1.245   1.891   5.768 -0.1092 -0.1536  0.4203
  884TIP3    H124067   1.150   1.876   5.767  0.1146 -1.7004  0.8527
  884TIP3    H224068   1.272   1.870   5.857  1.0291 -2.4649 -0.4279
  885TIP3   OH224069   4.017   5.781   3.165  0.1936  0.1885 -0.4281
  885TIP3    H124070   4.047   5.710   3.108  1.4043 -0.4769  1.0212
  885TIP3    H224071   3.986   5.737   3.244 -3.1657  0.9763 -1.2131
  886TIP3   OH224072   5.537   2.397   3.948 -0.5402 -0.5595  0.2529
  886TIP3    H124073   5.622   2.437   3.967 -1.6595  1.6997  0.6946
  886TIP3    H224074   5.494   2.392   4.034 -1.8160  0.6447 -0.3047
  887TIP3   OH224075   4.659   2.338  15.234 -0.0430  0.6705  0.6313
  887TIP3    H124076   4.588   2.292  15.190 -0.6929  1.2771  1.0305
  887TIP3    H224077   4.730   2.339  15.170 -0.4689  0.2570  0.1456
  888TIP3   OH224078   1.657   5.475   6.205  0.0277  0.1730 -0.4125
  888TIP3    H124079   1.734   5.427   6.234  0.4327  0.0846 -1.6010
  888TIP3    H224080   1.592   5.407   6.185  0.3752  0.1453 -1.4606
  889TIP3   OH224081   5.010   2.532   5.610  0.1228  0.4416  0.8118
  889TIP3    H124082   5.105   2.527   5.619  0.2799 -1.4548 -1.4829
  889TIP3    H224083   4.981   2.441   5.609 -1.6846  0.9963  1.1691
  890TIP3   OH224084   4.765   1.534   5.605 -0.2452 -0.1150  0.8336
  890TIP3    H124085   4.789   1.536   5.512 -0.5506  0.9553  0.7741
  890TIP3    H224086   4.702   1.605   5.615  0.1565  0.0915  1.9636
  891TIP3   OH224087   6.008   4.444  12.789  0.8539  0.0273  0.0958
  891TIP3    H124088   6.001   4.539  12.785 -0.4173 -0.0432  0.2765
  891TIP3    H224089   6.034   4.417  12.701 -1.0209  0.3949 -0.6029
  892TIP3   OH224090   4.923   3.582  11.577  0.2426  0.7914 -0.1510
  892TIP3    H124091   4.902   3.560  11.667  0.1150  1.3707 -0.0369
  892TIP3    H224092   5.009   3.625  11.582 -0.2530  1.8101 -0.1666
  893TIP3   OH224093   1.119   3.256  16.698  0.1975 -0.2594 -0.7195
  893TIP3    H124094   1.096   3.223  16.785 -1.7559 -0.2570 -1.2020
  893TIP3    H224095   1.102   3.350  16.703 -0.9512 -0.4218 -1.4092
  894TIP3   OH224096   2.759   3.328  12.322 -0.0633  0.1999  0.5018
  894TIP3    H124097   2.822   3.386  12.364  0.1162 -0.8419  1.6761
  894TIP3    H224098   2.772   3.243  12.363 -0.2773 -0.7237 -1.2627
  895TIP3   OH224099   2.186   0.358   0.728  0.1386  0.4226  0.1821
  895TIP3    H124100   2.141   0.417   0.668  0.4788 -0.2243 -0.7230
  895TIP3    H224101   2.129   0.280   0.732  1.0450 -0.3170 -0.8134
  896TIP3   OH224102   3.301   1.514  12.627 -0.1090  0.1820  0.8500
  896TIP3    H124103   3.267   1.603  12.617 -2.1114 -0.7290 -0.7514
  896TIP3    H224104   3.364   1.504  12.556 -0.5085  0.0458  0.5119
  897TIP3   OH224105   6.710   4.348  14.269  0.5915 -0.6230 -0.1613
  897TIP3    H124106   6.682   4.373  14.181 -1.0078 -0.8565  0.2725
  897TIP3    H224107   6.636   4.300  14.305  2.4255 -3.2918  0.1782
  898TIP3   OH224108   6.648   3.497  15.108  0.1878 -0.1027  0.3389
  898TIP3    H124109   6.602   3.413  15.103  1.5271 -0.8548  0.4481
  898TIP3    H224110   6.715   3.484  15.175  0.1233  1.1912  0.6593
  899TIP3   OH224111   1.713   4.507   1.391 -0.2693 -0.1680  0.4229
  899TIP3    H124112   1.710   4.412   1.396  0.8702 -0.2843 -0.7457
  899TIP3    H224113   1.650   4.530   1.323  0.9963 -0.2605 -0.8105
  900TIP3   OH224114   5.808   3.034  12.405 -0.5408  0.2622 -0.0419
  900TIP3    H124115   5.735   3.076  12.359 -1.8073 -1.2849  0.4712
  900TIP3    H224116   5.881   3.038  12.343 -1.6949 -0.1164 -1.4633
  901TIP3   OH224117   5.162   0.663  13.789 -0.1955 -0.0371  0.1964
  901TIP3    H124118   5.184   0.755  13.777 -1.8061  0.3837  0.4640
  901TIP3    H224119   5.247   0.619  13.792  0.5538  1.2648 -1.1868
  902TIP3   OH224120   0.566   5.489  13.562  0.1152  1.0020 -0.2318
  902TIP3    H124121   0.583   5.577  13.530  0.4980  0.8762 -0.3756
  902TIP3    H224122   0.474   5.491  13.589  0.0741  1.3941 -0.3945
  903TIP3   OH224123   1.654   4.584   5.977 -0.0236 -0.4799 -0.0783
  903TIP3    H124124   1.707   4.650   6.021 -1.3166  1.9892 -2.0708
  903TIP3    H224125   1.716   4.517   5.949  1.7576  1.3034 -0.4862
  904TIP3   OH224126   3.027   4.859   0.795 -0.5225 -0.7909 -0.3104
  904TIP3    H124127   3.006   4.892   0.707 -0.8080 -0.1612 -0.0067
  904TIP3    H224128   2.952   4.805   0.819 -1.4621  0.8267  0.4529
  905TIP3   OH224129   0.581   6.615  17.091  0.3724  0.2710  0.0934
  905TIP3    H124130   0.633   6.549  17.045 -0.6792  0.1681 -0.9869
  905TIP3    H224131   0.595   6.598  17.184  0.9476 -0.7883 -0.1871
  906TIP3   OH224132   1.215   0.072  12.405  0.5145  0.6597 -0.1221
  906TIP3    H124133   1.187   0.163  12.395 -1.3683 -0.1328 -2.6526
  906TIP3    H224134   1.270   0.055  12.328 -1.1707 -1.0127 -1.0078
  907TIP3   OH224135   2.030   2.599  16.567  0.2783 -0.4627 -0.2488
  907TIP3    H124136   2.069   2.527  16.618  0.4336 -0.6466 -0.6288
  907TIP3    H224137   2.062   2.678  16.610  0.0379 -0.6159  0.2237
  908TIP3   OH224138   1.031   1.732  16.039  0.2795  0.3164 -0.2249
  908TIP3    H124139   1.075   1.714  15.956  0.6515  1.1519 -0.2106
  908TIP3    H224140   0.938   1.727  16.017  0.3497 -2.2604 -0.0740
  909TIP3   OH224141   4.927   2.341   3.456 -0.2500  0.4366  0.0388
  909TIP3    H124142   5.018   2.314   3.447  0.3665  2.7511 -0.9821
  909TIP3    H224143   4.887   2.273   3.510  1.7595 -1.2780 -0.5592
  910TIP3   OH224144   4.701   0.739  16.174 -0.4351 -0.1040 -0.8707
  910TIP3    H124145   4.701   0.644  16.190 -0.3154  0.2607  1.5191
  910TIP3    H224146   4.609   0.764  16.178 -0.3333  0.1213  0.1075
  911TIP3   OH224147   3.424   3.714   2.169  0.3192  0.0631 -0.3658
  911TIP3    H124148   3.397   3.767   2.094  0.9765 -1.8314 -1.9831
  911TIP3    H224149   3.504   3.670   2.140  0.0016 -1.5092  1.0523
  912TIP3   OH224150   5.085   2.115   6.742  0.7050  0.4253 -0.0367
  912TIP3    H124151   5.172   2.137   6.774  0.6382 -0.7037  0.9999
  912TIP3    H224152   5.100   2.062   6.664  0.9918 -0.6644  0.7377
  913TIP3   OH224153   1.140   6.463   0.023  0.2750 -0.4230  0.2461
  913TIP3    H124154   1.060   6.423  -0.013  1.7254 -5.1531  1.8827
  913TIP3    H224155   1.199   6.470  -0.052 -0.3395 -0.4482 -0.2454
  914TIP3   OH224156   3.640   0.937  12.686 -0.4403 -0.4285  0.7473
  914TIP3    H124157   3.712   0.949  12.748 -0.7685  1.1160  0.8515
  914TIP3    H224158   3.681   0.942  12.600 -0.2950 -0.4738  0.8129
  915TIP3   OH224159   0.055   5.097   3.940  0.1305  0.2670  0.1046
  915TIP3    H124160   0.092   5.104   3.853 -0.9483 -1.6886 -0.5437
  915TIP3    H224161  -0.014   5.164   3.944  0.7396  0.9077 -0.2471
  916TIP3   OH224162   0.468   5.524  16.147  0.2837  0.7551 -0.8332
  916TIP3    H124163   0.522   5.582  16.093  1.0725 -0.4353 -1.3495
  916TIP3    H224164   0.528   5.454  16.174  0.1877  1.8864  2.5157
  917TIP3   OH224165   0.859   6.549  16.491 -0.2221 -0.2935 -0.2743
  917TIP3    H124166   0.921   6.520  16.425 -0.4781  1.1766 -1.1885
  917TIP3    H224167   0.865   6.645  16.489 -0.0816 -0.2240  1.9715
  918TIP3   OH224168   3.073   1.274  13.361 -0.5947  0.1122  0.3897
  918TIP3    H124169   3.119   1.292  13.279 -1.1528 -1.6651 -0.3308
  918TIP3    H224170   3.143   1.256  13.424 -0.1914  0.4404  0.0389
  919TIP3   OH224171   1.881   3.211   4.528  0.1360  0.1533  0.2288
  919TIP3    H124172   1.900   3.147   4.597  1.2168  0.2195  0.0031
  919TIP3    H224173   1.794   3.188   4.497 -0.4783  0.2759  1.7959
  920TIP3   OH224174   1.442   0.605  11.901 -0.3125  0.2113  0.2241
  920TIP3    H124175   1.525   0.557  11.902 -1.4302 -1.7923  0.1108
  920TIP3    H224176   1.441   0.651  11.817  0.2922 -0.4675 -0.1576
  921TIP3   OH224177   5.716   6.191  11.759 -0.3074  0.0527 -0.0547
  921TIP3    H124178   5.756   6.110  11.727 -0.7912 -0.5858  0.9328
  921TIP3    H224179   5.658   6.218  11.688  0.5526  0.0334 -0.7709
  922TIP3   OH224180   1.415   6.411   1.447  0.2841 -0.7504 -0.4829
  922TIP3    H124181   1.454   6.491   1.483  2.6693 -1.7715 -0.6716
  922TIP3    H224182   1.412   6.425   1.352 -0.5694 -0.3570 -0.4001
  923TIP3   OH224183   0.169   3.569   5.070 -0.7501 -0.2163 -0.2646
  923TIP3    H124184   0.183   3.642   5.131 -0.2783  0.8996 -1.6975
  923TIP3    H224185   0.246   3.513   5.082 -0.6482  0.0110  0.1418
  924TIP3   OH224186   5.446   1.593  12.890 -0.5458  0.3674 -0.0164
  924TIP3    H124187   5.367   1.631  12.929 -0.2210  1.3744 -0.3304
  924TIP3    H224188   5.481   1.535  12.957 -0.4925  1.3862  0.8366
  925TIP3   OH224189   5.527   5.450  11.442 -0.4415  0.0637  0.3337
  925TIP3    H124190   5.521   5.357  11.420 -0.1778  0.3151 -0.8560
  925TIP3    H224191   5.611   5.458  11.488  1.4092  0.2963 -2.8675
  926TIP3   OH224192   4.977   3.918   2.339  0.4254 -0.9645 -0.1204
  926TIP3    H124193   4.984   3.895   2.432 -0.0921 -1.2409 -0.1423
  926TIP3    H224194   4.886   3.947   2.329  0.4373 -1.0742 -0.5673
  927TIP3   OH224195   1.258   4.639  16.882 -0.7186 -0.5668  0.5300
  927TIP3    H124196   1.287   4.708  16.941 -1.3287 -0.0117  0.1863
  927TIP3    H224197   1.326   4.572  16.888  0.1269  0.2768  0.5012
  928TIP3   OH224198   5.845   0.307   1.980 -0.7388  0.4185 -0.1517
  928TIP3    H124199   5.860   0.223   1.937 -1.0559 -0.6146  1.6772
  928TIP3    H224200   5.923   0.321   2.033  0.1995  2.2806 -1.9909
  929TIP3   OH224201   3.714   1.760  13.999  0.0484 -0.7467  0.6555
  929TIP3    H124202   3.687   1.844  14.037 -1.0027 -0.1116 -1.4667
  929TIP3    H224203   3.667   1.754  13.916  2.7424 -1.8660 -0.8513
  930TIP3   OH224204   3.994   2.261   0.304  0.3743  0.3632 -0.8137
  930TIP3    H124205   3.960   2.201   0.237  0.4484 -0.5629 -0.0381
  930TIP3    H224206   4.083   2.230   0.320  0.0771  0.0838  0.2903
  931TIP3   OH224207   3.280   6.705   5.236 -0.9045  0.0022  0.5371
  931TIP3    H124208   3.203   6.718   5.181 -0.3105 -0.1691 -0.3440
  931TIP3    H224209   3.344   6.767   5.203  0.1984 -1.5953 -0.3725
  932TIP3   OH224210   3.449   2.415  15.002  0.1012  0.5561  0.3023
  932TIP3    H124211   3.490   2.362  15.071  2.6053 -0.6981 -2.0487
  932TIP3    H224212   3.415   2.351  14.940 -1.4247  1.6793 -0.0456
  933TIP3   OH224213   3.751   3.747  16.806 -0.1986  0.6071 -0.0559
  933TIP3    H124214   3.719   3.742  16.716  0.4029 -1.8172 -0.1577
  933TIP3    H224215   3.673   3.767  16.858 -0.2614  3.8662 -1.2384
  934TIP3   OH224216   6.348   2.188  16.481  0.4010  0.9856 -0.0402
  934TIP3    H124217   6.435   2.156  16.456 -0.6723 -1.1550 -1.2036
  934TIP3    H224218   6.289   2.150  16.416 -1.3992  2.5004  0.6685
  935TIP3   OH224219   0.760   5.693  16.985 -0.1487 -0.0947  0.1821
  935TIP3    H124220   0.737   5.768  17.040 -2.0540  0.3374 -1.1557
  935TIP3    H224221   0.786   5.625  17.047  0.9800  1.4451  1.4424
  936TIP3   OH224222   6.121   4.488   2.786  0.3973 -0.6264  0.9990
  936TIP3    H124223   6.134   4.448   2.700 -1.2895 -0.8982  0.8440
  936TIP3    H224224   6.128   4.414   2.848  0.3454 -0.6403  0.9882
  937TIP3   OH224225   2.055   3.159  13.753  0.0224 -0.0649  0.3367
  937TIP3    H124226   2.062   3.064  13.745 -0.7448 -0.0489 -0.6205
  937TIP3    H224227   1.967   3.179  13.723  0.5036  1.0451 -0.3814
  938TIP3   OH224228   1.188   1.022  15.711 -0.3061 -0.7323  0.1389
  938TIP3    H124229   1.274   1.065  15.712 -0.7124  0.1161 -1.1798
  938TIP3    H224230   1.208   0.931  15.691  0.2059 -0.3169 -1.3333
  939TIP3   OH224231   4.367   3.297   1.143 -0.2965 -0.2792 -0.3067
  939TIP3    H124232   4.425   3.370   1.167 -0.0721 -0.6482  0.2993
  939TIP3    H224233   4.348   3.311   1.051  0.7992 -0.1763 -0.5301
  940TIP3   OH224234   3.576   1.264   1.969  0.1184 -0.5223  0.2722
  940TIP3    H124235   3.487   1.258   1.934 -0.3800 -1.3662  1.6178
  940TIP3    H224236   3.630   1.217   1.906 -0.6008 -1.1397  0.1114
  941TIP3   OH224237   0.178   1.203  16.633 -0.2104 -0.3334  0.6980
  941TIP3    H124238   0.268   1.197  16.601  0.6214  2.0218  2.3802
  941TIP3    H224239   0.132   1.130  16.592  1.9961 -0.4175 -1.7333
  942TIP3   OH224240   3.407   2.574  15.763  0.8265 -0.6926 -0.1857
  942TIP3    H124241   3.334   2.633  15.780  2.4009  1.2274  0.0951
  942TIP3    H224242   3.419   2.526  15.845  1.5712  0.9167  0.6739
  943TIP3   OH224243   0.902   0.305  11.402  0.1607  0.2464  0.8177
  943TIP3    H124244   0.937   0.365  11.468 -0.5275  0.9682  0.5338
  943TIP3    H224245   0.887   0.223  11.449  3.6963 -0.5896  0.6274
  944TIP3   OH224246   2.132   0.497  11.479 -0.2986  0.4207  0.2013
  944TIP3    H124247   2.086   0.538  11.552 -1.2191 -0.4264  0.1046
  944TIP3    H224248   2.133   0.564  11.410  0.4339  1.1625  0.9249
  945TIP3   OH224249   1.859   5.499   3.524 -0.5568  0.2007  0.6062
  945TIP3    H124250   1.848   5.592   3.548 -3.0558  0.1540 -0.1790
  945TIP3    H224251   1.867   5.454   3.608  0.1286  1.0716  1.0201
  946TIP3   OH224252   2.451   1.299   0.429 -0.0254  0.1695  0.2795
  946TIP3    H124253   2.418   1.262   0.511  0.9266 -0.2047  0.4963
  946TIP3    H224254   2.500   1.377   0.456 -0.9573  0.8829 -0.0657
  947TIP3   OH224255   1.451   4.598  13.128 -0.0388 -0.1170  0.4935
  947TIP3    H124256   1.449   4.504  13.141 -0.9219 -0.0812  0.6131
  947TIP3    H224257   1.362   4.621  13.104  0.4951  0.4809 -0.9714
  948TIP3   OH224258   0.870   6.538   5.328 -0.0826 -0.1973  0.2193
  948TIP3    H124259   0.809   6.496   5.267  0.4594  0.4504 -0.7684
  948TIP3    H224260   0.816   6.559   5.404 -0.9138 -0.4035 -0.3041
  949TIP3   OH224261   3.036   0.367   5.947 -0.0934 -0.5495  0.1946
  949TIP3    H124262   3.033   0.450   5.996  1.4733  0.0093 -0.6056
  949TIP3    H224263   3.004   0.302   6.009  0.7808  0.3286  1.6090
  950TIP3   OH224264   6.200   4.927   1.977 -0.1690 -0.8240  0.4688
  950TIP3    H124265   6.240   4.872   2.044  0.9226 -0.8641 -0.2100
  950TIP3    H224266   6.110   4.895   1.969 -0.1473 -1.1646  1.5243
  951TIP3   OH224267   6.643   6.476  13.843  0.2862 -0.4444 -0.2634
  951TIP3    H124268   6.660   6.569  13.830 -0.2388 -0.2886  0.1237
  951TIP3    H224269   6.661   6.436  13.758 -0.5371  0.1708 -0.7405
  952TIP3   OH224270   2.957   3.819   0.177 -0.0156 -0.4149  0.1209
  952TIP3    H124271   2.993   3.730   0.187  0.9146  0.0413  0.9455
  952TIP3    H224272   2.894   3.811   0.106 -0.0763 -1.7850  0.3082
  953TIP3   OH224273   1.180   3.026  16.010  0.4051 -0.6829  0.1200
  953TIP3    H124274   1.177   2.955  16.074 -0.2555  0.3912  1.3052
  953TIP3    H224275   1.134   3.099  16.052  1.6041  0.6504 -0.8144
  954TIP3   OH224276   6.151   1.424   0.444  0.0941  0.0367  0.1040
  954TIP3    H124277   6.235   1.462   0.419  0.0642 -0.2565 -0.4364
  954TIP3    H224278   6.120   1.479   0.516 -0.4503  1.6898 -1.3575
  955TIP3   OH224279   6.619   3.731   3.639 -0.2511 -0.2135 -0.0733
  955TIP3    H124280   6.566   3.673   3.584 -2.1103 -0.1826  1.5941
  955TIP3    H224281   6.555   3.775   3.695  1.3203  1.9478  0.0879
  956TIP3   OH224282   1.484   5.535   4.812 -0.0770  0.2388  0.1750
  956TIP3    H124283   1.412   5.522   4.873  0.0268  0.1767  0.2829
  956TIP3    H224284   1.563   5.514   4.862 -0.0392 -0.4731 -0.1767
  957TIP3   OH224285   6.694   0.367   0.288  0.0876 -0.1994 -0.4619
  957TIP3    H124286   6.603   0.348   0.262  0.5515 -0.3881 -2.0227
  957TIP3    H224287   6.686   0.413   0.371 -1.3962 -1.1293 -0.0644
  958TIP3   OH224288   2.628   0.029   3.249  0.0907 -0.0418 -0.6513
  958TIP3    H124289   2.646   0.078   3.169  0.7942  0.7834  0.0073
  958TIP3    H224290   2.702  -0.031   3.257  0.1124  0.0049 -0.5110
  959TIP3   OH224291   0.219   4.794   4.776  0.2947 -0.8528  0.4276
  959TIP3    H124292   0.286   4.850   4.735 -0.1499 -0.6114  0.0299
  959TIP3    H224293   0.139   4.846   4.772 -0.2727 -1.7694 -0.5469
  960TIP3   OH224294   3.590   0.587   1.435 -0.5612 -0.0577 -0.2417
  960TIP3    H124295   3.546   0.632   1.508 -1.9522 -2.8440  0.7167
  960TIP3    H224296   3.589   0.495   1.460  0.4730 -0.8727 -3.0273
  961TIP3   OH224297   5.098   1.515  15.522 -0.0706 -0.1817 -0.4968
  961TIP3    H124298   5.191   1.495  15.522 -0.5455 -2.5489 -0.6787
  961TIP3    H224299   5.088   1.586  15.458  1.4872 -0.3943 -0.9794
  962TIP3   OH224300   4.925   4.142  16.638  0.0934 -0.1764  0.4924
  962TIP3    H124301   4.891   4.186  16.561  0.1924 -3.0038 -1.2410
  962TIP3    H224302   4.857   4.155  16.705 -1.7285 -0.8366 -1.1896
  963TIP3   OH224303   3.678   3.652   2.592 -0.1515  0.5197 -0.0417
  963TIP3    H124304   3.651   3.635   2.682  0.4885 -0.1267  0.0365
  963TIP3    H224305   3.685   3.565   2.552 -1.3680  0.8466 -0.9950
  964TIP3   OH224306   5.265   5.081  12.634 -0.5754  0.0262 -0.6036
  964TIP3    H124307   5.326   5.097  12.706  0.2322 -0.7214 -1.1139
  964TIP3    H224308   5.185   5.052  12.677 -0.4015  0.4691  0.0394
  965TIP3   OH224309   5.151   0.237   4.405  0.3507 -0.7068 -0.4900
  965TIP3    H124310   5.075   0.290   4.384 -0.0715 -0.3885  1.7104
  965TIP3    H224311   5.115   0.153   4.435  0.8882 -0.8917 -0.3502
  966TIP3   OH224312   1.236   1.252   1.783  0.0984 -0.0832  0.3822
  966TIP3    H124313   1.163   1.214   1.734  0.4137  1.5784 -1.4198
  966TIP3    H224314   1.194   1.295   1.858 -0.8822  1.5138 -1.0398
  967TIP3   OH224315   4.832   0.400   2.987  0.2152 -0.0452  0.2731
  967TIP3    H124316   4.799   0.329   2.931  0.1155  0.3689 -0.1989
  967TIP3    H224317   4.900   0.442   2.934 -0.3253  0.7555  0.2077
  968TIP3   OH224318   0.960   1.751  11.865 -0.2629  0.0660 -0.3024
  968TIP3    H124319   0.927   1.732  11.953 -0.0785 -0.7473 -0.4059
  968TIP3    H224320   0.966   1.665  11.823  0.5401  0.3632 -0.7984
  969TIP3   OH224321   4.566   5.513  17.134  0.4398 -0.1180 -0.4067
  969TIP3    H124322   4.504   5.582  17.158  0.1036 -1.2874  2.2908
  969TIP3    H224323   4.652   5.552  17.145  0.2268  0.4658 -0.8107
  970TIP3   OH224324   2.915   1.186  14.228 -0.1862  0.2008  0.5302
  970TIP3    H124325   2.962   1.104  14.212  1.2537  1.2175 -0.5123
  970TIP3    H224326   2.846   1.187  14.161  0.2161  0.1440  0.1085
  971TIP3   OH224327   4.539   0.403   3.492  0.2204 -0.2643  0.2808
  971TIP3    H124328   4.633   0.391   3.474 -0.1702 -2.2257 -0.5787
  971TIP3    H224329   4.536   0.479   3.550  2.2152  0.8421 -0.9793
  972TIP3   OH224330   6.246   5.150   1.620 -0.1884  0.1229 -0.3118
  972TIP3    H124331   6.322   5.176   1.568  1.0940 -4.0405 -0.6368
  972TIP3    H224332   6.182   5.120   1.556 -0.9582  0.6874  0.1740
  973TIP3   OH224333   6.162   3.626   0.218 -0.0046 -0.1274 -0.3026
  973TIP3    H124334   6.086   3.568   0.226 -0.0757 -0.0840 -0.6502
  973TIP3    H224335   6.173   3.663   0.305 -1.2212  0.9256 -0.5852
  974TIP3   OH224336   5.689   1.817   1.120 -0.1384  0.7766  0.1475
  974TIP3    H124337   5.723   1.758   1.052 -1.1927  1.5646 -1.0862
  974TIP3    H224338   5.598   1.789   1.132  1.0560 -1.8718  4.0211
  975TIP3   OH224339   1.517   1.913  15.186 -0.1774 -0.1240  0.1085
  975TIP3    H124340   1.461   1.855  15.135 -0.6732 -0.5571  1.1211
  975TIP3    H224341   1.561   1.855  15.248  1.4247  0.2117 -0.7015
  976TIP3   OH224342   6.336   3.043   1.392  0.1667 -0.2760 -0.1439
  976TIP3    H124343   6.335   3.109   1.461  0.1808 -2.8203  2.3873
  976TIP3    H224344   6.427   3.042   1.361  0.0829  1.1103 -0.4535
  977TIP3   OH224345   1.848   3.561   1.550 -0.0843  0.0988  0.3210
  977TIP3    H124346   1.886   3.639   1.510 -0.0107 -1.0934 -2.0289
  977TIP3    H224347   1.923   3.503   1.565 -0.2780  0.0197  0.9997
  978TIP3   OH224348   2.093   6.446  15.613  0.0967 -0.3785 -0.6250
  978TIP3    H124349   2.135   6.396  15.543 -0.4757 -0.5394 -0.8493
  978TIP3    H224350   2.157   6.446  15.684  0.8198  0.0661 -1.2638
  979TIP3   OH224351   1.849   4.453   1.919 -0.2313  1.0210 -0.1519
  979TIP3    H124352   1.909   4.528   1.920  0.8806  0.1609  1.6506
  979TIP3    H224353   1.793   4.467   1.996 -0.3812  0.2897 -0.1282
  980TIP3   OH224354   1.563   3.575   0.215 -0.4480  0.0874  0.0365
  980TIP3    H124355   1.524   3.662   0.216 -1.4478 -0.3211 -1.4043
  980TIP3    H224356   1.502   3.522   0.164  0.6010 -1.2441  0.1282
  981TIP3   OH224357   1.043   4.476  14.187 -0.2415 -0.2505 -0.0170
  981TIP3    H124358   1.132   4.462  14.219  0.3388 -2.1767 -2.3317
  981TIP3    H224359   0.993   4.402  14.220 -0.5923 -0.0784 -0.1579
  982TIP3   OH224360   6.391   4.915  14.814 -0.3566  0.2758 -0.2441
  982TIP3    H124361   6.384   4.888  14.722  0.8224  1.0939 -0.5816
  982TIP3    H224362   6.330   4.989  14.822 -1.4512 -0.6301 -0.0238
  983TIP3   OH224363   0.968   3.547  16.059  0.0209 -0.1470  0.0366
  983TIP3    H124364   0.924   3.481  16.007  0.3561 -0.9155  0.7081
  983TIP3    H224365   1.061   3.524  16.054  0.0611 -0.2234  0.9344
  984TIP3   OH224366   1.882   3.835  16.926 -0.2617 -0.1410  0.0884
  984TIP3    H124367   1.924   3.896  16.986  0.6782 -1.1437  0.4627
  984TIP3    H224368   1.909   3.749  16.956 -0.2214 -0.6777 -1.4400
  985TIP3   OH224369   1.673   4.511   5.272  0.5161 -0.0053 -0.2432
  985TIP3    H124370   1.719   4.574   5.328  0.8771 -0.1772 -0.3444
  985TIP3    H224371   1.610   4.469   5.330  0.4345  0.2870 -0.1191
  986TIP3   OH224372   3.887   3.205  16.555 -0.1696 -0.6976  0.0899
  986TIP3    H124373   3.814   3.265  16.574  0.5431 -0.4329  2.1526
  986TIP3    H224374   3.882   3.191  16.461 -0.3348  2.6653 -0.4847
  987TIP3   OH224375   2.533   2.635   1.649 -0.3980  0.3356 -0.5170
  987TIP3    H124376   2.606   2.676   1.602 -0.2475  1.3226  0.5586
  987TIP3    H224377   2.563   2.632   1.740 -1.3728 -0.0240 -0.2110
  988TIP3   OH224378   4.177   3.131  12.610 -0.2127  0.3253  0.1186
  988TIP3    H124379   4.115   3.117  12.539 -1.1122  2.6003  0.4187
  988TIP3    H224380   4.138   3.087  12.686 -0.5359  0.1754 -0.1376
  989TIP3   OH224381   0.782   5.482  12.324 -0.1403  0.1007  0.1680
  989TIP3    H124382   0.802   5.556  12.380 -0.1335 -0.0760  0.3995
  989TIP3    H224383   0.867   5.445  12.301 -0.1588 -0.0668  0.3661
  990TIP3   OH224384   6.456   1.875   2.898 -0.1991 -0.0093  0.3054
  990TIP3    H124385   6.512   1.798   2.907  0.0708 -0.0644 -1.7302
  990TIP3    H224386   6.444   1.907   2.988  1.5068 -1.1189  0.9362
  991TIP3   OH224387   1.356   3.610   5.386  0.1171 -0.2904 -0.2113
  991TIP3    H124388   1.425   3.543   5.386  0.3798 -0.0347  1.1040
  991TIP3    H224389   1.304   3.591   5.464 -1.0295 -0.1966 -0.9506
  992TIP3   OH224390   2.986   2.623  12.951 -0.3647 -0.0275 -0.1240
  992TIP3    H124391   2.981   2.709  12.909 -1.1332 -0.0177 -0.0358
  992TIP3    H224392   2.894   2.599  12.966 -0.1983 -1.3935 -1.2174
  993TIP3   OH224393   2.531   0.543  11.562 -0.4454 -0.2694  0.0277
  993TIP3    H124394   2.593   0.499  11.619 -0.8424 -0.8060  0.0473
  993TIP3    H224395   2.462   0.478  11.547 -1.2209  0.4682  0.3699
  994TIP3   OH224396   0.584   0.047   2.786 -0.7927  0.3442 -0.3880
  994TIP3    H124397   0.678   0.062   2.778 -0.7100 -0.7179 -1.3960
  994TIP3    H224398   0.561  -0.006   2.710 -2.2599  0.8339 -0.2995
  995TIP3   OH224399   5.238   5.931   3.368 -0.5082  0.0806  0.2233
  995TIP3    H124400   5.167   5.907   3.428 -1.3282  0.4709 -0.5909
  995TIP3    H224401   5.279   6.008   3.408 -2.3135  1.5604 -0.6994
  996TIP3   OH224402   6.588   4.957   2.069 -0.4845 -0.2244  0.1544
  996TIP3    H124403   6.592   4.912   2.153  2.7277  1.9338  1.2456
  996TIP3    H224404   6.516   5.020   2.078  0.0375  0.1949  1.3818
  997TIP3   OH224405   0.466   6.132  16.464  0.3065 -0.4135 -0.5115
  997TIP3    H124406   0.394   6.169  16.413  0.7722 -0.4916 -1.2269
  997TIP3    H224407   0.530   6.203  16.471  1.3323 -1.1507 -2.1421
  998TIP3   OH224408   0.098   0.857   2.805  0.5910 -0.6482 -0.0445
  998TIP3    H124409   0.096   0.953   2.810  2.3800 -0.4882 -1.8165
  998TIP3    H224410   0.119   0.829   2.894  1.1019  0.6458  0.2618
  999TIP3   OH224411   2.282   3.875  13.203 -0.0937 -0.2481  0.3864
  999TIP3    H124412   2.360   3.888  13.150 -1.1403  1.7420 -0.7345
  999TIP3    H224413   2.306   3.807  13.266  1.4410 -2.0935 -2.1011
 1000TIP3   OH224414   5.587   2.257   4.298  0.4136 -0.4220  0.0413
 1000TIP3    H124415   5.635   2.325   4.252  0.9006 -0.6091  0.2696
 1000TIP3    H224416   5.641   2.178   4.287  0.6048 -0.4317  1.0640
 1001TIP3   OH224417   2.660   0.197   3.462 -0.2216  0.4537  0.4714
 1001TIP3    H124418   2.663   0.284   3.421 -2.8827 -0.1157 -1.0575
 1001TIP3    H224419   2.660   0.136   3.389 -1.9373 -0.6877  1.3995
 1002TIP3   OH224420   1.713   2.640  12.810  0.2737 -0.8586  0.0265
 1002TIP3    H124421   1.789   2.633  12.751 -0.2246 -0.3324 -0.6936
 1002TIP3    H224422   1.751   2.652  12.897  1.0219 -0.7486 -0.3090
 1003TIP3   OH224423   0.024   4.350   5.279 -0.2243  0.7027 -0.3316
 1003TIP3    H124424   0.040   4.267   5.322 -0.3468  0.4652 -0.7428
 1003TIP3    H224425  -0.006   4.408   5.349 -0.1908  0.3863 -0.0550
 1004TIP3   OH224426   0.799   5.145  12.632 -0.2166 -0.4168  0.7150
 1004TIP3    H124427   0.708   5.114  12.633 -0.2131 -0.4983 -0.6392
 1004TIP3    H224428   0.791   5.240  12.631 -0.2825 -0.4205  0.8093
 1005TIP3   OH224429   0.097   0.716  12.224  0.3977 -0.0192  0.0737
 1005TIP3    H124430   0.042   0.643  12.196  2.7531 -1.8276  0.0929
 1005TIP3    H224431   0.100   0.774  12.147 -0.2773 -0.6433 -0.4390
 1006TIP3   OH224432   1.581   0.191   0.639 -0.0635 -0.3939  0.3122
 1006TIP3    H124433   1.593   0.098   0.620  0.6336 -0.0670 -0.9199
 1006TIP3    H224434   1.550   0.228   0.557 -1.4440  0.2744  1.1213
 1007TIP3   OH224435   2.286   3.622   5.763  0.7593 -0.5518 -0.3892
 1007TIP3    H124436   2.219   3.629   5.694  0.4256 -1.8369 -0.2281
 1007TIP3    H224437   2.239   3.643   5.844  1.5334  2.5562 -0.6993
 1008TIP3   OH224438   6.014   6.319  13.160 -0.0284 -0.5116  0.0188
 1008TIP3    H124439   6.058   6.234  13.163  0.5046 -0.1902  1.4157
 1008TIP3    H224440   6.026   6.349  13.069  0.0962 -1.7503 -0.3813
 1009TIP3   OH224441   4.837   1.951  12.551  0.1813 -0.4315 -0.2593
 1009TIP3    H124442   4.829   1.995  12.636 -0.0926 -0.9334 -0.0175
 1009TIP3    H224443   4.848   1.858  12.573 -0.0309 -0.5826 -0.7747
 1010TIP3   OH224444   4.208   3.275   4.752  0.0836  0.0716 -0.7227
 1010TIP3    H124445   4.139   3.221   4.791 -1.2549  2.1892 -0.0206
 1010TIP3    H224446   4.276   3.279   4.819 -1.3260  2.0401  0.6384
 1011TIP3   OH224447   5.017   1.606   3.640  0.7807 -0.0069 -0.3279
 1011TIP3    H124448   5.048   1.517   3.623  0.4287 -0.2292  0.1761
 1011TIP3    H224449   5.075   1.639   3.709 -0.1250 -0.4494  0.6691
 1012TIP3   OH224450   0.784   3.781   6.547 -0.1830  0.2166 -0.4712
 1012TIP3    H124451   0.704   3.778   6.495  0.7390  0.2963 -1.9179
 1012TIP3    H224452   0.779   3.864   6.595 -1.7320 -0.5445  0.7167
 1013TIP3   OH224453   6.188   1.941   1.269 -0.0166 -0.0258 -0.1202
 1013TIP3    H124454   6.164   1.863   1.319 -1.0786 -1.0013 -2.1105
 1013TIP3    H224455   6.240   1.908   1.196  3.5581  1.6137  1.5497
 1014TIP3   OH224456   4.214   0.530   1.625  0.3413 -0.2848 -0.0131
 1014TIP3    H124457   4.151   0.585   1.672 -1.7979 -1.0436 -1.8758
 1014TIP3    H224458   4.198   0.441   1.658  1.0581 -0.3575  0.1496
 1015TIP3   OH224459   1.855   5.541  15.225 -0.4828  0.1223  0.0896
 1015TIP3    H124460   1.839   5.635  15.213 -1.9080  0.0954  1.6139
 1015TIP3    H224461   1.848   5.528  15.320  4.4921 -0.6764  0.4719
 1016TIP3   OH224462   2.979   2.784  11.358  0.3697 -0.5050  0.7807
 1016TIP3    H124463   2.903   2.838  11.380  0.3550 -0.2305  0.0572
 1016TIP3    H224464   3.020   2.829  11.284  0.2377 -1.5982  0.0287
 1017TIP3   OH224465   1.137   0.441   0.080  0.4097 -0.1018 -0.0592
 1017TIP3    H124466   1.110   0.467  -0.008 -0.0736  0.6430  0.2986
 1017TIP3    H224467   1.100   0.353   0.092 -0.3998  0.2151 -0.2145
 1018TIP3   OH224468   0.284   3.787  15.872  0.6901 -0.0120 -0.0712
 1018TIP3    H124469   0.261   3.858  15.932  0.5007  0.9277 -1.2220
 1018TIP3    H224470   0.224   3.716  15.893  1.4659 -0.1679  1.6997
 1019TIP3   OH224471   2.564   1.263  13.530 -0.1181  0.3901 -0.1860
 1019TIP3    H124472   2.644   1.229  13.489 -0.2885 -0.9847  0.5645
 1019TIP3    H224473   2.493   1.216  13.487 -0.3731 -0.1119  0.7551
 1020TIP3   OH224474   5.777   1.433  17.056  0.2404  0.0362 -0.3597
 1020TIP3    H124475   5.778   1.398  17.145  2.1529  1.7928  0.3588
 1020TIP3    H224476   5.697   1.486  17.053 -1.5851 -2.6480 -0.8050
 1021TIP3   OH224477   3.439   0.312  15.333 -0.0847  0.1186 -0.5321
 1021TIP3    H124478   3.531   0.341  15.337 -0.7456  2.1704  0.7807
 1021TIP3    H224479   3.404   0.355  15.255  0.1776 -0.9946 -1.2618
 1022TIP3   OH224480   1.741   6.783  14.751 -0.0147 -0.5686  0.1680
 1022TIP3    H124481   1.773   6.702  14.790 -0.8321 -1.1828 -0.4123
 1022TIP3    H224482   1.795   6.795  14.673  0.6623 -0.1011  0.6981
 1023TIP3   OH224483   0.846   0.547  16.819  0.1224  0.0739 -0.0630
 1023TIP3    H124484   0.800   0.509  16.894  0.4673  1.2226  0.7573
 1023TIP3    H224485   0.914   0.484  16.798  1.0370  0.4666  1.6272
 1024TIP3   OH224486   0.218   3.546  12.868 -0.2060 -0.1941  0.7015
 1024TIP3    H124487   0.310   3.559  12.846  0.1226 -0.0610  2.1083
 1024TIP3    H224488   0.200   3.455  12.843  0.3788 -0.2952  0.6393
 1025TIP3   OH224489   0.900   5.294  13.915  0.4701  0.2585 -0.7490
 1025TIP3    H124490   0.828   5.236  13.890 -0.9698  1.9608 -0.5753
 1025TIP3    H224491   0.974   5.263  13.863  0.2980 -3.0415  0.7776
 1026TIP3   OH224492   6.085   5.853   2.343  0.0794  0.1537 -0.3461
 1026TIP3    H124493   6.156   5.791   2.362  2.5765  2.4896 -1.6525
 1026TIP3    H224494   6.105   5.885   2.255 -2.6493  0.8747 -0.7412
 1027TIP3   OH224495   5.717   1.167  16.189  0.5610 -0.0510 -0.1660
 1027TIP3    H124496   5.712   1.131  16.278 -1.3901  0.5464 -0.0121
 1027TIP3    H224497   5.766   1.102  16.139  0.1799 -1.2116  0.9431
 1028TIP3   OH224498   5.017   0.197  16.224  0.3047 -0.0561 -0.0866
 1028TIP3    H124499   5.034   0.289  16.203  0.0124 -0.1995 -0.9481
 1028TIP3    H224500   4.969   0.200  16.306  3.0664  0.4391  1.5832
 1029TIP3   OH224501   3.034   4.943   2.007  0.2974  0.1449  0.3851
 1029TIP3    H124502   2.966   4.888   2.045 -0.6502  1.4486  0.6102
 1029TIP3    H224503   3.027   4.929   1.913 -0.0584  0.0261  0.4302
 1030TIP3   OH224504   0.191   0.383   0.387  0.4431 -0.4983  0.5432
 1030TIP3    H124505   0.200   0.415   0.477  0.6249  1.8103 -0.2631
 1030TIP3    H224506   0.097   0.390   0.368  0.7183  1.2544 -0.2282
 1031TIP3   OH224507   3.144   0.793   0.160  0.0522  0.2962 -0.8346
 1031TIP3    H124508   3.152   0.782   0.065 -2.1070  0.7155 -1.0917
 1031TIP3    H224509   3.117   0.706   0.192 -0.3848  0.4555 -0.7635
 1032TIP3   OH224510   5.697   4.631  11.874  0.0867 -0.8193 -0.2957
 1032TIP3    H124511   5.650   4.617  11.792  0.8470 -2.3479 -0.4925
 1032TIP3    H224512   5.676   4.553  11.926  0.7148 -0.5143  0.4123
 1033TIP3   OH224513   0.183   6.515   3.402  0.4703 -0.5794 -0.5847
 1033TIP3    H124514   0.261   6.509   3.346  0.7808 -0.7121 -0.1385
 1033TIP3    H224515   0.118   6.459   3.359  0.9514 -1.2742 -0.4088
 1034TIP3   OH224516   0.110   1.072  13.680  0.6590 -0.3731  0.7824
 1034TIP3    H124517   0.047   1.092  13.749 -0.0369 -0.7620  0.2594
 1034TIP3    H224518   0.136   1.157  13.647 -0.8924 -0.2439 -0.1642
 1035TIP3   OH224519   1.535   1.097   3.478 -0.2175  0.0081  0.1652
 1035TIP3    H124520   1.589   1.176   3.476 -0.1714 -0.0305 -0.1035
 1035TIP3    H224521   1.467   1.117   3.544 -0.3099  0.3377 -0.0257
 1036TIP3   OH224522   3.827   2.402  13.996 -0.6343 -0.1363  0.2408
 1036TIP3    H124523   3.843   2.344  13.921 -0.4214  2.8725 -2.1582
 1036TIP3    H224524   3.912   2.409  14.039  0.3841  1.6360 -1.9453
 1037TIP3   OH224525   4.207   2.816   4.807  0.5007  0.0379  0.1639
 1037TIP3    H124526   4.231   2.725   4.824  0.9844  0.1252 -0.0555
 1037TIP3    H224527   4.269   2.846   4.740  0.8799  0.7854  0.8440
 1038TIP3   OH224528   2.863   2.733   4.063  0.0244  0.2229  0.3610
 1038TIP3    H124529   2.895   2.683   4.138 -0.7997 -0.0545  0.5352
 1038TIP3    H224530   2.890   2.823   4.082 -0.3248  0.1813  1.0822
 1039TIP3   OH224531   3.682   6.659   2.819  0.7154 -0.4227 -0.0772
 1039TIP3    H124532   3.714   6.575   2.854 -0.1418 -0.5145  0.4930
 1039TIP3    H224533   3.654   6.708   2.896 -0.8533 -0.4851 -0.5923
 1040TIP3   OH224534   2.134   1.261   1.714 -0.0816  0.4163  0.2071
 1040TIP3    H124535   2.196   1.322   1.754  1.5527  0.6950 -2.6134
 1040TIP3    H224536   2.169   1.175   1.736 -1.1807  0.4710  2.3323
 1041TIP3   OH224537   2.942   6.395  10.353 -0.1245  0.4211  0.1381
 1041TIP3    H124538   2.999   6.397  10.276  1.6923 -0.6974  1.4141
 1041TIP3    H224539   2.892   6.314  10.344  2.0213 -1.1125  1.4311
 1042TIP3   OH224540   3.701   6.247  10.607 -0.6782  0.2279  0.3615
 1042TIP3    H124541   3.735   6.229  10.519  1.0836  1.6028  0.7233
 1042TIP3    H224542   3.654   6.167  10.632 -0.2057 -0.6098 -1.3578
 1043TIP3   OH224543   1.254   2.025   1.000  0.3911  0.5303  0.0496
 1043TIP3    H124544   1.194   2.096   1.022  1.1765  1.6140 -1.2243
 1043TIP3    H224545   1.203   1.966   0.946 -0.1295  0.3665  0.7161
 1044TIP3   OH224546   0.724   6.770   5.474  0.2764 -0.0035 -0.3142
 1044TIP3    H124547   0.781   6.792   5.547 -1.0492  3.3336 -0.2209
 1044TIP3    H224548   0.749   6.830   5.404 -1.0409 -0.5842 -1.3160
 1045TIP3   OH224549   6.249   6.158  13.710 -0.3722  0.8999  0.3297
 1045TIP3    H124550   6.267   6.064  13.708  2.3656  1.3582  1.1095
 1045TIP3    H224551   6.169   6.169  13.658  0.0638 -1.6855 -0.9391
 1046TIP3   OH224552   3.504   6.398   2.911  0.0464  0.2412 -0.5720
 1046TIP3    H124553   3.513   6.464   2.979  0.4115 -0.3937 -0.0012
 1046TIP3    H224554   3.422   6.352   2.932 -0.1988  0.4987 -0.9579
 1047TIP3   OH224555   2.177   0.642  13.459 -0.0060  0.1562 -0.0772
 1047TIP3    H124556   2.123   0.563  13.458  0.8448 -0.4186 -0.6270
 1047TIP3    H224557   2.234   0.631  13.535 -1.3933  1.2764  1.1697
 1048TIP3   OH224558   0.359   1.645  16.898  0.1777  0.4604  0.2536
 1048TIP3    H124559   0.382   1.578  16.963 -1.1429 -2.8871 -2.5534
 1048TIP3    H224560   0.264   1.656  16.908  0.2585  1.2857  0.1192
 1049TIP3   OH224561   3.778   3.478   0.552  0.0431 -0.2214 -0.7349
 1049TIP3    H124562   3.748   3.391   0.525 -3.4918  0.4409  0.6490
 1049TIP3    H224563   3.740   3.537   0.488  0.0082  0.5183 -0.0394
 1050TIP3   OH224564   4.342   2.220   0.874 -0.0658 -0.1105  0.0028
 1050TIP3    H124565   4.251   2.190   0.877  0.5303 -1.9518  0.0865
 1050TIP3    H224566   4.389   2.161   0.933  0.6616  2.7552  2.4532
 1051TIP3   OH224567   2.678   1.118   2.994  0.3930  0.4613  0.1917
 1051TIP3    H124568   2.728   1.104   2.913  0.3701  2.0775 -0.1117
 1051TIP3    H224569   2.638   1.033   3.012  0.1024  0.1770 -1.6995
 1052TIP3   OH224570   3.551   2.809  12.946  0.0821  0.0018  0.1650
 1052TIP3    H124571   3.465   2.803  12.903  0.3196 -3.7314  0.0520
 1052TIP3    H224572   3.597   2.877  12.898 -2.1036  0.7025 -1.0281
 1053TIP3   OH224573   2.166   3.968   0.334  0.4059  0.2470 -0.7419
 1053TIP3    H124574   2.258   3.942   0.328  0.9091  1.2319  1.8486
 1053TIP3    H224575   2.168   4.064   0.328 -0.5961  0.2123 -1.9024
 1054TIP3   OH224576   0.611   4.908   3.486  0.3524  0.0711 -0.6695
 1054TIP3    H124577   0.548   4.917   3.558  0.1767 -0.1015 -0.8022
 1054TIP3    H224578   0.560   4.925   3.407  0.5306  0.1900 -0.7598
 1055TIP3   OH224579   6.006   2.317   2.463 -0.2159  0.1138  0.1630
 1055TIP3    H124580   6.064   2.251   2.425 -1.3133 -1.1743  0.6950
 1055TIP3    H224581   5.950   2.346   2.391 -1.0964 -1.0289  0.3751
 1056TIP3   OH224582   0.146   4.396  11.206 -0.1723  0.2000  0.0694
 1056TIP3    H124583   0.156   4.301  11.201 -0.3116  0.2058 -0.3374
 1056TIP3    H224584   0.125   4.423  11.117 -2.7458  0.2897  0.6464
 1057TIP3   OH224585   2.972   1.971   5.172 -0.6735  0.1607  0.8159
 1057TIP3    H124586   2.986   1.887   5.129 -1.2219  0.8477 -0.7556
 1057TIP3    H224587   3.049   2.023   5.149  0.4694 -0.4342  3.1611
 1058TIP3   OH224588   0.753   2.306   5.071 -0.2171  0.4888  0.1031
 1058TIP3    H124589   0.811   2.319   4.995 -2.3857  0.8270 -1.5414
 1058TIP3    H224590   0.673   2.270   5.034 -1.1831  0.3108  2.3064
 1059TIP3   OH224591   5.016   0.587   0.951  0.4665  0.2246  0.0449
 1059TIP3    H124592   4.942   0.532   0.974 -0.0420  0.9472  0.1353
 1059TIP3    H224593   5.036   0.563   0.860  1.6504 -1.6801  0.7605
 1060TIP3   OH224594   4.256   0.080   2.154  0.1410 -0.6579 -0.5676
 1060TIP3    H124595   4.348   0.087   2.128  1.0729 -0.9199  2.4793
 1060TIP3    H224596   4.218   0.165   2.131  1.4593 -0.0799 -0.6594
 1061TIP3   OH224597   2.581   5.037   0.236 -0.2651  0.3059 -0.1353
 1061TIP3    H124598   2.507   5.025   0.176 -1.2052 -0.0276  1.0665
 1061TIP3    H224599   2.540   5.055   0.321  1.0396 -0.0688  0.5833
 1062TIP3   OH224600   1.236   6.691  14.897  0.2035 -0.1628  0.4299
 1062TIP3    H124601   1.265   6.719  14.811 -0.1768 -1.1094 -0.0151
 1062TIP3    H224602   1.142   6.677  14.888  0.5875 -2.9587  0.2257
 1063TIP3   OH224603   3.052   1.351  13.882  0.2308  0.0616 -0.1421
 1063TIP3    H124604   2.994   1.411  13.930  0.0636 -0.2692  0.0647
 1063TIP3    H224605   3.103   1.306  13.949  0.3079 -0.0810 -0.2955
 1064TIP3   OH224606   2.496   5.649  14.133 -0.2906 -0.2011 -0.4426
 1064TIP3    H124607   2.414   5.605  14.158 -0.8631  0.9324 -0.2837
 1064TIP3    H224608   2.536   5.591  14.069 -1.5108 -0.4997 -0.9476
 1065TIP3   OH224609   2.733   5.417  12.409  0.2797  0.2726 -0.1597
 1065TIP3    H124610   2.690   5.443  12.327 -1.0143 -0.0545  0.4094
 1065TIP3    H224611   2.719   5.492  12.467  1.3827  0.5922 -0.2934
 1066TIP3   OH224612   4.975   3.204  13.557  0.2087 -0.1636  0.3532
 1066TIP3    H124613   4.905   3.191  13.493  0.0681  1.8624  0.0742
 1066TIP3    H224614   4.954   3.144  13.628 -1.0634 -0.5596 -0.3475
 1067TIP3   OH224615   1.465   6.137  16.046 -0.6414 -0.1490 -0.3360
 1067TIP3    H124616   1.480   6.207  15.982 -1.1979 -0.5790 -0.9389
 1067TIP3    H224617   1.549   6.127  16.090 -0.0308 -0.4002 -1.5517
 1068TIP3   OH224618   4.013   1.458   3.260 -0.0061  0.0588  0.2088
 1068TIP3    H124619   4.088   1.399   3.253 -1.0523 -1.2248 -0.5461
 1068TIP3    H224620   4.037   1.534   3.206  0.4732 -0.6508 -0.6019
 1069TIP3   OH224621   4.841   4.297   4.891 -0.2935 -0.3493  0.1987
 1069TIP3    H124622   4.920   4.263   4.933  0.6960  1.0401 -0.4999
 1069TIP3    H224623   4.821   4.378   4.938 -0.4867  0.0426 -0.5513
 1070TIP3   OH224624   1.385   5.000   5.268  0.1397  0.4030  0.4431
 1070TIP3    H124625   1.306   5.044   5.236  0.0001  1.4185  2.1043
 1070TIP3    H224626   1.375   4.909   5.241 -0.5150  0.9755 -1.3194
 1071TIP3   OH224627   1.511   3.190  15.629 -0.0263  0.1155  0.0046
 1071TIP3    H124628   1.571   3.151  15.692 -1.2439 -0.5844  0.7360
 1071TIP3    H224629   1.424   3.176  15.666 -0.5732  2.3398 -0.3719
 1072TIP3   OH224630   3.753   1.481  16.854 -0.0620  0.0467 -0.3586
 1072TIP3    H124631   3.803   1.548  16.807 -1.4240  0.4185 -1.3036
 1072TIP3    H224632   3.816   1.411  16.870  1.3476  1.4646  0.4989
 1073TIP3   OH224633   0.156   0.675   1.020  0.2561 -0.1042 -0.1853
 1073TIP3    H124634   0.066   0.658   0.992  0.9376 -1.1926 -1.8135
 1073TIP3    H224635   0.149   0.751   1.077 -2.1510 -2.1660  2.4701
 1074TIP3   OH224636   3.513   6.258   4.893  0.0234  0.1909  0.0021
 1074TIP3    H124637   3.561   6.211   4.962  0.6017  0.6619 -0.0789
 1074TIP3    H224638   3.563   6.241   4.813 -2.2677 -2.8291 -0.8803
 1075TIP3   OH224639   1.314   1.651  11.442 -0.0887  0.2449 -0.1214
 1075TIP3    H124640   1.309   1.574  11.498 -1.4353  0.9604  0.7725
 1075TIP3    H224641   1.373   1.711  11.488  1.1495 -0.3316 -0.9327
 1076TIP3   OH224642   2.178   4.475   0.669 -0.1704 -0.2931  0.2684
 1076TIP3    H124643   2.243   4.539   0.699  0.3929 -1.2729  1.1762
 1076TIP3    H224644   2.096   4.524   0.666  0.3728  0.6348  0.3501
 1077TIP3   OH224645   5.245   4.245  16.699  0.5549 -0.0627 -0.3258
 1077TIP3    H124646   5.194   4.178  16.652  0.2164 -0.0724  0.0539
 1077TIP3    H224647   5.314   4.269  16.638 -0.8037  1.0650 -1.4578
 1078TIP3   OH224648   1.136   2.263   4.961  0.1679 -0.2949  0.0671
 1078TIP3    H124649   1.206   2.309   4.915 -0.0989  0.6627  0.6196
 1078TIP3    H224650   1.071   2.330   4.980 -0.2484 -0.9089  0.8411
 1079TIP3   OH224651   2.895   1.120   1.069 -0.1359 -0.8920  0.1133
 1079TIP3    H124652   2.961   1.156   1.010  0.7632  0.6262  2.0008
 1079TIP3    H224653   2.811   1.147   1.031  0.4053 -0.4638 -0.7898
 1080TIP3   OH224654   2.350   5.561  17.112  0.4093 -0.1995  0.2602
 1080TIP3    H124655   2.288   5.616  17.161 -1.6082 -1.6370 -0.5839
 1080TIP3    H224656   2.435   5.602  17.126 -0.8921  2.5319  0.5201
 1081TIP3   OH224657   4.336   3.137   5.121 -0.1859 -0.2228  0.0831
 1081TIP3    H124658   4.334   3.060   5.179 -0.3764  0.4622  0.9893
 1081TIP3    H224659   4.409   3.119   5.062  0.2469 -0.7662  0.7635
 1082TIP3   OH224660   5.683   4.779   2.159 -0.6018 -0.2997 -0.5432
 1082TIP3    H124661   5.716   4.727   2.085  0.0690 -0.9471  0.1984
 1082TIP3    H224662   5.623   4.720   2.204  0.9848 -0.8237  0.9275
 1083TIP3   OH224663   2.816   2.662   3.800 -0.5439  0.5190  0.1968
 1083TIP3    H124664   2.834   2.698   3.887  0.0420 -0.4093  0.4750
 1083TIP3    H224665   2.903   2.638   3.766 -0.7458  1.1551 -0.7666
 1084TIP3   OH224666   4.590   3.402   0.926 -0.0374  0.1753 -0.5838
 1084TIP3    H124667   4.497   3.408   0.947  0.0211 -2.2011  0.5691
 1084TIP3    H224668   4.634   3.406   1.011  0.7937 -0.4634 -0.9718
 1085TIP3   OH224669   2.363   4.949   0.076 -0.0750 -0.5197 -0.3565
 1085TIP3    H124670   2.299   4.892   0.118 -2.2635  1.3513 -1.0863
 1085TIP3    H224671   2.396   4.898   0.002 -1.4336 -1.1231 -0.5496
 1086TIP3   OH224672   3.261   0.195   4.472  0.3504  0.3523  0.1819
 1086TIP3    H124673   3.233   0.274   4.518  2.0094  0.8623  0.3791
 1086TIP3    H224674   3.355   0.209   4.456  0.1819 -0.5986 -1.7708
 1087TIP3   OH224675   2.582   6.600  14.069 -0.5836 -0.0596  0.0528
 1087TIP3    H124676   2.599   6.569  14.158 -3.4916  2.4013  1.5617
 1087TIP3    H224677   2.523   6.675  14.080  2.0606  2.7922 -3.7014
 1088TIP3   OH224678   0.630   0.343  15.268  0.5261  0.0622 -0.1555
 1088TIP3    H124679   0.588   0.407  15.212 -1.9156 -1.7037 -0.4216
 1088TIP3    H224680   0.608   0.369  15.357  1.6370  0.9830 -0.1383
 1089TIP3   OH224681   2.155   5.000  14.782  0.2139 -0.7440  0.0152
 1089TIP3    H124682   2.123   5.000  14.692  0.0822  2.4375  0.0244
 1089TIP3    H224683   2.076   4.994  14.836  0.1572 -0.4097 -0.0361
 1090TIP3   OH224684   6.248   4.945  12.630  0.2564 -0.2916 -0.1358
 1090TIP3    H124685   6.254   5.021  12.572  0.3003 -1.9012 -2.3069
 1090TIP3    H224686   6.316   4.960  12.696  0.1332  1.6252 -0.4227
 1091TIP3   OH224687   1.221   2.525   1.388 -0.1167 -0.0723 -0.3480
 1091TIP3    H124688   1.175   2.482   1.460 -2.0302  0.0398 -1.4647
 1091TIP3    H224689   1.153   2.539   1.322  1.1524  1.7976 -1.2847
 1092TIP3   OH224690   0.807   4.685  12.171  0.3233 -0.5018 -0.2527
 1092TIP3    H124691   0.832   4.593  12.165  0.8533 -0.2616 -1.7972
 1092TIP3    H224692   0.760   4.703  12.090  0.6130  0.7028 -0.1684
 1093TIP3   OH224693   1.483   5.395   6.991  0.4468 -0.0109  0.3804
 1093TIP3    H124694   1.551   5.457   6.965  0.6835  0.3365  1.7517
 1093TIP3    H224695   1.493   5.321   6.931  0.7380  0.8928 -0.6996
 1094TIP3   OH224696   2.298   1.245   2.135 -0.4537  0.3514 -0.1885
 1094TIP3    H124697   2.356   1.275   2.205 -1.0598  0.6128  0.2028
 1094TIP3    H224698   2.313   1.151   2.131  1.8110  0.7463 -1.7479
 1095TIP3   OH224699   3.518   1.927  14.141  0.4344 -0.0440 -0.2829
 1095TIP3    H124700   3.532   1.869  14.216 -1.0191  0.0910  0.1185
 1095TIP3    H224701   3.578   2.000  14.156 -0.0203  0.1073  0.8995
 1096TIP3   OH224702   5.895   5.907   3.804  0.1405 -0.2634  0.5184
 1096TIP3    H124703   5.881   5.981   3.745 -0.0392 -1.3408 -0.8227
 1096TIP3    H224704   5.831   5.841   3.776  2.7761 -2.3907 -0.8149
 1097TIP3   OH224705   1.638   2.016   3.072 -0.4902  0.6863  0.1155
 1097TIP3    H124706   1.643   2.002   3.167 -1.1981  0.5557  0.1322
 1097TIP3    H224707   1.565   1.962   3.043  0.2232  0.1081 -0.6242
 1098TIP3   OH224708   4.330   2.870  15.014  0.1197  0.3944 -0.1776
 1098TIP3    H124709   4.302   2.912  14.932  0.0575  0.6538 -0.0257
 1098TIP3    H224710   4.265   2.802  15.030 -1.9146  2.6319  1.5002
 1099TIP3   OH224711   2.494   5.025   1.556 -0.1968 -0.2013 -0.3670
 1099TIP3    H124712   2.516   5.116   1.573  0.8517 -0.2898 -1.1744
 1099TIP3    H224713   2.537   4.976   1.627 -1.3805 -0.0088  0.4882
 1100TIP3   OH224714   5.266   2.005  11.995 -0.3706  0.2724 -0.1463
 1100TIP3    H124715   5.219   1.921  12.001 -0.9149  0.6186  0.4700
 1100TIP3    H224716   5.343   1.993  12.050 -0.7287  0.3606  0.3762
 1101TIP3   OH224717   2.294   1.062  14.902 -0.0544  0.3417  0.0703
 1101TIP3    H124718   2.355   1.091  14.971  0.3353  2.2188 -1.0222
 1101TIP3    H224719   2.350   1.039  14.828 -0.5749  0.2505 -0.3005
 1102TIP3   OH224720   2.407   3.105  17.010  1.0296 -0.1886  0.5278
 1102TIP3    H124721   2.417   3.015  16.981 -0.8942  0.3169 -1.9032
 1102TIP3    H224722   2.492   3.146  16.991  1.0413 -0.8354 -0.9139
 1103TIP3   OH224723   0.581   4.670   4.078  0.0563 -0.2004 -0.3773
 1103TIP3    H124724   0.554   4.678   4.170  0.0348 -0.8343 -0.3295
 1103TIP3    H224725   0.668   4.711   4.076 -0.4165  0.8415 -0.3108
 1104TIP3   OH224726   4.492   2.264   1.417 -0.4297 -0.5504 -1.0174
 1104TIP3    H124727   4.566   2.276   1.356 -1.7020  0.2902 -2.4363
 1104TIP3    H224728   4.454   2.351   1.426 -1.3026 -0.9908 -0.3606
 1105TIP3   OH224729   5.074   1.837  14.843 -0.6036  0.3646 -0.1943
 1105TIP3    H124730   5.102   1.749  14.820 -0.6707 -0.3307  2.2627
 1105TIP3    H224731   5.155   1.882  14.868 -0.5259  1.1107 -1.7484
 1106TIP3   OH224732   6.302   2.192  12.392  0.0828  0.1273 -0.0424
 1106TIP3    H124733   6.265   2.116  12.346 -0.6433 -0.0808  0.8661
 1106TIP3    H224734   6.380   2.215  12.341 -1.1456  0.4091 -1.8394
 1107TIP3   OH224735   2.388   0.605   3.535 -0.4387 -0.4590  0.4441
 1107TIP3    H124736   2.449   0.536   3.561 -1.5204 -0.9480  1.7581
 1107TIP3    H224737   2.325   0.562   3.478 -0.4246 -0.2817  0.2928
 1108TIP3   OH224738   2.329   4.586   3.986  0.8145 -0.3141 -0.3053
 1108TIP3    H124739   2.387   4.539   3.927  0.4460 -1.4767  0.2415
 1108TIP3    H224740   2.342   4.544   4.071  0.6432  0.7231  0.2431
 1109TIP3   OH224741   2.505   6.605   5.054 -0.7254  0.5967 -0.4398
 1109TIP3    H124742   2.599   6.595   5.035 -0.6777 -0.5005  0.3067
 1109TIP3    H224743   2.465   6.625   4.969 -0.1582 -1.5180 -1.2378
 1110TIP3   OH224744   2.629   5.571  11.519 -0.2346 -0.5379  0.5027
 1110TIP3    H124745   2.670   5.521  11.449  0.1297  0.8929 -0.3213
 1110TIP3    H224746   2.612   5.507  11.588 -0.0357 -1.8405 -0.6498
 1111TIP3   OH224747   6.299   0.411  10.455 -0.7319  0.1379  0.5649
 1111TIP3    H124748   6.357   0.356  10.508 -0.9481  1.5864  2.3336
 1111TIP3    H224749   6.340   0.497  10.454 -0.6325  0.0991 -1.8123
 1112TIP3   OH224750   2.525   3.083  12.082  0.1934  0.4425  0.3887
 1112TIP3    H124751   2.585   3.028  12.133  0.4984 -0.0722 -0.5179
 1112TIP3    H224752   2.497   3.151  12.144  2.4150  1.2330  0.5754
 1113TIP3   OH224753   0.787   2.963  16.201  0.4703  0.6403  0.2207
 1113TIP3    H124754   0.759   2.963  16.292  0.8342  0.9400  0.3332
 1113TIP3    H224755   0.865   2.907  16.200 -0.3690 -0.5377 -0.1623
 1114TIP3   OH224756   4.786   1.562  11.844 -0.2365 -0.0098 -0.3920
 1114TIP3    H124757   4.787   1.516  11.760  0.6278 -0.4227 -0.1631
 1114TIP3    H224758   4.706   1.532  11.887 -2.5796  2.9075 -2.5159
 1115TIP3   OH224759   6.539   0.595   3.271 -0.0908 -0.5348  0.2821
 1115TIP3    H124760   6.513   0.682   3.242  1.6858  0.3380  1.2007
 1115TIP3    H224761   6.510   0.537   3.201  1.3912  1.1644 -1.8157
 1116TIP3   OH224762   2.291   1.764   3.684  0.5997  0.2393 -0.0866
 1116TIP3    H124763   2.250   1.844   3.650 -1.7747 -1.5382 -1.5905
 1116TIP3    H224764   2.219   1.717   3.728  2.1579 -0.6755  1.5809
 1117TIP3   OH224765   1.534   0.227  14.553  0.1595  0.0686  0.5606
 1117TIP3    H124766   1.621   0.266  14.560  0.1250  0.0277  1.3621
 1117TIP3    H224767   1.547   0.147  14.503  0.2820  0.9361 -0.8309
 1118TIP3   OH224768   6.104   6.136  12.881  0.8800 -0.3923 -0.3809
 1118TIP3    H124769   6.144   6.060  12.924  1.6158  0.3026  0.1828
 1118TIP3    H224770   6.024   6.102  12.842  1.1370 -1.4332 -0.0189
 1119TIP3   OH224771   1.400   4.069  11.288 -0.3668  0.4170  0.1726
 1119TIP3    H124772   1.384   4.027  11.373 -0.3532  0.4286  0.1806
 1119TIP3    H224773   1.395   3.998  11.224  1.8622  0.0217  0.3968
 1120TIP3   OH224774   4.231   4.043  14.244 -0.2515 -0.2163  0.8740
 1120TIP3    H124775   4.170   4.019  14.314 -0.3746 -2.7895 -0.0705
 1120TIP3    H224776   4.178   4.095  14.184 -0.5084  0.8119  1.9673
 1121TIP3   OH224777   4.890   3.944   4.177 -0.2575 -0.1342  0.1748
 1121TIP3    H124778   4.946   3.910   4.107  0.6098  2.8864 -0.6912
 1121TIP3    H224779   4.802   3.915   4.153  0.4599 -1.8435 -0.4314
 1122TIP3   OH224780   6.562   5.711  16.651  0.0379 -0.1689  0.4794
 1122TIP3    H124781   6.570   5.617  16.663 -0.1984 -0.1710  0.6192
 1122TIP3    H224782   6.501   5.739  16.719 -1.8659 -0.2750 -1.1471
 1123TIP3   OH224783   4.066   0.934  11.612 -0.5619 -0.5924 -0.8720
 1123TIP3    H124784   4.145   0.942  11.558 -0.0301 -0.5921 -0.1048
 1123TIP3    H224785   4.002   0.990  11.569  0.3206  0.5846 -0.6615
 1124TIP3   OH224786   6.552   2.181  11.142 -0.0763 -0.1812 -0.3289
 1124TIP3    H124787   6.611   2.256  11.144 -0.0327 -0.2289  0.2062
 1124TIP3    H224788   6.540   2.162  11.049  0.1143  0.3297 -0.4575
 1125TIP3   OH224789   2.153   5.378   6.293 -0.1492  0.4918  0.2933
 1125TIP3    H124790   2.218   5.319   6.332 -1.6033 -0.9617  0.5252
 1125TIP3    H224791   2.142   5.447   6.358  0.9481  0.5977  0.3771
 1126TIP3   OH224792   6.393   6.522  15.879 -0.4069 -0.2326 -0.0791
 1126TIP3    H124793   6.365   6.467  15.951 -0.2899 -2.4067 -1.6522
 1126TIP3    H224794   6.429   6.601  15.921 -3.2082 -0.0557  2.1085
 1127TIP3   OH224795   5.284   0.307   4.880 -0.1480 -0.4593 -0.4813
 1127TIP3    H124796   5.313   0.233   4.825  2.3717  0.4898 -0.4855
 1127TIP3    H224797   5.289   0.383   4.822 -0.9298  0.0043  0.0592
 1128TIP3   OH224798   4.508   5.394   2.321  0.2221  0.0735 -0.0802
 1128TIP3    H124799   4.519   5.343   2.402  0.6056 -0.7148 -0.6172
 1128TIP3    H224800   4.562   5.348   2.257  0.1511  0.8641 -0.7153
 1129TIP3   OH224801   3.257   5.498  16.559 -0.1482  0.1621 -0.1537
 1129TIP3    H124802   3.315   5.554  16.507 -0.5528  1.4342  0.7517
 1129TIP3    H224803   3.293   5.500  16.647  0.0860 -1.3836 -0.1896
 1130TIP3   OH224804   2.104   3.354   3.249  0.0436  0.3499 -0.1373
 1130TIP3    H124805   2.061   3.422   3.302 -0.1004 -0.3293  0.6229
 1130TIP3    H224806   2.130   3.287   3.312 -2.6148 -1.8003 -1.2575
 1131TIP3   OH224807   0.739   0.741   1.089  0.2146  0.5232  1.0198
 1131TIP3    H124808   0.648   0.711   1.095  0.6146 -0.5663  1.5951
 1131TIP3    H224809   0.772   0.701   1.008 -0.1748  1.9076  0.1537
 1132TIP3   OH224810   4.319   0.934  11.152 -0.0290  0.5282  0.0480
 1132TIP3    H124811   4.300   0.925  11.246  2.1477 -1.1729  0.3630
 1132TIP3    H224812   4.233   0.930  11.110 -0.8597 -1.0685  1.8138
 1133TIP3   OH224813   1.106   3.558  12.872  0.1921  0.3035  0.2683
 1133TIP3    H124814   1.173   3.537  12.937  0.5851 -1.8744 -0.8223
 1133TIP3    H224815   1.024   3.530  12.912  0.3249 -0.2045  0.1771
 1134TIP3   OH224816   6.245   1.162  11.221 -0.1016  0.0390  0.1540
 1134TIP3    H124817   6.192   1.125  11.150 -0.1917  0.4869 -0.0119
 1134TIP3    H224818   6.286   1.239  11.183  1.2065 -0.6870  0.0830
 1135TIP3   OH224819   5.803   0.948   4.741 -0.3118  0.5894  0.6018
 1135TIP3    H124820   5.833   0.909   4.824 -1.0894 -0.0825  0.5800
 1135TIP3    H224821   5.819   1.041   4.751 -1.6649  0.6905  2.0756
 1136TIP3   OH224822   6.011   3.172   6.703 -0.0482 -0.2750  0.0586
 1136TIP3    H124823   6.057   3.124   6.634  0.1124  0.6314 -0.4723
 1136TIP3    H224824   5.988   3.256   6.662 -1.5119 -0.4180  0.5394
 1137TIP3   OH224825   0.105   6.231  15.634 -0.0012 -0.0595  0.1032
 1137TIP3    H124826   0.029   6.245  15.579  0.1171 -1.3581 -0.4038
 1137TIP3    H224827   0.156   6.311  15.626  0.4748 -0.5937 -2.3996
 1138TIP3   OH224828   2.398   5.761  15.854 -0.1322 -0.5887  0.2428
 1138TIP3    H124829   2.318   5.782  15.902 -1.3018 -2.1634 -0.9494
 1138TIP3    H224830   2.414   5.668  15.874  0.7719 -0.5758 -0.4075
 1139TIP3   OH224831   6.115   3.268  17.220  0.3224 -0.2168 -0.4187
 1139TIP3    H124832   6.193   3.322  17.232  0.4400 -0.3789 -0.4517
 1139TIP3    H224833   6.059   3.320  17.162  1.3094 -1.0013 -2.1134
 1140TIP3   OH224834   3.719   6.642   2.530 -0.6805 -0.3907  0.1013
 1140TIP3    H124835   3.739   6.736   2.523 -2.6826  0.1736  1.4885
 1140TIP3    H224836   3.721   6.624   2.624  0.7809 -2.0210 -0.2107
 1141TIP3   OH224837   5.210   3.710  13.122  0.0558 -0.5986  0.4760
 1141TIP3    H124838   5.248   3.738  13.206  0.2257  2.5113 -0.5726
 1141TIP3    H224839   5.121   3.681  13.145 -0.1938  1.0054  1.6386
 1142TIP3   OH224840   2.845   2.350   1.007  0.1583  0.7324  0.4166
 1142TIP3    H124841   2.764   2.302   0.990 -0.4097  1.7210  0.2693
 1142TIP3    H224842   2.847   2.360   1.103  1.1656 -1.0786  0.6106
 1143TIP3   OH224843   2.601   6.654   0.678  0.0617  0.2159  0.1054
 1143TIP3    H124844   2.549   6.594   0.732  0.5800  0.6884  1.1330
 1143TIP3    H224845   2.536   6.695   0.620 -0.5707  0.0543  0.6863
 1144TIP3   OH224846   4.421   1.359  13.521  0.6752  0.2610 -0.3625
 1144TIP3    H124847   4.406   1.332  13.430 -3.9160  1.4011 -0.0262
 1144TIP3    H224848   4.460   1.446  13.514  2.8524 -0.7454 -1.2266
 1145TIP3   OH224849   5.698   5.111   2.003  0.0317  0.1317 -0.2120
 1145TIP3    H124850   5.720   5.204   2.010 -0.3656  0.2244 -0.2239
 1145TIP3    H224851   5.614   5.109   1.956 -0.8144 -0.1491  1.3060
 1146TIP3   OH224852   6.588   3.579   1.398  0.3059  0.2701  0.4237
 1146TIP3    H124853   6.610   3.615   1.312  1.1292 -0.4742  0.3215
 1146TIP3    H224854   6.503   3.618   1.418  0.0034  0.2820 -0.8204
 1147TIP3   OH224855   1.342   2.287  11.400 -0.4687 -0.4949  0.4343
 1147TIP3    H124856   1.359   2.243  11.484 -0.6828 -1.5189 -0.0480
 1147TIP3    H224857   1.355   2.380  11.418  2.0385 -0.9380  0.9658
 1148TIP3   OH224858   6.056   2.444  13.815 -0.1475  0.2229 -0.1535
 1148TIP3    H124859   6.009   2.454  13.898 -1.1897 -0.7315 -0.6250
 1148TIP3    H224860   6.103   2.527  13.804  1.0649 -0.1308  2.0463
 1149TIP3   OH224861   5.335   1.376   5.491  0.0270 -0.2875 -0.1436
 1149TIP3    H124862   5.266   1.410   5.549 -0.6362  0.3024 -1.2593
 1149TIP3    H224863   5.401   1.445   5.491  0.4448 -0.6855  0.6248
 1150TIP3   OH224864   4.180   4.624   0.011  0.2199  0.3988 -0.1141
 1150TIP3    H124865   4.174   4.528   0.002  0.0826  0.4731 -0.8366
 1150TIP3    H224866   4.267   4.645  -0.021  0.5105  0.4357  0.7188
 1151TIP3   OH224867   0.076   0.584  15.557 -0.1328  0.1544 -0.0789
 1151TIP3    H124868   0.030   0.508  15.521 -1.8310  0.7441  0.7846
 1151TIP3    H224869   0.094   0.639  15.480  1.4004 -1.2467 -0.7520
 1152TIP3   OH224870   6.129   4.678  15.402  0.3273  0.0562 -0.0855
 1152TIP3    H124871   6.100   4.606  15.458  1.7781  0.3575  1.0876
 1152TIP3    H224872   6.195   4.639  15.345 -0.4026 -0.0115 -0.8944
 1153TIP3   OH224873   6.010   5.136   5.264  0.2985  0.5876 -0.1175
 1153TIP3    H124874   6.002   5.186   5.182  0.4037  0.9405  0.0853
 1153TIP3    H224875   6.059   5.194   5.322  1.1759 -0.0973 -0.1643
 1154TIP3   OH224876   5.795   1.758   2.113  0.1369 -0.3330  0.1495
 1154TIP3    H124877   5.703   1.730   2.109 -0.5341  1.6018  1.3981
 1154TIP3    H224878   5.819   1.773   2.022 -0.8123 -0.7774 -0.1858
 1155TIP3   OH224879   0.321   1.125  13.381 -0.3303 -0.0651  0.9402
 1155TIP3    H124880   0.314   1.177  13.461 -1.9627 -0.0463  0.8074
 1155TIP3    H224881   0.283   1.040  13.405  0.3075 -0.4733  0.5260
 1156TIP3   OH224882   4.831   3.136  11.294  0.0935 -0.0289  1.1238
 1156TIP3    H124883   4.738   3.116  11.304  0.4579 -1.3088  2.1433
 1156TIP3    H224884   4.844   3.216  11.345 -0.9666  1.6765 -1.2139
 1157TIP3   OH224885   1.242   6.057  12.357 -0.0299  0.7696 -0.9633
 1157TIP3    H124886   1.324   6.100  12.330 -0.1790  1.3048 -0.5684
 1157TIP3    H224887   1.244   5.972  12.312  1.0118  0.5424 -0.5082
 1158TIP3   OH224888   5.101   3.031  17.216 -0.0252 -0.1527 -0.0719
 1158TIP3    H124889   5.153   2.963  17.173  0.8078 -0.4520  1.3442
 1158TIP3    H224890   5.165   3.079  17.269 -0.7461  1.2256 -0.4389
 1159TIP3   OH224891   6.250   0.190   1.283 -0.0565  0.1248  0.1021
 1159TIP3    H124892   6.205   0.185   1.368 -0.1882  1.4062  0.1244
 1159TIP3    H224893   6.313   0.119   1.285 -1.9045 -1.5669  0.1877
 1160TIP3   OH224894   0.564   4.070   2.481 -0.2892  0.2554  0.4319
 1160TIP3    H124895   0.545   4.119   2.561  1.1758  1.0322  0.3382
 1160TIP3    H224896   0.650   4.103   2.453 -0.2676 -0.8199 -0.8332
 1161TIP3   OH224897   6.338   2.452  15.078  0.2681 -0.2511 -0.0984
 1161TIP3    H124898   6.297   2.443  14.993 -0.9919 -0.6967  0.5434
 1161TIP3    H224899   6.373   2.365  15.097 -0.4143 -0.4369  0.3186
 1162TIP3   OH224900   2.626   3.191   3.645 -0.4160 -0.3911 -0.2892
 1162TIP3    H124901   2.659   3.269   3.691  0.3835 -1.4513  0.9509
 1162TIP3    H224902   2.700   3.162   3.592 -0.4175 -0.8555 -0.0336
 1163TIP3   OH224903   1.316   3.095   4.592  0.0701  0.2846 -0.0078
 1163TIP3    H124904   1.351   3.078   4.680 -1.8421  0.4998  0.8229
 1163TIP3    H224905   1.274   3.181   4.599  1.2737  1.0105 -1.5733
 1164TIP3   OH224906   2.673   6.043   4.378  0.8148 -0.0455  1.0168
 1164TIP3    H124907   2.604   5.989   4.339 -0.1188  1.2675  0.8158
 1164TIP3    H224908   2.745   5.982   4.394  0.0911 -1.1842  0.0192
 1165TIP3   OH224909   4.911   5.538   4.351  0.2511 -0.4254  0.2680
 1165TIP3    H124910   4.940   5.455   4.312  1.5224 -1.0455  2.4701
 1165TIP3    H224911   4.977   5.602   4.321  0.9905 -0.8179  1.0342
 1166TIP3   OH224912   4.732   4.432   1.300 -0.7705  0.5335 -0.2976
 1166TIP3    H124913   4.807   4.482   1.269 -1.2241  1.0919 -0.5073
 1166TIP3    H224914   4.746   4.423   1.394 -0.5663  0.8454 -0.2999
 1167TIP3   OH224915   3.460   1.001   2.471 -0.6429 -0.2619  0.4854
 1167TIP3    H124916   3.527   1.016   2.538 -1.7037  0.2853  1.4541
 1167TIP3    H224917   3.464   0.907   2.454  3.2595  0.3544 -2.6392
 1168TIP3   OH224918   1.848   2.082  10.932  0.7143 -0.1711 -0.6787
 1168TIP3    H124919   1.767   2.039  10.903  0.1335  0.0477  0.5387
 1168TIP3    H224920   1.871   2.141  10.861  0.2035 -0.7797 -1.3571
 1169TIP3   OH224921   3.518   3.583  11.609 -0.4986  0.1081 -0.1613
 1169TIP3    H124922   3.496   3.503  11.658 -0.5850 -0.4199 -1.0492
 1169TIP3    H224923   3.599   3.561  11.563 -1.1335  0.1211 -1.3137
 1170TIP3   OH224924   4.580   2.049   5.445  0.3264  0.1242  0.1382
 1170TIP3    H124925   4.562   2.141   5.464  2.6883  0.7922 -0.7186
 1170TIP3    H224926   4.561   2.004   5.527  2.8203  1.8988  1.7388
 1171TIP3   OH224927   6.343   2.907  11.593 -0.1413 -0.2937  0.2641
 1171TIP3    H124928   6.400   2.879  11.521 -0.3404 -1.4625  0.5491
 1171TIP3    H224929   6.270   2.846  11.591 -0.0161 -0.5117  1.6204
 1172TIP3   OH224930   2.875   2.942   5.269 -0.5206  0.2224 -0.0250
 1172TIP3    H124931   2.883   2.917   5.361 -0.1719 -0.4001 -0.2195
 1172TIP3    H224932   2.782   2.928   5.248 -0.8575  1.5314  0.5558
 1173TIP3   OH224933   4.213   3.659  17.099  0.2627  0.0652  0.2559
 1173TIP3    H124934   4.285   3.669  17.162  0.0281  1.3101  0.3400
 1173TIP3    H224935   4.209   3.743  17.054  0.8814 -1.0252 -1.9261
 1174TIP3   OH224936   0.890   0.739   5.684  1.1761  0.1353 -0.4811
 1174TIP3    H124937   0.841   0.763   5.605 -0.1817  0.5097  0.4496
 1174TIP3    H224938   0.952   0.810   5.696 -0.8779  1.7793  0.6483
 1175TIP3   OH224939   5.788   4.892   2.645  0.4803 -0.1159 -0.1342
 1175TIP3    H124940   5.735   4.835   2.590 -1.6017  0.3335  1.3178
 1175TIP3    H224941   5.853   4.834   2.685 -1.1765 -1.3819  0.7948
 1176TIP3   OH224942   2.151   2.227   6.141  0.8968  0.2416 -0.1991
 1176TIP3    H124943   2.064   2.249   6.174  0.4919  0.7011 -1.5317
 1176TIP3    H224944   2.145   2.241   6.046  1.8918 -1.4490 -0.5419
 1177TIP3   OH224945   5.033   3.937   5.083  0.4787  0.2013 -0.2234
 1177TIP3    H124946   5.054   3.913   5.173  1.0840  1.5075  0.0014
 1177TIP3    H224947   4.960   3.881   5.060  1.1245 -1.0253  0.6557
 1178TIP3   OH224948   1.525   2.003   3.325 -0.6654 -0.1758  0.3556
 1178TIP3    H124949   1.458   1.953   3.278  0.1463  0.4692 -1.5294
 1178TIP3    H224950   1.477   2.046   3.395 -1.4086 -3.4472  1.9630
 1179TIP3   OH224951   1.203   2.700   3.904 -0.3101  0.5600 -0.1880
 1179TIP3    H124952   1.213   2.783   3.951 -0.6716  1.3657 -1.5067
 1179TIP3    H224953   1.275   2.698   3.842 -0.2083 -0.1912 -0.0464
 1180TIP3   OH224954   2.849   5.197  12.918 -0.7094 -0.0054 -0.5270
 1180TIP3    H124955   2.895   5.279  12.935  0.5843 -0.9409  0.5907
 1180TIP3    H224956   2.859   5.183  12.824  0.3222  0.3988 -0.4852
 1181TIP3   OH224957   5.882   5.442   3.376 -0.0439 -0.3621 -0.7253
 1181TIP3    H124958   5.905   5.362   3.424  3.2491  0.4090 -0.8655
 1181TIP3    H224959   5.908   5.513   3.436 -0.6582  0.5898 -1.5807
 1182TIP3   OH224960   6.422   3.805   1.756 -0.1755  0.5636  0.3672
 1182TIP3    H124961   6.443   3.734   1.695 -1.7909  0.2893  0.1047
 1182TIP3    H224962   6.353   3.855   1.711 -1.9374 -0.0862  2.2685
 1183TIP3   OH224963   6.213   2.399  11.571  0.2193  0.2760 -0.0993
 1183TIP3    H124964   6.137   2.420  11.624  0.7435  0.7242  0.4906
 1183TIP3    H224965   6.241   2.483  11.535  1.5713  0.4254  1.2407
 1184TIP3   OH224966   5.428   4.632  15.249  0.5513 -0.2032 -0.2879
 1184TIP3    H124967   5.348   4.579  15.247  0.8619 -0.6577 -1.7792
 1184TIP3    H224968   5.497   4.571  15.223  0.8322  1.0505 -2.6697
 1185TIP3   OH224969   1.772   0.593   0.010 -0.3937  0.0667  0.3835
 1185TIP3    H124970   1.717   0.661   0.049  0.3152  1.1666 -0.5061
 1185TIP3    H224971   1.856   0.602   0.055 -0.2429 -0.0949  0.1337
 1186TIP3   OH224972   6.679   5.298   3.818  0.3743 -0.2653  0.1488
 1186TIP3    H124973   6.774   5.301   3.810  0.2058 -0.1750 -2.1745
 1186TIP3    H224974   6.654   5.390   3.832  0.5954 -0.2248  0.2812
 1187TIP3   OH224975   3.579   3.501   2.060  0.1885  0.3172 -0.2185
 1187TIP3    H124976   3.635   3.562   2.011  0.4016 -0.7466 -1.3142
 1187TIP3    H224977   3.632   3.475   2.135 -0.1357  1.9477  0.5989
 1188TIP3   OH224978   1.879   2.187  16.499  0.2288 -0.6728 -0.7683
 1188TIP3    H124979   1.855   2.184  16.592 -2.4455 -0.6520 -1.3946
 1188TIP3    H224980   1.879   2.095  16.472  2.0141 -0.7527 -0.5306
 1189TIP3   OH224981   0.510   5.764   0.620  0.2413  0.0823  0.0806
 1189TIP3    H124982   0.550   5.678   0.607 -0.2091 -0.2905  1.0958
 1189TIP3    H224983   0.449   5.773   0.547  1.5510  0.3065 -1.0151
 1190TIP3   OH224984   1.835   4.903   2.306 -0.5567  0.4467  0.1120
 1190TIP3    H124985   1.846   4.831   2.244  0.3934  1.2273 -0.6336
 1190TIP3    H224986   1.842   4.982   2.253 -3.3682  1.0930  0.6487
 1191TIP3   OH224987   2.395   1.706  11.005 -0.1671  0.5838 -0.2529
 1191TIP3    H124988   2.393   1.801  10.989  1.8871  0.5344 -0.9443
 1191TIP3    H224989   2.462   1.695  11.073 -0.7191 -0.3408  0.1521
 1192TIP3   OH224990   3.244   2.182  11.798 -0.7380  0.4771 -0.0812
 1192TIP3    H124991   3.305   2.115  11.769 -0.3148  0.7543  0.1555
 1192TIP3    H224992   3.164   2.135  11.820 -1.1207  0.2960 -1.8588
 1193TIP3   OH224993   1.809   5.244   0.209  0.3195  0.3746 -0.9418
 1193TIP3    H124994   1.762   5.281   0.284 -1.7342 -1.9789 -1.0195
 1193TIP3    H224995   1.872   5.184   0.249 -0.0440 -0.0838 -1.0633
 1194TIP3   OH224996   6.283   4.066   0.658  0.2300  0.5238  0.4434
 1194TIP3    H124997   6.203   4.036   0.615 -0.6865  1.7248  1.2880
 1194TIP3    H224998   6.340   4.093   0.585 -0.2086 -0.1277 -0.1488
 1195TIP3   OH224999   1.381   5.279   3.828  0.1310  0.6482  0.2840
 1195TIP3    H125000   1.419   5.343   3.768  1.9948  0.8741  1.6551
 1195TIP3    H225001   1.438   5.202   3.820 -0.9974 -0.1665  0.0250
 1196TIP3   OH225002   0.698   2.237  16.490 -0.6220 -0.2731 -0.1286
 1196TIP3    H125003   0.686   2.273  16.402  0.9328  0.9477  0.1402
 1196TIP3    H225004   0.620   2.265  16.538 -0.6805  0.5155 -0.6658
 1197TIP3   OH225005   1.016   4.408  13.188 -0.5225  0.5404  0.1142
 1197TIP3    H125006   0.932   4.383  13.149 -0.9949  0.9137  0.8850
 1197TIP3    H225007   1.015   4.503  13.189 -1.0126  0.5342  2.0729
 1198TIP3   OH225008   0.093   5.003   0.309 -0.2462 -0.6803  0.2704
 1198TIP3    H125009   0.183   5.022   0.333 -0.5085 -0.5945  1.2074
 1198TIP3    H225010   0.088   4.907   0.309 -0.0928 -0.6881 -0.0255
 1199TIP3   OH225011   1.995   3.314   1.257  0.0102 -0.0547  0.0184
 1199TIP3    H125012   1.948   3.388   1.220 -0.4163 -2.0181 -3.5922
 1199TIP3    H225013   1.930   3.269   1.312 -0.3809  0.9567  0.3910
 1200TIP3   OH225014   3.884   4.930   2.520 -0.4581 -0.3317 -0.0021
 1200TIP3    H125015   3.869   4.886   2.436  1.1713 -1.4705  0.2713
 1200TIP3    H225016   3.944   4.871   2.566  1.1068  1.7915  0.7227
 1201TIP3   OH225017   1.409   1.798  11.048 -0.1296 -0.1302 -0.3633
 1201TIP3    H125018   1.409   1.893  11.062 -1.1865  0.0206 -1.3794
 1201TIP3    H225019   1.318   1.776  11.031 -0.1434 -1.5853  1.4214
 1202TIP3   OH225020   3.032   0.406  11.014 -0.0023  0.3604 -0.2219
 1202TIP3    H125021   2.946   0.430  11.046 -0.5224 -1.1916 -0.3864
 1202TIP3    H225022   3.027   0.417  10.919 -0.3094 -0.5383 -0.3188
 1203TIP3   OH225023   6.744   3.610   2.763 -1.0075  0.1646 -0.2100
 1203TIP3    H125024   6.734   3.640   2.672 -0.2571  1.0710  0.0058
 1203TIP3    H225025   6.735   3.514   2.757  1.5697 -0.0503 -1.6117
 1204TIP3   OH225026   4.239   1.861  13.538 -0.2563  0.1550 -0.1842
 1204TIP3    H125027   4.304   1.831  13.473 -1.5965 -0.0639 -1.4459
 1204TIP3    H225028   4.248   1.800  13.610  1.9860  1.0102  0.3249
 1205TIP3   OH225029   0.522   0.532   2.733  0.0744  0.5032 -0.8575
 1205TIP3    H125030   0.521   0.511   2.639  1.2159 -0.7701 -0.5965
 1205TIP3    H225031   0.440   0.494   2.766  0.1364  0.0958 -1.1628
 1206TIP3   OH225032   2.332   4.730   3.614  0.1757  0.0772  0.1495
 1206TIP3    H125033   2.405   4.759   3.558  0.4514  0.8353  0.8943
 1206TIP3    H225034   2.330   4.635   3.603  1.1516  0.0722 -0.0463
 1207TIP3   OH225035   3.566   0.210  11.205 -0.4556 -0.0703 -0.4644
 1207TIP3    H125036   3.564   0.146  11.276 -2.0191  0.2877 -0.1633
 1207TIP3    H225037   3.542   0.293  11.246 -3.5623 -0.2632 -1.7599
 1208TIP3   OH225038   6.261   2.071  16.230  0.5100  0.1500 -0.2114
 1208TIP3    H125039   6.281   1.979  16.215  0.0275  0.2023 -1.1951
 1208TIP3    H225040   6.327   2.119  16.179  0.6878  0.3444  0.2020
 1209TIP3   OH225041   5.607   0.112   4.701  0.0014 -0.0858  0.2341
 1209TIP3    H125042   5.535   0.164   4.665 -0.5149 -1.1714 -0.3414
 1209TIP3    H225043   5.566   0.029   4.728  0.9030 -0.4279  0.5810
 1210TIP3   OH225044   1.807   3.765  13.744 -0.0168 -0.0095 -0.0385
 1210TIP3    H125045   1.751   3.830  13.785 -0.8644 -1.1170  0.5810
 1210TIP3    H225046   1.893   3.807  13.739 -0.1151  0.4989  2.0249
 1211TIP3   OH225047   3.826   2.678  15.397  1.1243  0.2477 -0.0371
 1211TIP3    H125048   3.876   2.596  15.398  1.1394  0.1694 -2.8697
 1211TIP3    H225049   3.893   2.747  15.400  1.1883  0.1565  0.6624
 1212TIP3   OH225050   4.411   4.615   4.716  0.4788  0.3324 -0.0692
 1212TIP3    H125051   4.335   4.557   4.712  0.8164 -0.0788 -0.6483
 1212TIP3    H225052   4.463   4.581   4.789 -0.3274  1.1603  0.8994
 1213TIP3   OH225053   0.253   4.221   2.184  0.5394  0.2413  0.4008
 1213TIP3    H125054   0.175   4.231   2.239 -0.9613 -0.5668 -1.5159
 1213TIP3    H225055   0.261   4.126   2.173  1.2505  0.3746 -0.1827
 1214TIP3   OH225056   2.651   5.802   4.126  0.1384 -0.0867 -0.4899
 1214TIP3    H125057   2.730   5.836   4.167  0.6116 -1.3135 -0.3522
 1214TIP3    H225058   2.599   5.879   4.105  0.5426  0.6260  1.0972
 1215TIP3   OH225059   2.384   5.817   5.762 -0.1983  0.0646  1.0880
 1215TIP3    H125060   2.359   5.747   5.822 -0.1034 -0.5180  0.4527
 1215TIP3    H225061   2.463   5.855   5.801 -0.6788  0.3095  1.8214
 1216TIP3   OH225062   2.271   2.273  17.175  0.1931 -0.1276 -0.0910
 1216TIP3    H125063   2.311   2.199  17.129  0.4155 -0.3739  0.4972
 1216TIP3    H225064   2.314   2.275  17.260  0.5092  0.9586 -0.2700
 1217TIP3   OH225065   4.205   3.784  10.969  0.0698 -0.3762 -0.6302
 1217TIP3    H125066   4.272   3.805  11.034  1.0003 -2.5665 -0.8565
 1217TIP3    H225067   4.226   3.838  10.893  2.0816 -1.6450 -1.0000
 1218TIP3   OH225068   2.636   5.251   1.160  0.6610 -0.4981  0.5062
 1218TIP3    H125069   2.717   5.239   1.209  1.0608  0.2077  0.0147
 1218TIP3    H225070   2.567   5.250   1.227  1.0639 -1.1198  0.9194
 1219TIP3   OH225071   0.489   2.996  14.421  0.4212  0.1996 -0.6020
 1219TIP3    H125072   0.434   2.972  14.496 -0.0867 -1.0843 -1.3732
 1219TIP3    H225073   0.449   3.077  14.388 -1.4219 -1.0331 -1.5170
 1220TIP3   OH225074   4.101   4.542   4.998  0.3509  0.3490  0.0929
 1220TIP3    H125075   4.082   4.636   5.005 -1.4903  0.2227 -2.4504
 1220TIP3    H225076   4.177   4.528   5.054  0.7769  3.3957  0.3325
 1221TIP3   OH225077   5.169   4.149  15.719  0.2278  0.1887  0.0835
 1221TIP3    H125078   5.228   4.203  15.771  1.0785  0.0124 -0.6697
 1221TIP3    H225079   5.228   4.096  15.664 -0.6271 -0.1259 -0.5412
 1222TIP3   OH225080   0.974   4.412   3.953 -0.1980 -0.4096 -0.0374
 1222TIP3    H125081   0.972   4.350   3.880 -1.4921 -1.9868  1.2935
 1222TIP3    H225082   0.915   4.375   4.018 -0.8769  2.1660  0.8790
 1223TIP3   OH225083   2.478   0.446   1.706  0.1640  0.2168 -0.2447
 1223TIP3    H125084   2.435   0.406   1.782  0.3966  0.6865  0.1447
 1223TIP3    H225085   2.456   0.389   1.633  1.3781 -1.2332  0.4822
 1224TIP3   OH225086   4.727   0.675  15.520 -0.2462 -0.6592 -0.4245
 1224TIP3    H125087   4.783   0.738  15.566 -0.7852 -1.0104  0.7372
 1224TIP3    H225088   4.786   0.602  15.499 -0.1737 -0.8552  0.4408
 1225TIP3   OH225089   1.344   0.875  16.487  0.1603 -0.2414 -0.6006
 1225TIP3    H125090   1.327   0.876  16.393  1.7404  1.0959 -0.8999
 1225TIP3    H225091   1.432   0.912  16.496 -0.5754  1.1081  1.5117
 1226TIP3   OH225092   0.284   6.775   4.029 -0.4589  0.0687 -0.2206
 1226TIP3    H125093   0.284   6.818   4.114  1.5417 -1.2299  0.4721
 1226TIP3    H225094   0.360   6.717   4.031 -2.1938 -2.3665 -1.6865
 1227TIP3   OH225095   2.705   0.721  14.907  0.3292 -0.6401 -0.2911
 1227TIP3    H125096   2.767   0.709  14.979 -0.6703  0.2920  0.7487
 1227TIP3    H225097   2.631   0.665  14.931  0.7531 -1.7322 -1.5122
 1228TIP3   OH225098   2.057   2.373  16.742 -0.2186  0.4749  0.4992
 1228TIP3    H125099   2.080   2.295  16.692 -1.2023  0.1393  0.5684
 1228TIP3    H225100   2.131   2.385  16.802  1.8072  1.8891 -2.1898
 1229TIP3   OH225101   3.034   0.930  11.670  0.6165 -0.1268 -0.2571
 1229TIP3    H125102   3.128   0.921  11.687  0.3558 -1.5216  0.5009
 1229TIP3    H225103   3.029   0.983  11.591  2.0335  0.3932 -0.0060
 1230TIP3   OH225104   2.997   6.083   1.080  0.1899  0.1201  0.2828
 1230TIP3    H125105   2.914   6.104   1.037  0.7087  1.6756 -0.0082
 1230TIP3    H225106   3.027   6.003   1.038 -0.8709 -0.1214 -0.0213
 1231TIP3   OH225107   3.689   1.421   0.062  0.4172 -0.0439  0.2426
 1231TIP3    H125108   3.775   1.454   0.088 -0.3985  2.0953  0.3562
 1231TIP3    H225109   3.630   1.453   0.131 -0.7135 -0.0987 -0.6918
 1232TIP3   OH225110   2.345   5.509  13.076 -0.7243 -0.5900  0.1304
 1232TIP3    H125111   2.327   5.418  13.055  0.2445 -0.5008 -1.2008
 1232TIP3    H225112   2.348   5.552  12.990  2.8502 -0.0766  0.4548
 1233TIP3   OH225113   3.340   5.336   2.335  0.8148 -0.0032  0.0048
 1233TIP3    H125114   3.395   5.299   2.266  0.9555  0.7603 -0.2963
 1233TIP3    H225115   3.403   5.374   2.397  0.6137  2.1905 -1.0760
 1234TIP3   OH225116   3.090   4.344  16.606  0.4050  0.0341 -0.0773
 1234TIP3    H125117   3.004   4.313  16.636  0.0966 -0.0297 -1.0070
 1234TIP3    H225118   3.144   4.346  16.685 -0.3034 -0.4298  0.4224
 1235TIP3   OH225119   3.357   2.051  13.422 -0.9757 -0.0743 -0.2193
 1235TIP3    H125120   3.448   2.032  13.397 -1.4314 -1.9456 -0.5240
 1235TIP3    H225121   3.365   2.107  13.499  0.4401  0.2224 -0.5622
 1236TIP3   OH225122   6.005   1.814   1.610  0.3439  1.2615  0.4121
 1236TIP3    H125123   5.990   1.906   1.628 -0.2341  1.1283  0.6014
 1236TIP3    H225124   6.100   1.806   1.603  0.4194  1.7868  0.8423
 1237TIP3   OH225125   6.310   5.032   3.000 -0.2619 -0.5631 -0.1000
 1237TIP3    H125126   6.350   4.953   3.035 -1.9655 -0.8934  1.1448
 1237TIP3    H225127   6.238   5.001   2.945 -0.9039  0.1151  0.3518
 1238TIP3   OH225128   4.940   2.290   2.689  0.5287  0.3637  0.1246
 1238TIP3    H125129   5.007   2.272   2.755  0.4590  0.0757  0.1192
 1238TIP3    H225130   4.959   2.379   2.659  0.3355  0.6436  0.8049
 1239TIP3   OH225131   2.748   3.831   1.876  0.0938 -0.6472 -0.0687
 1239TIP3    H125132   2.653   3.837   1.864  0.1812  0.3024 -0.2596
 1239TIP3    H225133   2.766   3.737   1.870 -0.2009 -0.5032 -4.7699
 1240TIP3   OH225134   5.974   4.050  14.749 -0.2761  0.2904 -0.4864
 1240TIP3    H125135   6.012   4.085  14.829  1.2422 -0.1868 -0.9805
 1240TIP3    H225136   5.892   4.009  14.777  1.8842 -2.9125  1.4365
 1241TIP3   OH225137   0.490   4.550  16.020 -0.0658  0.4068 -0.0823
 1241TIP3    H125138   0.467   4.464  16.055  1.5511  0.8527  2.1680
 1241TIP3    H225139   0.583   4.544  15.998  0.0545  1.5764  0.0561
 1242TIP3   OH225140   6.669   1.788  14.961 -0.3615 -0.1505  0.1987
 1242TIP3    H125141   6.726   1.863  14.974 -1.9354  1.0695  0.1947
 1242TIP3    H225142   6.687   1.759  14.872  1.2060 -0.5997  0.6589
 1243TIP3   OH225143   0.084   6.272   5.360 -1.1434 -0.0174  0.1387
 1243TIP3    H125144  -0.001   6.317   5.362 -1.2681 -0.2115 -0.6352
 1243TIP3    H225145   0.104   6.263   5.267  0.2188  0.9167  0.3324
 1244TIP3   OH225146   5.817   5.045   2.256 -0.0242 -0.5142 -0.0765
 1244TIP3    H125147   5.845   5.126   2.214 -0.0527 -0.2351  0.4512
 1244TIP3    H225148   5.788   4.990   2.183 -1.7004  0.6019 -0.2804
 1245TIP3   OH225149   4.628   6.620  16.387 -0.3433  0.2903 -0.1285
 1245TIP3    H125150   4.705   6.661  16.427 -0.0324  0.7255 -1.1498
 1245TIP3    H225151   4.659   6.588  16.302 -0.4876 -2.4216  0.7844
 1246TIP3   OH225152   1.536   1.942  12.503  0.3302  0.1573 -0.2888
 1246TIP3    H125153   1.519   1.911  12.414  0.1733  0.7666 -0.4729
 1246TIP3    H225154   1.473   1.894  12.557 -0.1496  0.4084 -0.6199
 1247TIP3   OH225155   0.199   5.194  11.538 -0.5293  0.2774  0.1623
 1247TIP3    H125156   0.156   5.224  11.458 -0.4718 -3.5834 -1.4067
 1247TIP3    H225157   0.162   5.250  11.607 -3.3463  1.2292 -2.0160
 1248TIP3   OH225158   5.663   0.227   5.120  0.6141  0.1853  0.0106
 1248TIP3    H125159   5.654   0.317   5.090 -1.0087 -0.0499 -0.2779
 1248TIP3    H225160   5.600   0.178   5.066  2.3805 -1.3214 -0.7212
 1249TIP3   OH225161   3.135   6.273  15.743 -0.0431  0.5258  0.4580
 1249TIP3    H125162   3.206   6.287  15.806  1.0345 -1.5670 -0.2324
 1249TIP3    H225163   3.145   6.181  15.716 -1.7932  0.7795 -1.1615
 1250TIP3   OH225164   4.905   2.235   6.187 -0.6856 -0.0770 -0.2697
 1250TIP3    H125165   4.917   2.325   6.156  0.8021 -0.6582 -1.4287
 1250TIP3    H225166   4.940   2.234   6.276 -1.3187  0.6494 -0.0128
 1251TIP3   OH225167   2.265   5.731   4.979  0.3993 -0.4227  0.4366
 1251TIP3    H125168   2.190   5.708   4.924 -0.6504  1.1016  1.1822
 1251TIP3    H225169   2.253   5.679   5.058 -0.6637  0.8465  1.1336
 1252TIP3   OH225170   6.514   4.357  17.154 -0.1857 -0.2441  0.5389
 1252TIP3    H125171   6.493   4.408  17.232 -1.3168 -1.1421  0.8382
 1252TIP3    H225172   6.581   4.408  17.109  0.5653  0.2383  2.1539
 1253TIP3   OH225173   0.324   5.023   2.330 -0.0968 -0.5989 -0.2917
 1253TIP3    H125174   0.317   4.933   2.363 -0.5253 -0.7774 -0.8573
 1253TIP3    H225175   0.413   5.050   2.354 -0.0552 -1.0799  0.1140
 1254TIP3   OH225176   5.348   6.775  11.462  0.9177 -0.3142 -0.0872
 1254TIP3    H125177   5.441   6.790  11.478  0.4164  0.7779  2.0452
 1254TIP3    H225178   5.316   6.854  11.419  0.1539  1.1155  2.9632
 1255TIP3   OH225179   1.391   1.136  15.553 -0.4319 -0.5251  0.2381
 1255TIP3    H125180   1.400   1.142  15.458 -2.8800 -1.3640 -0.0843
 1255TIP3    H225181   1.481   1.133  15.585  0.4740  1.7989 -1.8869
 1256TIP3   OH225182   2.523   6.305   5.150 -0.0163 -0.7639  0.5992
 1256TIP3    H125183   2.512   6.285   5.243  2.5985  1.0760  1.3503
 1256TIP3    H225184   2.479   6.389   5.138  0.5371 -0.4956  0.4197
 1257TIP3   OH225185   3.816   0.100  12.621 -0.2377 -0.1917  0.3518
 1257TIP3    H125186   3.865   0.136  12.694  0.2749  1.6606 -0.8559
 1257TIP3    H225187   3.768   0.175  12.585 -0.2004 -0.9797 -1.4111
 1258TIP3   OH225188   3.098   2.381  12.902 -0.8700 -0.2439  0.2622
 1258TIP3    H125189   3.065   2.471  12.905  0.4483  0.2434  0.5298
 1258TIP3    H225190   3.072   2.343  12.986 -0.7543  0.1292  0.4676
 1259TIP3   OH225191   1.738   1.230   5.827 -0.0918  0.2583  0.0106
 1259TIP3    H125192   1.688   1.187   5.897 -0.3734 -0.6618 -0.7434
 1259TIP3    H225193   1.753   1.319   5.859 -2.5541  0.6705  0.0785
 1260TIP3   OH225194   5.128   1.879  14.220  0.8719 -0.1231  0.0776
 1260TIP3    H125195   5.163   1.860  14.133  1.4508  2.0366 -0.2042
 1260TIP3    H225196   5.033   1.876  14.208  0.8944  2.5271 -1.2590
 1261TIP3   OH225197   0.388   5.044   4.756  0.4950 -0.1030  0.1304
 1261TIP3    H125198   0.456   5.081   4.701  0.7801  1.4218  1.4914
 1261TIP3    H225199   0.422   5.050   4.845  0.0087 -2.4519  0.5117
 1262TIP3   OH225200   0.820   2.326  15.303 -0.1359  0.1072 -0.2986
 1262TIP3    H125201   0.750   2.261  15.302 -0.2439  0.2038  0.5900
 1262TIP3    H225202   0.851   2.327  15.393  0.3733  0.7511 -0.4731
 1263TIP3   OH225203   1.982   5.900   4.495 -0.0516  0.2355  0.8064
 1263TIP3    H125204   1.938   5.955   4.430  1.8806  1.2036  0.2990
 1263TIP3    H225205   2.016   5.826   4.445 -1.0709 -0.5230  1.2050
 1264TIP3   OH225206   1.563   4.957  15.734 -0.6281  0.1433 -0.0309
 1264TIP3    H125207   1.648   4.974  15.693 -0.6931  2.1598  0.6157
 1264TIP3    H225208   1.547   4.864  15.719  1.4875 -0.1531 -0.5485
 1265TIP3   OH225209   6.559   4.455  15.471  0.3562  0.0327  0.5490
 1265TIP3    H125210   6.653   4.444  15.457  0.4571  0.8002  0.6387
 1265TIP3    H225211   6.532   4.518  15.405  0.0557  0.4311  1.0473
 1266TIP3   OH225212   1.013   3.822   3.788 -0.4407  0.2449 -0.2391
 1266TIP3    H125213   1.079   3.892   3.785 -0.3036  0.0903 -0.8457
 1266TIP3    H225214   0.951   3.852   3.854  0.5535  0.1097  0.7759
 1267TIP3   OH225215   0.958   2.379  15.545  1.0263  0.2280  0.3467
 1267TIP3    H125216   1.039   2.381  15.494 -0.0297  0.8017 -1.3459
 1267TIP3    H225217   0.943   2.469  15.571  1.2378  0.0294  1.1713
 1268TIP3   OH225218   2.275   3.119   4.655  0.3409 -0.1961  0.1491
 1268TIP3    H125219   2.273   3.201   4.703 -1.0084 -0.6168  0.8212
 1268TIP3    H225220   2.249   3.142   4.565  3.1353  0.6358 -0.5028
 1269TIP3   OH225221   1.436   2.411   2.266  0.1576  0.5806 -0.0988
 1269TIP3    H125222   1.513   2.355   2.256 -2.3732 -2.9474 -0.8274
 1269TIP3    H225223   1.401   2.419   2.177 -0.4888  1.9256  0.2714
 1270TIP3   OH225224   1.732   5.017  15.157  0.0315 -0.0258 -0.1263
 1270TIP3    H125225   1.817   4.990  15.193  1.0015  1.3471 -1.3273
 1270TIP3    H225226   1.685   5.052  15.232 -0.2200 -2.5112  0.9306
 1271TIP3   OH225227   3.803   5.166  12.435  0.1858 -0.1389 -0.3033
 1271TIP3    H125228   3.825   5.258  12.424 -0.1061  0.1668  1.4570
 1271TIP3    H225229   3.887   5.124  12.457  0.0377 -0.0054  0.5215
 1272TIP3   OH225230   6.613   2.694   4.445 -0.2036 -0.0259  0.4858
 1272TIP3    H125231   6.598   2.784   4.415  1.6240 -0.6406 -2.4646
 1272TIP3    H225232   6.704   2.694   4.475  0.0465 -1.0790 -0.2648
 1273TIP3   OH225233   5.585   4.326   1.430  0.4211  0.1246 -0.1493
 1273TIP3    H125234   5.586   4.241   1.388  0.0222  0.5031 -0.9358
 1273TIP3    H225235   5.560   4.308   1.521  4.8479 -1.1171  0.9349
 1274TIP3   OH225236   2.427   1.643  12.838  0.3421 -0.4389 -0.0158
 1274TIP3    H125237   2.491   1.713  12.849 -0.2560 -0.0449  0.9935
 1274TIP3    H225238   2.479   1.562  12.841  0.5658 -0.2102  2.8039
 1275TIP3   OH225239   3.366   4.594  14.073  0.0529  0.1205 -0.5727
 1275TIP3    H125240   3.403   4.534  14.008  3.2843  2.6548 -1.2342
 1275TIP3    H225241   3.351   4.675  14.025  0.2860  1.3210  1.3124
 1276TIP3   OH225242   1.695   2.883  15.399 -0.6359  0.1690 -0.0361
 1276TIP3    H125243   1.782   2.902  15.433 -1.4309  2.6122  0.6937
 1276TIP3    H225244   1.655   2.826  15.465 -0.3289  0.7136  0.6232
 1277TIP3   OH225245   1.605   3.637  15.030  0.4053  0.2773  0.2020
 1277TIP3    H125246   1.624   3.559  15.082  0.3200  0.2953  0.2600
 1277TIP3    H225247   1.511   3.633  15.013  0.2210  0.8635  1.0260
 1278TIP3   OH225248   4.055   5.880   2.417  0.1662  0.4206 -0.2660
 1278TIP3    H125249   4.061   5.970   2.449  1.1935  0.4801 -0.5891
 1278TIP3    H225250   4.050   5.826   2.496 -0.7193  0.7772 -0.0755
 1279TIP3   OH225251   0.812   1.302  15.679  0.0618 -0.3626  0.2325
 1279TIP3    H125252   0.842   1.224  15.725  3.0219  0.0360 -0.9370
 1279TIP3    H225253   0.730   1.276  15.638  1.2742 -3.0219 -0.5931
 1280TIP3   OH225254   4.696   3.537   1.546  0.3958  0.0539  0.1602
 1280TIP3    H125255   4.791   3.533   1.537  0.2269  1.1893 -2.7574
 1280TIP3    H225256   4.663   3.477   1.479 -0.9447  0.3612  0.5206
 1281TIP3   OH225257   3.010   5.112   5.364 -0.4885  0.4455  0.2479
 1281TIP3    H125258   2.988   5.023   5.335  1.6067 -0.7840  2.1875
 1281TIP3    H225259   2.953   5.128   5.438 -0.0876  0.2448  0.6044
 1282TIP3   OH225260   5.566   3.980   3.664  0.1615  0.0112 -0.2678
 1282TIP3    H125261   5.491   3.931   3.697 -0.3707  0.2352 -1.1100
 1282TIP3    H225262   5.636   3.963   3.726  0.0060 -1.9057 -0.6022
 1283TIP3   OH225263   2.561   1.078  11.770  0.6615  0.2966 -0.1005
 1283TIP3    H125264   2.503   1.048  11.700  0.7046 -0.2461  0.0928
 1283TIP3    H225265   2.579   0.999  11.821  1.3240  0.5227  0.0159
 1284TIP3   OH225266   4.879   6.605  15.663 -0.1814 -0.3766  0.1648
 1284TIP3    H125267   4.954   6.665  15.659  0.5133 -1.1018  1.8633
 1284TIP3    H225268   4.916   6.522  15.694 -1.3957 -1.2437 -0.6646
 1285TIP3   OH225269   4.878   3.455   5.665 -0.6297  0.7117 -0.1176
 1285TIP3    H125270   4.865   3.537   5.618  0.2742  0.8872 -0.0683
 1285TIP3    H225271   4.910   3.481   5.751  2.1342  0.2439 -0.9357
 1286TIP3   OH225272   3.663   2.235  11.299 -0.0027  0.2094 -0.4379
 1286TIP3    H125273   3.674   2.283  11.217 -1.0019  1.2063  0.0048
 1286TIP3    H225274   3.572   2.207  11.298 -0.0886  0.4435  0.4492
 1287TIP3   OH225275   6.593   4.487   3.940  0.1553 -0.1382 -0.9126
 1287TIP3    H125276   6.519   4.465   3.996 -0.2843  0.9590 -1.0455
 1287TIP3    H225277   6.582   4.433   3.862 -0.1021 -0.5118 -0.6140
 1288TIP3   OH225278   5.793   1.796  13.643 -0.5042  0.0615  0.0791
 1288TIP3    H125279   5.814   1.875  13.594 -1.2186 -0.3712 -0.9367
 1288TIP3    H225280   5.855   1.796  13.716  0.5680  0.7060 -0.8206
 1289TIP3   OH225281   3.743   1.858   0.729 -0.2556  0.1096 -0.6210
 1289TIP3    H125282   3.710   1.904   0.806 -0.6972  0.1169 -0.8127
 1289TIP3    H225283   3.835   1.886   0.722 -0.7973  1.7514 -1.3221
 1290TIP3   OH225284   4.761   1.745  12.722 -0.3258  0.7583  0.6731
 1290TIP3    H125285   4.802   1.659  12.727 -0.2445  0.7212 -0.5031
 1290TIP3    H225286   4.688   1.741  12.784 -0.6633 -0.3511  0.2088
 1291TIP3   OH225287   5.780   5.978   6.242 -0.3541 -0.3469 -0.1589
 1291TIP3    H125288   5.743   6.055   6.287  0.8243 -0.3332  0.8328
 1291TIP3    H225289   5.874   5.986   6.257 -0.1189 -1.3341 -1.1135
 1292TIP3   OH225290   4.623   1.603  11.040 -0.1697  0.1480  0.2119
 1292TIP3    H125291   4.647   1.527  10.987  3.2275  0.7101  0.8835
 1292TIP3    H225292   4.658   1.678  10.993  2.2065  0.7116  2.7687
 1293TIP3   OH225293   4.277   1.958  15.575  0.3475  0.0965  0.2743
 1293TIP3    H125294   4.288   1.956  15.670  1.3951  1.8237  0.2140
 1293TIP3    H225295   4.305   1.871  15.546  0.1224 -0.4034  1.5439
 1294TIP3   OH225296   1.637   4.502   4.952  0.0755  0.1557  0.1613
 1294TIP3    H125297   1.673   4.589   4.971 -0.8417  1.0020 -1.7717
 1294TIP3    H225298   1.542   4.513   4.961 -0.1270 -0.3144 -1.2028
 1295TIP3   OH225299   2.657   2.689  10.822  0.5600 -0.1776 -0.6486
 1295TIP3    H125300   2.663   2.595  10.838 -1.2109 -0.3771 -0.9707
 1295TIP3    H225301   2.727   2.728  10.874 -0.3609 -1.4562  1.6198
 1296TIP3   OH225302   6.614   1.519   5.156  0.6171  1.0986  0.0323
 1296TIP3    H125303   6.662   1.575   5.095 -0.4327  0.7983 -1.0754
 1296TIP3    H225304   6.638   1.430   5.131 -0.1317  0.9637 -0.1918
 1297TIP3   OH225305   2.736   0.400  14.880  0.0485 -0.1388 -0.2782
 1297TIP3    H125306   2.678   0.413  14.955  0.4508  3.2994 -0.4821
 1297TIP3    H225307   2.683   0.424  14.804  0.4635 -1.0696 -0.8771
 1298TIP3   OH225308   3.987   3.142   4.159 -0.0139  1.0031  0.1793
 1298TIP3    H125309   3.965   3.120   4.249 -0.1202  0.6181  0.0601
 1298TIP3    H225310   3.906   3.178   4.123 -0.2683  0.1941 -0.0657
 1299TIP3   OH225311   0.541   4.416  12.363  0.1642  0.0699 -0.1186
 1299TIP3    H125312   0.532   4.421  12.268 -1.1894  1.2597  0.0538
 1299TIP3    H225313   0.576   4.502  12.388  1.0873 -0.4554  0.3985
 1300TIP3   OH225314   5.061   5.126  11.558 -0.1297  0.2277 -0.5715
 1300TIP3    H125315   5.019   5.207  11.528 -0.4601  0.6566  0.9564
 1300TIP3    H225316   4.992   5.081  11.606 -0.2510 -1.4926 -2.3239
 1301TIP3   OH225317   1.896   5.376   5.189 -0.0856  0.0567 -0.2161
 1301TIP3    H125318   1.961   5.349   5.123 -1.1972 -1.5179 -0.7032
 1301TIP3    H225319   1.922   5.328   5.268 -1.2076 -1.3823 -0.6858
 1302TIP3   OH225320   5.285   2.233  12.348  0.0530 -0.1786  0.3210
 1302TIP3    H125321   5.238   2.278  12.418 -2.0595 -0.1746 -1.0730
 1302TIP3    H225322   5.263   2.141  12.359 -1.8411  0.0324 -1.4572
 1303TIP3   OH225323   4.878   1.967  13.246 -0.3564  0.3705  0.0101
 1303TIP3    H125324   4.897   2.011  13.329  1.0421 -0.2828  0.0591
 1303TIP3    H225325   4.864   1.876  13.270 -1.0523  0.3786 -0.3487
 1304TIP3   OH225326   4.774   0.382  14.494  0.3263 -0.2454 -0.0073
 1304TIP3    H125327   4.733   0.299  14.469 -1.1355  0.7579 -1.0065
 1304TIP3    H225328   4.701   0.442  14.507  1.3982  1.0950 -0.0430
 1305TIP3   OH225329   3.058   6.335  12.898 -0.2187  0.2386  0.3294
 1305TIP3    H125330   3.043   6.422  12.863 -0.4489  0.5767  1.2510
 1305TIP3    H225331   3.154   6.327  12.902 -0.1292 -0.8168 -2.8148
 1306TIP3   OH225332   1.730   6.661   3.844 -0.5628 -0.4326 -0.0402
 1306TIP3    H125333   1.700   6.570   3.833 -3.4578  0.4336  0.2534
 1306TIP3    H225334   1.689   6.689   3.926  0.1171  1.2561 -0.2666
 1307TIP3   OH225335   3.307   4.070   2.366  0.3126  0.1850  0.4346
 1307TIP3    H125336   3.237   4.043   2.307 -0.1693 -0.2542  1.2143
 1307TIP3    H225337   3.284   4.160   2.391  1.9400  1.3940 -2.1929
 1308TIP3   OH225338   3.440   1.430   3.930 -0.0348  0.6174  0.3186
 1308TIP3    H125339   3.396   1.346   3.914  1.7753  0.2921 -3.3337
 1308TIP3    H225340   3.511   1.409   3.990 -1.9948  0.3327  2.6299
 1309TIP3   OH225341   0.822   0.487   1.624 -0.4298  0.7426 -0.3920
 1309TIP3    H125342   0.829   0.578   1.598  1.6282  0.3713 -1.1965
 1309TIP3    H225343   0.861   0.438   1.551 -3.3504 -0.9204 -0.9241
 1310TIP3   OH225344   2.673   3.285   6.001 -0.1867 -0.0392 -0.1278
 1310TIP3    H125345   2.580   3.281   5.977 -1.5284  0.8335  4.4232
 1310TIP3    H225346   2.684   3.214   6.064  2.5131 -0.7286 -1.3432
 1311TIP3   OH225347   5.963   6.595   0.481 -0.3362 -0.4081  1.0535
 1311TIP3    H125348   5.969   6.610   0.387  2.2264 -0.8112  1.1107
 1311TIP3    H225349   5.950   6.500   0.490 -1.1062 -0.2996  1.0936
 1312TIP3   OH225350   1.316   6.596   4.977 -0.0621 -0.0703 -0.2115
 1312TIP3    H125351   1.241   6.642   4.939  0.0288 -0.4146 -0.8242
 1312TIP3    H225352   1.293   6.503   4.970  1.7676 -0.3511 -3.3603
 1313TIP3   OH225353   0.373   1.108  14.492 -0.2841 -0.1372  0.3775
 1313TIP3    H125354   0.370   1.202  14.478 -0.1479  0.0227  1.3613
 1313TIP3    H225355   0.340   1.070  14.411  0.7904  0.7225 -0.4849
 1314TIP3   OH225356   0.652   2.102  11.298 -0.2829  0.2804  0.0749
 1314TIP3    H125357   0.742   2.119  11.270 -0.3344  0.3898 -0.0243
 1314TIP3    H225358   0.660   2.075  11.389  0.2212 -3.2052 -0.9039
 1315TIP3   OH225359   5.125   5.891   2.028  0.1737 -0.0683 -0.0149
 1315TIP3    H125360   5.220   5.890   2.036  0.2694  1.9066 -0.6615
 1315TIP3    H225361   5.106   5.830   1.956  0.8125 -1.7107  1.1931
 1316TIP3   OH225362   4.911   6.601   4.826  0.5308  0.6554 -0.4995
 1316TIP3    H125363   4.867   6.681   4.798  1.1864  2.1730  2.4999
 1316TIP3    H225364   4.840   6.543   4.852  0.0853  0.8613 -1.2617
 1317TIP3   OH225365   2.001   5.245   3.429 -0.3294  0.0932 -0.4427
 1317TIP3    H125366   1.983   5.330   3.470 -1.5776 -0.6033  0.4967
 1317TIP3    H225367   1.992   5.261   3.335  0.4057  1.2115 -0.3343
 1318TIP3   OH225368   0.451   0.440  17.211  0.3369 -0.1163 -0.2632
 1318TIP3    H125369   0.448   0.392  17.294  1.6603 -1.6036 -1.0351
 1318TIP3    H225370   0.395   0.390  17.152 -1.0638  1.2642 -0.1117
 1319TIP3   OH225371   2.223   5.655  16.637 -0.0762 -0.0470 -0.3748
 1319TIP3    H125372   2.194   5.719  16.573 -0.1100 -2.4008 -2.7855
 1319TIP3    H225373   2.317   5.671  16.645 -0.0718  0.2729 -1.0158
 1320TIP3   OH225374   1.318   5.852   4.107 -0.0039  0.1559 -0.0409
 1320TIP3    H125375   1.395   5.804   4.138 -1.0214 -0.4252  1.6582
 1320TIP3    H225376   1.354   5.929   4.063  1.5764 -0.7197 -0.2910
 1321TIP3   OH225377   2.852   1.339   4.911  0.0193  0.1981  0.0693
 1321TIP3    H125378   2.808   1.413   4.869 -1.1901  0.1753  1.2609
 1321TIP3    H225379   2.938   1.373   4.933  0.1194  0.6908 -1.0078
 1322TIP3   OH225380   4.419   4.396  12.829 -0.0325  0.0185 -0.9738
 1322TIP3    H125381   4.478   4.465  12.798 -0.1219 -0.1193 -1.4544
 1322TIP3    H225382   4.475   4.319  12.839  0.0040  0.0731 -0.7565
 1323TIP3   OH225383   0.038   3.943   0.837  0.2515  0.4719  0.2125
 1323TIP3    H125384  -0.029   4.010   0.849 -1.5876 -1.1205 -0.9194
 1323TIP3    H225385   0.013   3.872   0.896  1.6327  0.3536  0.6808
 1324TIP3   OH225386   0.180   1.622  12.952 -0.0818 -0.0430 -0.2600
 1324TIP3    H125387   0.104   1.583  12.909  0.0556 -0.4127 -0.1650
 1324TIP3    H225388   0.148   1.707  12.984 -0.7868 -0.7337  0.8889
 1325TIP3   OH225389   0.571   0.070  13.809 -0.8043  0.0654  0.6426
 1325TIP3    H125390   0.659   0.106  13.820 -0.7521  0.7763 -1.7218
 1325TIP3    H225391   0.523   0.100  13.887  0.7278  0.6061  1.4000
 1326TIP3   OH225392   2.092   1.056   0.592 -0.0408  0.3982 -0.4966
 1326TIP3    H125393   2.077   1.096   0.506 -2.2238 -0.9270 -0.7782
 1326TIP3    H225394   2.004   1.044   0.628  0.6442 -2.5190  0.3008
 1327TIP3   OH225395   0.597   6.418  16.616 -0.4570 -0.4357  0.0057
 1327TIP3    H125396   0.602   6.475  16.539 -0.1292 -0.1778  0.2147
 1327TIP3    H225397   0.505   6.393  16.621 -0.5601 -0.1085 -0.2197
 1328TIP3   OH225398   5.887   5.914  12.196 -0.2930 -0.1810  0.2396
 1328TIP3    H125399   5.891   5.993  12.249  2.5505 -0.7947  0.9760
 1328TIP3    H225400   5.793   5.892  12.193 -0.9073  2.1392  1.5564
 1329TIP3   OH225401   5.570   4.646  16.213 -0.3097  0.1131  0.7131
 1329TIP3    H125402   5.616   4.697  16.279  0.6891  0.0635  0.0657
 1329TIP3    H225403   5.575   4.699  16.133 -0.9247 -0.1266  0.5124
 1330TIP3   OH225404   4.889   6.598  16.042 -0.2402 -0.7615 -0.4575
 1330TIP3    H125405   4.834   6.673  16.021 -0.0203 -0.4795 -0.0252
 1330TIP3    H225406   4.946   6.588  15.966  0.8238  0.4990  0.1578
 1331TIP3   OH225407   2.035   0.085  13.610  0.1655  0.5831 -0.0083
 1331TIP3    H125408   2.057   0.068  13.519 -1.1562  0.6404 -0.3405
 1331TIP3    H225409   2.054   0.178  13.623  1.2013  0.3769  0.0360
 1332TIP3   OH225410   3.626   4.742   6.033 -0.0945  0.6544 -0.2332
 1332TIP3    H125411   3.584   4.825   6.056 -0.8117  0.0757  0.5723
 1332TIP3    H225412   3.696   4.767   5.973 -0.6701  1.7860 -0.4566
 1333TIP3   OH225413   4.394   6.708   6.469 -0.6590 -0.2139 -0.1457
 1333TIP3    H125414   4.414   6.798   6.493 -0.6935  0.0440 -1.0808
 1333TIP3    H225415   4.308   6.691   6.507 -2.3994  1.4195 -3.2488
 1334TIP3   OH225416   0.438   6.186  13.788 -0.3497  0.4895  0.5064
 1334TIP3    H125417   0.347   6.203  13.813 -0.5001  0.4767 -0.0340
 1334TIP3    H225418   0.489   6.225  13.859 -0.7771  0.3894  0.8741
 1335TIP3   OH225419   4.917   1.880   4.737 -0.2257  0.4098 -0.4297
 1335TIP3    H125420   4.855   1.951   4.723 -1.5621 -0.4375  1.0850
 1335TIP3    H225421   4.863   1.802   4.747  1.1403 -0.5262 -0.2315
 1336TIP3   OH225422   4.874   4.124  14.662 -0.2313  0.0055 -0.3590
 1336TIP3    H125423   4.906   4.210  14.688 -2.1340 -0.1095  2.7516
 1336TIP3    H225424   4.830   4.091  14.741  0.5793 -3.8781 -1.4276
 1337TIP3   OH225425   3.571   2.768  13.984 -0.1041  0.2925 -0.0182
 1337TIP3    H125426   3.569   2.749  14.078 -0.5264  1.2727  0.1803
 1337TIP3    H225427   3.601   2.859  13.979 -1.1648  0.6038 -0.7776
 1338TIP3   OH225428   1.814   6.671  12.281  0.1775  0.3765 -0.0260
 1338TIP3    H125429   1.762   6.599  12.317  1.6424 -1.1354 -0.8230
 1338TIP3    H225430   1.851   6.636  12.200  0.2812  2.3164 -0.8478
 1339TIP3   OH225431   5.378   0.896   1.406  0.7577  0.5709 -0.3024
 1339TIP3    H125432   5.422   0.918   1.488  0.7602  1.5776 -0.5711
 1339TIP3    H225433   5.364   0.801   1.411  1.4088  0.5169  0.5376
 1340TIP3   OH225434   5.409   4.337  16.919  0.0810 -0.5083 -0.0643
 1340TIP3    H125435   5.463   4.277  16.971 -1.4872 -0.3457  1.8501
 1340TIP3    H225436   5.355   4.279  16.865  0.9133 -0.7085 -0.7042
 1341TIP3   OH225437   6.279   2.112  14.893  0.0661 -0.2576 -0.1622
 1341TIP3    H125438   6.350   2.126  14.830 -0.6069  0.7635 -0.7090
 1341TIP3    H225439   6.308   2.037  14.945  1.0065 -0.5969 -1.1495
 1342TIP3   OH225440   6.773   1.304   5.022  0.3919  0.2009 -0.3621
 1342TIP3    H125441   6.733   1.227   4.983 -1.0217  0.5490  0.3816
 1342TIP3    H225442   6.810   1.352   4.947  0.0305 -0.4644 -0.9751
 1343TIP3   OH225443   2.012   4.255   5.529  0.0579 -0.2976  0.3738
 1343TIP3    H125444   2.002   4.160   5.518  1.0313 -0.7498  3.1698
 1343TIP3    H225445   2.105   4.267   5.545 -0.2790  0.9923  1.4112
 1344TIP3   OH225446   3.388   0.171   0.637 -0.0356 -0.4777 -0.0010
 1344TIP3    H125447   3.382   0.160   0.732 -0.2372 -3.6454 -0.3512
 1344TIP3    H225448   3.396   0.083   0.602  1.7272  0.7330 -2.8587
 1345TIP3   OH225449   2.062   1.093  12.162 -0.0881  0.2092 -0.1769
 1345TIP3    H125450   2.142   1.047  12.138 -1.0687 -1.5468 -0.1057
 1345TIP3    H225451   2.027   1.125  12.079 -0.0096 -0.1612 -0.3527
 1346TIP3   OH225452   5.396   3.063   4.778  0.0855 -0.5510  0.2598
 1346TIP3    H125453   5.413   3.106   4.694  1.2761 -1.2625  0.1342
 1346TIP3    H225454   5.420   2.972   4.764  0.3927 -0.6501  1.4086
 1347TIP3   OH225455   0.042   6.527  11.755  0.3508  0.9520 -0.1787
 1347TIP3    H125456   0.110   6.532  11.822  0.3535 -0.0217 -0.1129
 1347TIP3    H225457  -0.035   6.566  11.797  1.1446  3.0960 -0.6273
 1348TIP3   OH225458   5.814   0.116  15.233  0.3126 -0.4453 -0.3587
 1348TIP3    H125459   5.752   0.167  15.180  0.3418  0.1098  0.1307
 1348TIP3    H225460   5.894   0.169  15.233  1.2018 -1.7624 -2.0321
 1349TIP3   OH225461   6.191   2.893  13.211  0.2082  0.5720 -0.1889
 1349TIP3    H125462   6.098   2.873  13.216  0.4868 -1.2547 -1.7937
 1349TIP3    H225463   6.204   2.923  13.121  1.3158  0.0110 -0.2249
 1350TIP3   OH225464   2.664   6.764  16.350 -0.0465 -0.2668  0.1209
 1350TIP3    H125465   2.583   6.809  16.325  1.0620  1.2341 -0.8926
 1350TIP3    H225466   2.638   6.673  16.364 -2.0437  0.3611  0.5886
 1351TIP3   OH225467   5.259   0.802   0.447  0.0264 -0.0626  0.2303
 1351TIP3    H125468   5.305   0.759   0.518 -0.4573 -0.9427  0.0174
 1351TIP3    H225469   5.187   0.848   0.489 -1.9895 -2.9132  0.0618
 1352TIP3   OH225470   4.151   6.554   0.364  0.5497 -0.8305 -0.0412
 1352TIP3    H125471   4.131   6.502   0.442 -0.3795  0.3066  0.4940
 1352TIP3    H225472   4.208   6.497   0.311 -0.1199 -2.2290  0.7095
 1353TIP3   OH225473   4.769   6.439   0.494  0.2255  0.2701  0.0204
 1353TIP3    H125474   4.832   6.423   0.423  0.9971  0.7117  0.5971
 1353TIP3    H225475   4.803   6.516   0.539  1.0002 -1.3278  2.2741
 1354TIP3   OH225476   1.778   1.248   4.891  0.2141 -0.2409  0.2625
 1354TIP3    H125477   1.719   1.323   4.889  0.4883 -0.0279  0.3315
 1354TIP3    H225478   1.855   1.278   4.938  0.2764 -0.6004  0.3945
 1355TIP3   OH225479   3.839   5.263  14.440 -0.0504 -0.5516  0.0704
 1355TIP3    H125480   3.750   5.295  14.450 -0.3303 -0.5882 -2.1642
 1355TIP3    H225481   3.843   5.186  14.497 -0.7399  0.7529  1.9291
 1356TIP3   OH225482   0.005   4.302   3.055  0.1793  0.5520  0.0788
 1356TIP3    H125483  -0.004   4.368   3.124 -1.9624  1.0362 -0.6212
 1356TIP3    H225484   0.003   4.352   2.973 -0.0269 -0.2400 -0.4100
 1357TIP3   OH225485   1.987   5.282  11.681  0.3164  0.4541  0.1032
 1357TIP3    H125486   2.027   5.334  11.611  2.9229 -0.1961  1.0716
 1357TIP3    H225487   1.930   5.220  11.634  1.3096  0.6311 -1.3813
 1358TIP3   OH225488   2.445   2.475   3.859  0.1678 -0.3827  0.2687
 1358TIP3    H125489   2.429   2.478   3.953  1.0911  1.4159  0.3933
 1358TIP3    H225490   2.473   2.564   3.836 -2.8492  0.0158 -2.2047
 1359TIP3   OH225491   1.923   0.306   5.401 -0.2488  0.6411 -0.3509
 1359TIP3    H125492   1.866   0.230   5.406 -0.7890  0.9762 -1.3435
 1359TIP3    H225493   2.004   0.277   5.443  0.0104 -0.9037 -1.8671
 1360TIP3   OH225494   1.618   2.616  10.776 -0.1026 -0.2713  0.0044
 1360TIP3    H125495   1.640   2.614  10.683 -1.4511  1.9803 -0.3846
 1360TIP3    H225496   1.689   2.666  10.816  0.5077 -1.2887  0.2247
 1361TIP3   OH225497   3.275   1.839   0.234  0.4674 -0.8152 -0.2932
 1361TIP3    H125498   3.314   1.850   0.321  0.4666 -1.8789 -0.1546
 1361TIP3    H225499   3.182   1.822   0.252  0.8130 -2.9649 -0.3943
 1362TIP3   OH225500   4.079   1.137   3.231  0.1195  0.3767  0.0509
 1362TIP3    H125501   4.042   1.100   3.151 -0.6343 -0.3942  0.7440
 1362TIP3    H225502   4.136   1.208   3.201 -1.1013  0.8877 -1.0903
 1363TIP3   OH225503   3.758   3.087  12.389 -0.1721  0.3149 -0.1935
 1363TIP3    H125504   3.691   3.149  12.417 -0.4848  0.4909 -1.3245
 1363TIP3    H225505   3.710   3.017  12.344  0.1286 -1.0051  1.4626
 1364TIP3   OH225506   4.570   0.925  14.719  0.3065 -0.0683 -0.8127
 1364TIP3    H125507   4.569   0.987  14.646 -0.5299  1.5234  0.5071
 1364TIP3    H225508   4.479   0.921  14.749  0.5870 -0.9444 -0.0513
 1365TIP3   OH225509   5.006   1.098   3.588  0.1656  0.1633  0.5184
 1365TIP3    H125510   5.026   1.007   3.566  1.4674  0.8377 -1.2050
 1365TIP3    H225511   4.987   1.096   3.682 -0.6822 -2.0088  0.3479
 1366TIP3   OH225512   6.506   3.019   1.898 -0.7537  0.1568  0.0596
 1366TIP3    H125513   6.554   3.095   1.866 -1.2192  0.3496 -0.1833
 1366TIP3    H225514   6.456   2.988   1.823 -0.5409 -0.4133  0.1480
 1367TIP3   OH225515   5.218   0.322  15.270  0.3409 -0.0187 -0.0492
 1367TIP3    H125516   5.142   0.376  15.294 -0.1748 -0.5668 -0.4551
 1367TIP3    H225517   5.206   0.241  15.320  0.0296 -0.5804 -1.0326
 1368TIP3   OH225518   3.255   0.723   1.338 -0.8635 -0.6454 -0.0794
 1368TIP3    H125519   3.279   0.780   1.265 -0.2198 -1.0551 -0.1920
 1368TIP3    H225520   3.282   0.636   1.310  1.8450 -0.4252  1.7528
 1369TIP3   OH225521   4.959   5.864   3.402 -0.7029 -0.1294 -0.7594
 1369TIP3    H125522   4.887   5.867   3.465  0.0439  0.0092  0.0974
 1369TIP3    H225523   4.935   5.928   3.335  0.2551  2.4811  1.2950
 1370TIP3   OH225524   0.074   4.900  12.537 -0.0290  0.5224 -0.3297
 1370TIP3    H125525   0.079   4.960  12.463  0.6368  0.8022 -0.0588
 1370TIP3    H225526  -0.010   4.920  12.578  0.2380  1.3505 -0.1740
 1371TIP3   OH225527   4.967   4.239   5.617  0.5117  0.2191 -0.7642
 1371TIP3    H125528   4.998   4.170   5.675  1.5303  0.7448 -0.6736
 1371TIP3    H225529   5.032   4.309   5.626 -0.2352  0.9859 -1.2389
 1372TIP3   OH225530   5.584   0.527   2.625  0.2242 -0.6200 -0.4164
 1372TIP3    H125531   5.512   0.468   2.604  0.3022 -1.1899  0.9080
 1372TIP3    H225532   5.582   0.536   2.720  0.2300  1.4909 -0.5857
 1373TIP3   OH225533   3.889   2.740  14.270  0.6801 -0.0767 -0.7097
 1373TIP3    H125534   3.856   2.650  14.272 -1.3697  0.6079 -2.5992
 1373TIP3    H225535   3.877   2.772  14.359 -0.5387 -0.9870 -0.5358
 1374TIP3   OH225536   1.946   1.320  16.858  0.3940  0.3626  0.2454
 1374TIP3    H125537   1.969   1.245  16.804  0.6354  1.6346 -1.4677
 1374TIP3    H225538   1.930   1.283  16.945 -1.4259 -1.9474 -0.9933
 1375TIP3   OH225539   1.308   3.464   0.327 -0.0279  0.2059  0.2356
 1375TIP3    H125540   1.348   3.468   0.240 -0.5958 -0.1143 -0.0409
 1375TIP3    H225541   1.237   3.528   0.323 -1.7530 -1.7132 -0.4056
 1376TIP3   OH225542   5.103   3.193  13.281  0.0659 -0.0955 -0.4275
 1376TIP3    H125543   5.066   3.105  13.282  1.7380 -0.8057  0.5244
 1376TIP3    H225544   5.039   3.246  13.328  0.3367 -1.3686  1.4530
 1377TIP3   OH225545   4.837   2.189   1.921  0.8156  0.1127  0.2328
 1377TIP3    H125546   4.808   2.278   1.937  2.8423  0.6579  1.0335
 1377TIP3    H225547   4.846   2.182   1.826 -0.1748  0.4718  0.1087
 1378TIP3   OH225548   4.293   4.206   4.996 -0.0168 -0.2406  0.1648
 1378TIP3    H125549   4.368   4.220   4.939  0.3993  0.4473  0.8642
 1378TIP3    H225550   4.222   4.183   4.937  1.0004 -1.9618 -0.4172
 1379TIP3   OH225551   5.692   0.682   5.365  0.7688  0.3382  0.7281
 1379TIP3    H125552   5.628   0.716   5.303  0.8739 -1.2333 -0.2741
 1379TIP3    H225553   5.760   0.642   5.310  1.5074  0.0436  1.8329
 1380TIP3   OH225554   5.337   0.239   5.498  0.2305 -0.4146  0.6916
 1380TIP3    H125555   5.340   0.220   5.592  1.7306  1.3190  1.0324
 1380TIP3    H225556   5.403   0.182   5.460  0.0067 -0.7209  0.7576
 1381TIP3   OH225557   4.788   2.583  11.994  0.2055  0.3515  0.2107
 1381TIP3    H125558   4.883   2.587  11.984 -0.0794  2.7292 -2.0425
 1381TIP3    H225559   4.769   2.646  12.064  0.1928  0.7240 -0.1266
 1382TIP3   OH225560   2.969   6.209   2.015  0.0376  0.3482 -0.1170
 1382TIP3    H125561   3.023   6.204   2.094  2.0202 -0.0492 -1.4479
 1382TIP3    H225562   3.023   6.259   1.953 -0.2879 -1.7790 -2.1603
 1383TIP3   OH225563   4.019   1.099   1.490  0.0284  0.2983  0.0546
 1383TIP3    H125564   3.948   1.162   1.502  0.7657  0.8280  1.7520
 1383TIP3    H225565   4.054   1.085   1.578  1.1729 -0.9586 -0.5878
 1384TIP3   OH225566   0.493   2.020  12.518  0.7036 -0.2860  0.1348
 1384TIP3    H125567   0.480   2.096  12.573  1.9113 -0.2319  0.3723
 1384TIP3    H225568   0.482   2.052  12.429  1.3085  0.1931  0.2306
 1385TIP3   OH225569   3.610   3.892  15.942  0.3202 -0.4152 -0.5849
 1385TIP3    H125570   3.603   3.821  15.878 -1.8554 -1.1038  0.3512
 1385TIP3    H225571   3.604   3.848  16.027 -1.4970  0.9136  0.0088
 1386TIP3   OH225572   3.324   4.327   5.486  0.7168  0.0029  0.3545
 1386TIP3    H125573   3.368   4.283   5.559  0.7147  0.8073  0.8361
 1386TIP3    H225574   3.394   4.367   5.436  0.7191 -0.5549 -0.1037
 1387TIP3   OH225575   3.984   6.409  15.218  0.7477 -0.5318  0.0608
 1387TIP3    H125576   4.022   6.329  15.253 -0.1140 -0.0850  2.1154
 1387TIP3    H225577   4.042   6.479  15.249 -0.0834 -0.1155  0.7057
 1388TIP3   OH225578   5.473   3.256  13.918  0.2763  0.3643  0.4542
 1388TIP3    H125579   5.498   3.186  13.979 -1.0632 -1.4368 -0.9893
 1388TIP3    H225580   5.525   3.238  13.840 -0.2347  0.8700 -0.0007
 1389TIP3   OH225581   5.358   5.949  13.580 -0.6797 -0.1908  0.3421
 1389TIP3    H125582   5.440   5.934  13.627  1.0176 -1.3946 -2.8340
 1389TIP3    H225583   5.290   5.937  13.646  1.6015 -1.4390  2.5696
 1390TIP3   OH225584   5.896   1.201   6.554  0.4362 -0.4642  0.1546
 1390TIP3    H125585   5.897   1.217   6.648  1.7154  0.8224 -0.0655
 1390TIP3    H225586   5.893   1.288   6.514  0.2447 -0.9863 -0.9992
 1391TIP3   OH225587   0.440   2.362   3.495 -0.0263 -0.2198 -0.4412
 1391TIP3    H125588   0.429   2.430   3.428  0.4659  0.3575  0.0612
 1391TIP3    H225589   0.371   2.380   3.559  1.6967  1.4050  1.0251
 1392TIP3   OH225590   5.548   6.040  11.352  0.0534 -0.5128  0.2211
 1392TIP3    H125591   5.616   6.102  11.378  0.1211 -0.2539 -0.5476
 1392TIP3    H225592   5.572   5.959  11.395  1.6708 -0.8169 -1.1739
 1393TIP3   OH225593   2.840   4.979  13.130  0.3632  0.5876  0.2411
 1393TIP3    H125594   2.860   5.001  13.221  0.1917  0.5684  0.2818
 1393TIP3    H225595   2.925   4.987  13.085  0.8660 -1.3983  0.7854
 1394TIP3   OH225596   3.459   3.685  12.203  0.0715  0.3061 -0.0830
 1394TIP3    H125597   3.481   3.644  12.286 -2.4123 -1.2904 -0.1500
 1394TIP3    H225598   3.501   3.770  12.205  0.6371 -0.0192  2.4962
 1395TIP3   OH225599   2.387   3.585  12.303  0.2565 -0.2513 -0.1582
 1395TIP3    H125600   2.482   3.575  12.302  0.2900  0.0559 -0.4345
 1395TIP3    H225601   2.370   3.658  12.243 -0.2078 -0.8063 -0.7175
 1396TIP3   OH225602   2.503   0.404  12.623 -0.2474 -0.2609  0.1457
 1396TIP3    H125603   2.473   0.476  12.678 -2.9460 -1.8962  0.9060
 1396TIP3    H225604   2.425   0.376  12.575  1.0269 -1.8853 -1.0483
 1397TIP3   OH225605   4.873   4.151   3.068 -0.0374 -0.4707 -0.3775
 1397TIP3    H125606   4.863   4.161   2.973 -3.6854  0.6308  0.0491
 1397TIP3    H225607   4.814   4.079   3.091  0.0749 -0.0872  1.1890
 1398TIP3   OH225608   1.317   0.468  15.712 -0.1677 -0.1891  0.4283
 1398TIP3    H125609   1.244   0.492  15.655 -1.2268 -0.1039  1.7909
 1398TIP3    H225610   1.386   0.440  15.652 -1.9817 -2.1220 -0.8617
 1399TIP3   OH225611   5.455   6.193  16.472 -0.1164 -0.4015  0.3487
 1399TIP3    H125612   5.408   6.110  16.459 -0.6584 -0.3785  2.0505
 1399TIP3    H225613   5.388   6.261  16.461  0.5534 -0.1098 -2.1633
 1400TIP3   OH225614   1.449   5.706   1.819  0.5441 -0.0543  0.0294
 1400TIP3    H125615   1.495   5.790   1.808 -0.0513  0.2177 -0.4451
 1400TIP3    H225616   1.358   5.731   1.836  0.4708 -0.5969  0.4543
 1401TIP3   OH225617   5.705   1.923  16.027  0.6300 -0.4128 -0.0940
 1401TIP3    H125618   5.726   1.896  15.937 -0.1641  0.1155 -0.4404
 1401TIP3    H225619   5.779   1.977  16.053  1.6682 -1.9137  0.1815
 1402TIP3   OH225620   1.649   0.561  13.996 -0.0762 -0.8789  0.0032
 1402TIP3    H125621   1.732   0.519  14.017  0.3249 -0.9399 -1.6509
 1402TIP3    H225622   1.632   0.620  14.070  1.9552 -0.0886 -0.1481
 1403TIP3   OH225623   3.935   1.107  15.060 -0.1485 -0.4448  0.6400
 1403TIP3    H125624   4.030   1.119  15.059 -0.2477  0.4240  0.8501
 1403TIP3    H225625   3.916   1.057  14.981  0.4776 -0.5547  0.5582
 1404TIP3   OH225626   6.209   6.571  14.548  0.0421  0.4612  0.3764
 1404TIP3    H125627   6.123   6.614  14.547  0.2174  0.8080  0.0296
 1404TIP3    H225628   6.214   6.527  14.463 -0.1766 -0.3347  0.7694
 1405TIP3   OH225629   5.155   4.530  15.308 -0.4612 -0.5332 -0.4201
 1405TIP3    H125630   5.134   4.523  15.402  1.2809 -2.4920 -0.1415
 1405TIP3    H225631   5.071   4.520  15.264 -1.0894 -1.2389  0.8960
 1406TIP3   OH225632   0.480   2.517  11.385  0.1638 -0.0513  0.1206
 1406TIP3    H125633   0.388   2.496  11.401  1.0982 -3.1872  1.6659
 1406TIP3    H225634   0.496   2.594  11.440 -1.6138  0.8015 -0.4963
 1407TIP3   OH225635   5.725   2.734   1.954  0.1138 -0.7907 -0.2240
 1407TIP3    H125636   5.692   2.802   1.895 -2.0077 -0.1892  1.5628
 1407TIP3    H225637   5.809   2.767   1.985 -0.8460  1.0165  0.5336
 1408TIP3   OH225638   1.702   2.587   1.696 -0.4198  0.1470 -0.2403
 1408TIP3    H125639   1.760   2.593   1.620 -0.4991 -1.5682 -0.4368
 1408TIP3    H225640   1.619   2.556   1.660 -1.3128  2.0259  0.1283
 1409TIP3   OH225641   1.152   6.071   3.531  0.1982 -0.2217  0.0423
 1409TIP3    H125642   1.079   6.128   3.508 -0.6573 -0.4883  1.9472
 1409TIP3    H225643   1.161   6.011   3.457  0.7221  1.9762 -1.7073
 1410TIP3   OH225644   2.078   6.069   4.087  0.3458  0.2779 -0.0171
 1410TIP3    H125645   2.137   6.029   4.151 -0.5686  1.1150  1.3850
 1410TIP3    H225646   2.133   6.089   4.012  1.4639 -0.6157  0.5535
 1411TIP3   OH225647   3.676   6.349   6.046  0.1182  0.4863 -0.1258
 1411TIP3    H125648   3.630   6.273   6.083  0.0271  0.9386  0.6913
 1411TIP3    H225649   3.760   6.350   6.091 -0.9338  2.4921  1.9117
 1412TIP3   OH225650   6.775   6.224  14.717 -0.1514 -0.6233 -0.3184
 1412TIP3    H125651   6.720   6.211  14.795  0.6079 -1.3523  0.1018
 1412TIP3    H225652   6.718   6.270  14.656 -1.1881 -1.2157  0.1824
 1413TIP3   OH225653   6.718   1.344  16.867 -0.2398  0.6602 -0.0210
 1413TIP3    H125654   6.624   1.342  16.888  0.1044  2.0727  1.7938
 1413TIP3    H225655   6.721   1.365  16.774 -1.7462  0.0365 -0.2255
 1414TIP3   OH225656   3.112   4.473  13.598 -0.1283  0.3637 -0.0016
 1414TIP3    H125657   3.177   4.515  13.655 -0.5660  0.1535  0.6583
 1414TIP3    H225658   3.072   4.545  13.549 -0.7367  0.6980  0.9806
 1415TIP3   OH225659   2.490   4.111  13.656  0.0794 -0.1179 -0.1969
 1415TIP3    H125660   2.411   4.123  13.708 -0.2409 -0.8286 -0.5188
 1415TIP3    H225661   2.473   4.159  13.575 -0.1244 -0.4872 -0.3719
 1416TIP3   OH225662   4.352   6.226   1.917 -0.0663  0.0102 -0.0863
 1416TIP3    H125663   4.433   6.188   1.882 -0.5205 -0.3910 -0.7150
 1416TIP3    H225664   4.362   6.221   2.012  0.0964 -1.2100 -0.1681
 1417TIP3   OH225665   2.438   6.060   3.281  0.9760 -0.9813  0.5608
 1417TIP3    H125666   2.495   6.113   3.225 -0.2906 -1.8031 -1.5644
 1417TIP3    H225667   2.472   5.971   3.273 -1.1917 -1.6673 -1.5790
 1418TIP3   OH225668   3.339   5.227  13.204  0.6367 -0.2688 -0.3853
 1418TIP3    H125669   3.397   5.302  13.216  0.5326  0.0904 -2.0134
 1418TIP3    H225670   3.284   5.251  13.129 -1.7222 -0.5329  1.1950
 1419TIP3   OH225671   6.583   3.387   1.609 -0.4907  0.2152  0.5596
 1419TIP3    H125672   6.593   3.457   1.545 -2.9535  1.0897  1.0525
 1419TIP3    H225673   6.560   3.310   1.557  1.7873 -0.1680  0.0567
 1420TIP3   OH225674   6.696   5.899   1.341  0.0840  0.2408 -0.0367
 1420TIP3    H125675   6.685   5.804   1.347  0.6948  0.2839  2.3653
 1420TIP3    H225676   6.791   5.912   1.339  0.0132  0.8379  0.4962
 1421TIP3   OH225677   2.904   3.074   5.867 -0.6621 -0.0669 -0.7695
 1421TIP3    H125678   2.976   3.032   5.820 -0.9237 -2.2751  0.7141
 1421TIP3    H225679   2.942   3.096   5.953 -1.4742 -0.3302 -0.3432
 1422TIP3   OH225680   5.450   3.045   2.251 -0.3930 -0.1772 -0.2826
 1422TIP3    H125681   5.522   3.032   2.314  0.7773 -1.5472 -1.8424
 1422TIP3    H225682   5.439   2.959   2.211 -1.3950  0.5913 -1.6658
 1423TIP3   OH225683   4.489   1.850   1.071 -0.2254 -0.4720  0.1893
 1423TIP3    H125684   4.517   1.759   1.057  0.2498 -0.4330  0.8392
 1423TIP3    H225685   4.413   1.861   1.014 -0.0005 -1.1372 -0.2459
 1424TIP3   OH225686   3.196   6.459  15.551  0.3622  0.6474 -0.2532
 1424TIP3    H125687   3.234   6.529  15.603  1.8036 -0.5004  0.2812
 1424TIP3    H225688   3.202   6.381  15.607  2.2120 -0.6855 -2.2059
 1425TIP3   OH225689   5.370   2.634  12.979 -0.0333  0.1339 -0.2497
 1425TIP3    H125690   5.348   2.584  13.058  1.3839 -0.0622  0.0256
 1425TIP3    H225691   5.455   2.601  12.952  0.8094  2.2169 -0.2144
 1426TIP3   OH225692   0.466   4.009  12.415 -0.6039 -0.0827 -0.5160
 1426TIP3    H125693   0.458   4.078  12.481 -0.9055  0.8978 -1.5627
 1426TIP3    H225694   0.415   4.041  12.341 -3.2162 -2.7866  0.0466
 1427TIP3   OH225695   1.823   1.687  12.195  0.3977 -0.1551 -0.0582
 1427TIP3    H125696   1.908   1.727  12.211  0.4401 -0.6318  0.9476
 1427TIP3    H225697   1.843   1.603  12.153  0.5689 -1.3209  2.2468
 1428TIP3   OH225698   6.617   3.381  11.132  0.1879 -0.4966 -0.2995
 1428TIP3    H125699   6.683   3.363  11.199  1.3007  0.8847 -0.9889
 1428TIP3    H225700   6.645   3.330  11.057  1.0180  0.7745 -0.8862
 1429TIP3   OH225701   5.978   3.335  12.793  0.7306  0.0182  0.0917
 1429TIP3    H125702   5.883   3.327  12.805  1.0919 -1.6129  2.0447
 1429TIP3    H225703   5.995   3.289  12.711 -0.3366  1.6039 -1.0524
 1430TIP3   OH225704   4.277   5.119   3.532  0.2925 -0.0287 -0.1011
 1430TIP3    H125705   4.202   5.073   3.570  0.7221  0.1123  0.9283
 1430TIP3    H225706   4.334   5.049   3.499  0.2078 -0.1745  0.0584
 1431TIP3   OH225707   0.514   5.791   5.351  0.4963 -0.1151  0.2569
 1431TIP3    H125708   0.444   5.744   5.398  0.5247  0.9254  1.3692
 1431TIP3    H225709   0.473   5.820   5.270  0.0051 -0.6384  0.3101
 1432TIP3   OH225710   2.567   2.780   6.181 -0.5305 -0.1551  0.3522
 1432TIP3    H125711   2.655   2.817   6.186 -1.1299  1.5337 -1.0595
 1432TIP3    H225712   2.572   2.699   6.232  2.0809 -0.5540 -0.4747
 1433TIP3   OH225713   5.054   2.669  15.654  0.1310  0.4815  0.0930
 1433TIP3    H125714   4.971   2.621  15.655  0.3350  0.1218  1.2345
 1433TIP3    H225715   5.080   2.672  15.746  2.2512 -0.9501 -0.4099
 1434TIP3   OH225716   6.586   3.044  16.899  0.0803 -0.4465  0.4496
 1434TIP3    H125717   6.646   2.991  16.846  2.1457  2.3122 -0.1186
 1434TIP3    H225718   6.643   3.110  16.939 -2.3248  1.0707  1.4444
 1435TIP3   OH225719   6.518   1.001  16.837  0.5807 -0.5119  0.0342
 1435TIP3    H125720   6.427   1.030  16.852  0.6589 -0.2940  0.0863
 1435TIP3    H225721   6.516   0.962  16.750  0.1405 -1.7090  0.5697
 1436TIP3   OH225722   2.730   5.855   1.284  0.6378 -0.8496 -0.5258
 1436TIP3    H125723   2.740   5.950   1.286  0.4380 -0.8404  0.8510
 1436TIP3    H225724   2.675   5.835   1.360  0.9756 -2.0962 -0.5903
 1437TIP3   OH225725   6.459   5.581  11.368  0.2406 -0.0179 -0.5718
 1437TIP3    H125726   6.465   5.595  11.273  0.7680  2.1681 -0.2461
 1437TIP3    H225727   6.523   5.642  11.405 -0.5971 -0.2195  1.2526
 1438TIP3   OH225728   5.375   1.557  14.600  0.5679 -0.0268 -0.1193
 1438TIP3    H125729   5.423   1.628  14.641  1.1826 -0.1455 -0.6188
 1438TIP3    H225730   5.360   1.587  14.510 -1.5122  0.5947  0.4201
 1439TIP3   OH225731   5.836   1.978  11.686  0.1071  0.5315  0.0870
 1439TIP3    H125732   5.749   1.976  11.644 -0.1067 -0.4224  0.5510
 1439TIP3    H225733   5.891   2.027  11.626 -0.1604 -0.9378 -1.4104
 1440TIP3   OH225734   2.188   2.954  11.068 -0.0709  0.3465 -0.0780
 1440TIP3    H125735   2.222   2.952  10.979  0.3368 -1.0031  0.1008
 1440TIP3    H225736   2.194   3.046  11.094 -0.8055  0.8532 -1.6709
 1441TIP3   OH225737   2.571   0.779  10.819  0.1389 -0.5422 -0.0475
 1441TIP3    H125738   2.644   0.729  10.783 -0.1423  0.4714 -2.1294
 1441TIP3    H225739   2.519   0.804  10.742  0.5988  3.4399  0.8094
 1442TIP3   OH225740   1.034   1.576   0.919  0.1977 -0.0898  0.1110
 1442TIP3    H125741   1.082   1.560   1.000 -0.5933  1.3069  0.8860
 1442TIP3    H225742   0.952   1.527   0.929  1.7433 -3.1903 -1.5806
 1443TIP3   OH225743   4.516   5.067  15.845 -0.1809 -0.3018  0.3755
 1443TIP3    H125744   4.437   5.061  15.898 -0.2151  1.6053  0.5796
 1443TIP3    H225745   4.500   5.140  15.785  1.0056 -0.5736 -0.2993
 1444TIP3   OH225746   6.630   2.620  10.651  0.2967  0.0103  0.2915
 1444TIP3    H125747   6.723   2.629  10.672 -0.0977  2.1735  1.2019
 1444TIP3    H225748   6.595   2.709  10.655 -1.3757 -0.4858 -2.2734
 1445TIP3   OH225749   0.274   0.469   5.854 -1.0640 -0.3652  0.2433
 1445TIP3    H125750   0.294   0.532   5.785 -1.0406 -0.2412  0.3629
 1445TIP3    H225751   0.302   0.512   5.934 -1.4467 -0.3504  0.3707
 1446TIP3   OH225752   0.846   3.746   5.720  0.1138 -0.3049 -0.0857
 1446TIP3    H125753   0.861   3.657   5.750 -0.8810 -0.3410  0.3354
 1446TIP3    H225754   0.927   3.793   5.741  0.3610 -0.9290  0.3686
 1447TIP3   OH225755   1.785   0.465   0.886  0.0244 -0.0228 -0.2601
 1447TIP3    H125756   1.792   0.408   0.809  0.6816  2.7841 -2.3495
 1447TIP3    H225757   1.707   0.517   0.870  0.5880  1.1006  0.6037
 1448TIP3   OH225758   1.466   3.104   5.487  0.2546  0.1906  0.3797
 1448TIP3    H125759   1.416   3.186   5.486  0.5137  0.3482  0.4522
 1448TIP3    H225760   1.452   3.066   5.401  0.4260  0.4870  0.2213
 1449TIP3   OH225761   5.148   6.372  12.141  0.0442  0.0167  0.3978
 1449TIP3    H125762   5.150   6.344  12.232  0.9828 -1.0775  0.0461
 1449TIP3    H225763   5.221   6.433  12.133 -0.2806  0.4184  0.4707
 1450TIP3   OH225764   5.777   5.899   4.660 -0.3155  0.6181 -0.1987
 1450TIP3    H125765   5.844   5.861   4.603  0.6459  0.9931  0.6557
 1450TIP3    H225766   5.818   5.977   4.696 -0.8693  0.3447  1.0663
 1451TIP3   OH225767   5.867   2.703  11.257  0.3341  0.1286 -0.1470
 1451TIP3    H125768   5.900   2.675  11.171  2.9741 -1.0673  1.1991
 1451TIP3    H225769   5.943   2.742  11.300 -0.4825 -0.9632  2.3716
 1452TIP3   OH225770   0.478   4.356   5.087 -0.0152 -0.6775 -0.3587
 1452TIP3    H125771   0.390   4.375   5.119  0.0745  1.4913 -1.3016
 1452TIP3    H225772   0.486   4.408   5.007  2.7637  0.6545  0.6906
 1453TIP3   OH225773   4.035   2.618   4.444  0.1105  0.1005 -0.0997
 1453TIP3    H125774   4.044   2.617   4.349  1.3499  0.1086  0.0002
 1453TIP3    H225775   4.101   2.682   4.473 -2.6083  2.7276  0.5434
 1454TIP3   OH225776   5.175   1.143   4.173  0.4070  0.0304 -0.1676
 1454TIP3    H125777   5.224   1.165   4.253  0.2277  0.1024 -0.0760
 1454TIP3    H225778   5.240   1.106   4.114  0.9718  1.9132 -0.7775
 1455TIP3   OH225779   0.020   3.641   3.185  0.2765 -0.1589 -0.2803
 1455TIP3    H125780   0.051   3.637   3.275 -1.3987  0.3627  0.3392
 1455TIP3    H225781   0.077   3.705   3.143 -0.2003  1.0808  0.9389
 1456TIP3   OH225782   1.301   0.506  11.608  0.0663  0.0416 -0.0386
 1456TIP3    H125783   1.326   0.417  11.583 -0.1658 -0.0786  0.1655
 1456TIP3    H225784   1.380   0.542  11.648  0.0134 -0.2332  0.3136
 1457TIP3   OH225785   6.490   2.319   1.015 -0.3872 -0.1892 -0.5179
 1457TIP3    H125786   6.576   2.316   0.973 -0.5252 -0.7480 -0.7652
 1457TIP3    H225787   6.428   2.318   0.943 -0.6089  0.0318 -0.3324
 1458TIP3   OH225788   6.617   3.296   3.638 -0.2667  0.9076  0.7075
 1458TIP3    H125789   6.702   3.333   3.616 -0.3217  1.3316  1.1872
 1458TIP3    H225790   6.598   3.235   3.568  0.9479 -0.0228  1.1804
 1459TIP3   OH225791   2.627   1.496   0.508  0.1287  0.2496 -0.2641
 1459TIP3    H125792   2.645   1.589   0.497 -1.2583  0.6283  0.4967
 1459TIP3    H225793   2.683   1.452   0.444  1.5412  1.5373  0.0844
 1460TIP3   OH225794   0.804   0.749   0.282  0.5171  0.0047  0.2336
 1460TIP3    H125795   0.795   0.682   0.349  0.5257  0.1606  0.3902
 1460TIP3    H225796   0.799   0.701   0.199 -2.3254  0.1281  0.2834
 1461TIP3   OH225797   2.313   3.789   1.532 -0.4686  0.3046 -0.4040
 1461TIP3    H125798   2.339   3.879   1.550 -3.3386  1.4532 -1.6027
 1461TIP3    H225799   2.341   3.774   1.442  1.1011 -0.4548  0.1966
 1462TIP3   OH225800   2.162   3.052  12.533 -0.3488  0.2391 -0.2140
 1462TIP3    H125801   2.091   2.997  12.498 -0.1150  0.6667 -1.3746
 1462TIP3    H225802   2.120   3.102  12.603 -1.5900  1.5727 -1.8571
 1463TIP3   OH225803   6.711   5.412   6.151  0.6059  0.0418 -0.7884
 1463TIP3    H125804   6.663   5.335   6.178 -0.6618  0.5345 -1.6171
 1463TIP3    H225805   6.785   5.378   6.100  0.7501 -0.6714 -0.1095
 1464TIP3   OH225806   5.617   2.351  13.195 -0.7785  0.2678 -0.0842
 1464TIP3    H125807   5.677   2.424  13.179  0.0451 -0.2343  0.6658
 1464TIP3    H225808   5.642   2.318  13.281  1.2833 -3.1699 -1.8996
 1465TIP3   OH225809   4.348   5.264  11.602  0.0094 -0.2256  0.2389
 1465TIP3    H125810   4.288   5.315  11.547  0.8075  0.5534  0.0708
 1465TIP3    H225811   4.305   5.179  11.612 -1.3819  0.4955  0.5846
 1466TIP3   OH225812   2.690   3.301   1.942  0.9827 -0.3924  0.6639
 1466TIP3    H125813   2.753   3.263   2.003  1.9074 -0.6769 -0.4496
 1466TIP3    H225814   2.673   3.231   1.879 -1.2009 -0.6419  1.5100
 1467TIP3   OH225815   3.978   5.876   4.847  0.1915 -0.3260  0.1087
 1467TIP3    H125816   4.002   5.939   4.915  1.3261  1.2160 -1.6807
 1467TIP3    H225817   4.019   5.794   4.875  0.3276  0.1872  1.4585
 1468TIP3   OH225818   4.030   1.672  14.342 -0.5929  0.0741 -0.1986
 1468TIP3    H125819   3.989   1.694  14.425 -0.5643 -1.4894  0.2386
 1468TIP3    H225820   4.110   1.626  14.366 -0.6375 -0.4787 -1.0728
 1469TIP3   OH225821   0.299   1.460   3.955  0.2203 -0.1311  0.1567
 1469TIP3    H125822   0.389   1.485   3.974 -0.0547  0.4885  0.6751
 1469TIP3    H225823   0.276   1.399   4.025  0.7436 -1.5150 -0.8555
 1470TIP3   OH225824   1.349   2.042  13.067  0.1849  0.0000 -0.4616
 1470TIP3    H125825   1.406   2.006  13.000  0.3263 -6.5479  2.7420
 1470TIP3    H225826   1.408   2.067  13.139 -0.3555  1.6825 -0.5859
 1471TIP3   OH225827   1.525   2.649   0.452 -0.2724 -0.4453  0.3804
 1471TIP3    H125828   1.484   2.713   0.512 -1.4885 -1.0554  0.2254
 1471TIP3    H225829   1.592   2.699   0.406 -0.9303  0.6285  0.5606
 1472TIP3   OH225830   5.939   1.069   5.445  0.1954  0.0893  0.4005
 1472TIP3    H125831   5.988   1.118   5.511 -0.3132 -3.1923  3.3713
 1472TIP3    H225832   5.859   1.041   5.491 -0.5974 -1.5416 -1.8764
 1473TIP3   OH225833   2.385   5.383  15.080 -0.3364  0.5585 -0.6013
 1473TIP3    H125834   2.416   5.300  15.045 -0.0754  0.1199  0.6236
 1473TIP3    H225835   2.465   5.434  15.093 -0.4213  0.6770 -0.5473
 1474TIP3   OH225836   3.329   1.158   0.345 -0.0828 -0.0471  0.1489
 1474TIP3    H125837   3.319   1.068   0.376 -2.4334 -0.4823 -1.7616
 1474TIP3    H225838   3.258   1.171   0.283  0.7337  2.8682 -0.2811
 1475TIP3   OH225839   2.302   4.514   1.801  0.4542  0.1765  0.1755
 1475TIP3    H125840   2.257   4.576   1.743  0.9952  1.1370  0.7795
 1475TIP3    H225841   2.231   4.459   1.835 -0.0041  0.3127 -0.5230
 1476TIP3   OH225842   5.927   3.247  13.461  0.0096  0.2014 -0.3417
 1476TIP3    H125843   5.955   3.337  13.480  1.0103 -0.3025  0.6460
 1476TIP3    H225844   5.832   3.250  13.463  0.0562  0.8028  1.8631
 1477TIP3   OH225845   0.322   4.687  11.993 -0.2241 -0.2851  0.1584
 1477TIP3    H125846   0.304   4.760  12.052 -0.5949  1.0950 -1.6255
 1477TIP3    H225847   0.336   4.728  11.907  1.4123 -2.1543 -0.5106
 1478TIP3   OH225848   1.354   2.938  10.830  0.0182  0.4428  0.2814
 1478TIP3    H125849   1.347   2.914  10.737  0.1876 -0.7977  0.5892
 1478TIP3    H225850   1.321   3.028  10.833  0.4939  0.6797 -1.0644
 1479TIP3   OH225851   0.661   3.206  12.002 -0.5213  0.2914  0.0294
 1479TIP3    H125852   0.635   3.137  11.941  0.0988  1.3683 -1.4692
 1479TIP3    H225853   0.666   3.285  11.949  2.2355  0.8300  1.0267
 1480TIP3   OH225854   4.690   0.712  12.742 -0.2319  0.4612 -0.6602
 1480TIP3    H125855   4.605   0.673  12.762  0.0099  0.2788  0.0527
 1480TIP3    H225856   4.753   0.652  12.783  0.2710  0.2449 -1.7356
 1481TIP3   OH225857   6.594   0.222  12.750 -0.9781 -0.0729 -0.3407
 1481TIP3    H125858   6.662   0.230  12.816  0.2951  0.5923 -1.6933
 1481TIP3    H225859   6.587   0.127  12.734  0.5904 -0.0751 -1.1394
 1482TIP3   OH225860   4.670   2.396  11.361 -0.8751 -0.1158 -0.2140
 1482TIP3    H125861   4.575   2.386  11.355 -0.8549  0.6710 -2.3025
 1482TIP3    H225862   4.703   2.365  11.276  0.5347  1.7686 -0.3803
 1483TIP3   OH225863   4.830   3.016   1.888  0.0722 -0.2688 -0.1852
 1483TIP3    H125864   4.815   3.025   1.794  1.1482 -0.8394 -0.4251
 1483TIP3    H225865   4.785   2.935   1.912  0.4753 -0.5473 -0.3673
 1484TIP3   OH225866   5.207   0.653   2.397 -0.2107 -0.2695 -0.3505
 1484TIP3    H125867   5.275   0.678   2.334 -0.4356 -2.1044 -1.3673
 1484TIP3    H225868   5.238   0.571   2.435 -1.5375 -0.7864 -0.3436
 1485TIP3   OH225869   6.618   1.267  11.920 -0.2970  0.2379 -0.2702
 1485TIP3    H125870   6.631   1.181  11.879 -0.8373  0.5554 -1.1092
 1485TIP3    H225871   6.545   1.306  11.872 -1.1007  0.5183  1.1523
 1486TIP3   OH225872   6.627   4.182  13.580  0.4193  0.5249  0.6543
 1486TIP3    H125873   6.685   4.165  13.654  0.9722 -1.6220 -0.2481
 1486TIP3    H225874   6.594   4.096  13.554  0.0165  1.2653 -1.4305
 1487TIP3   OH225875   6.363   2.169   3.554 -0.2865  0.0237  0.6724
 1487TIP3    H125876   6.289   2.125   3.597  0.9401  0.1206  2.9822
 1487TIP3    H225877   6.355   2.260   3.583 -1.7355  1.0072 -2.5783
 1488TIP3   OH225878   5.359   0.431   1.878  0.1560  0.0941 -0.0960
 1488TIP3    H125879   5.445   0.427   1.921  0.2875  1.6815 -0.2099
 1488TIP3    H225880   5.341   0.340   1.854  0.3484 -0.7777  2.8054
 1489TIP3   OH225881   4.870   3.377  13.283 -0.6277 -0.9431 -0.4552
 1489TIP3    H125882   4.882   3.464  13.245  0.3666 -1.3815 -1.1729
 1489TIP3    H225883   4.794   3.386  13.340 -0.5665  0.3803 -0.5700
 1490TIP3   OH225884   1.008   6.623  16.093 -0.3031 -0.6698  0.8223
 1490TIP3    H125885   1.061   6.641  16.016  1.7879 -1.1093  2.1170
 1490TIP3    H225886   1.035   6.535  16.121 -0.1367 -0.0275  2.7616
 1491TIP3   OH225887   0.774   4.104  16.910 -0.3386 -0.1080 -0.1261
 1491TIP3    H125888   0.684   4.111  16.879 -0.6563 -0.3058  0.7337
 1491TIP3    H225889   0.827   4.104  16.830 -0.9391  2.1685 -0.5640
 1492TIP3   OH225890   4.918   5.399  13.951 -0.0887 -0.7666  0.3852
 1492TIP3    H125891   4.841   5.414  14.006 -1.3867  0.8910 -1.7607
 1492TIP3    H225892   4.888   5.337  13.884  0.8784 -1.2315  0.3750
 1493TIP3   OH225893   6.398   6.329   6.119  0.0010 -0.3753 -0.3140
 1493TIP3    H125894   6.472   6.326   6.179  0.9298 -2.4908 -1.5159
 1493TIP3    H225895   6.323   6.298   6.171  0.5713 -1.1383  0.0567
 1494TIP3   OH225896   6.226   4.951  13.141  0.5565  0.3816 -0.1028
 1494TIP3    H125897   6.277   4.989  13.213 -0.8984 -0.2305  1.2965
 1494TIP3    H225898   6.242   5.008  13.067  2.8066  0.5318  0.4645
 1495TIP3   OH225899   4.673   4.035   5.255  0.0189 -0.0692 -0.4068
 1495TIP3    H125900   4.612   3.964   5.274 -1.0055  0.7127 -0.6962
 1495TIP3    H225901   4.683   4.034   5.160  0.6567 -0.3631 -0.3337
 1496TIP3   OH225902   5.493   1.034  11.851 -0.5953  0.2639  0.3500
 1496TIP3    H125903   5.514   1.104  11.790 -0.5258 -0.1942 -0.1550
 1496TIP3    H225904   5.397   1.036  11.858 -0.6979 -0.4786 -0.7312
 1497TIP3   OH225905   6.510   4.484  13.216  0.3784 -0.0919 -0.0921
 1497TIP3    H125906   6.584   4.515  13.269  0.3442  0.6607 -0.4731
 1497TIP3    H225907   6.442   4.550  13.229 -0.4835 -1.1284  0.7904
 1498TIP3   OH225908   4.032   3.123  11.031  0.4037  0.4858 -0.4084
 1498TIP3    H125909   3.957   3.065  11.020  0.8746 -0.3350  0.5491
 1498TIP3    H225910   4.017   3.166  11.115  0.4590  1.1442 -0.7327
 1499TIP3   OH225911   0.078   1.299  14.382  0.5454  0.5350 -0.0028
 1499TIP3    H125912   0.140   1.310  14.453 -1.0552  0.2836  1.4646
 1499TIP3    H225913   0.120   1.237  14.322  1.7124  0.4102  0.9423
 1500TIP3   OH225914   3.261   0.895   3.853  0.4132  0.2149  0.5183
 1500TIP3    H125915   3.237   0.958   3.785  1.5450 -0.8651 -0.9189
 1500TIP3    H225916   3.330   0.939   3.902  0.6264  0.4321  0.0321
 1501TIP3   OH225917   0.566   2.460   0.940 -0.3722 -0.1185  0.0351
 1501TIP3    H125918   0.635   2.395   0.924  0.8627  1.0751  0.4890
 1501TIP3    H225919   0.540   2.445   1.030 -0.3420 -0.2238  0.0265
 1502TIP3   OH225920   5.133   0.082   3.692  0.1213 -0.9187 -0.1464
 1502TIP3    H125921   5.062   0.105   3.752  0.9426  0.0408  0.4804
 1502TIP3    H225922   5.115  -0.008   3.666 -0.7756 -1.0180  0.7874
 1503TIP3   OH225923   4.150   6.399   2.102 -0.2709  0.3734 -0.2914
 1503TIP3    H125924   4.079   6.375   2.042 -0.8564 -1.2022  0.9992
 1503TIP3    H225925   4.178   6.486   2.073 -3.3890  1.4646 -0.2022
 1504TIP3   OH225926   4.261   0.906  14.305  0.5320  0.0227  0.3306
 1504TIP3    H125927   4.196   0.886  14.238  0.7693  1.5196 -0.3574
 1504TIP3    H225928   4.257   1.001  14.315  1.6939 -0.0107  1.2220
 1505TIP3   OH225929   6.051   4.430  14.534  0.9009 -0.3632  0.2528
 1505TIP3    H125930   6.091   4.347  14.511  0.2769 -1.0260  1.5182
 1505TIP3    H225931   6.060   4.436  14.629  0.6800  0.8668  0.2049
 1506TIP3   OH225932   2.539   1.682   1.080  0.0573  0.1896 -0.0982
 1506TIP3    H125933   2.557   1.706   1.171  0.9542 -1.9575  0.3288
 1506TIP3    H225934   2.607   1.727   1.029  0.7563 -0.1810  0.5012
 1507TIP3   OH225935   3.227   3.998  16.562  0.5412 -0.0429  0.1343
 1507TIP3    H125936   3.193   4.037  16.643  1.9583  0.3070  0.5910
 1507TIP3    H225937   3.308   3.954  16.589  1.3472  0.5888 -1.1887
 1508TIP3   OH225938   4.077   6.491   3.548 -0.5219  0.1212  0.1553
 1508TIP3    H125939   4.112   6.502   3.460  0.9095  0.5135  0.7516
 1508TIP3    H225940   4.010   6.423   3.539 -1.5789  1.3564 -1.5328
 1509TIP3   OH225941   6.655   6.393  13.347 -0.4145 -1.3366 -0.1949
 1509TIP3    H125942   6.725   6.347  13.393 -0.3374 -0.4132  0.6424
 1509TIP3    H225943   6.625   6.459  13.410 -0.8779 -0.5987 -1.1800
 1510TIP3   OH225944   0.107   4.944  12.253 -0.1067 -0.0870  0.0230
 1510TIP3    H125945   0.182   4.891  12.281 -0.6801 -0.2402  1.3278
 1510TIP3    H225946   0.054   4.885  12.199  1.2011  0.3179 -1.7340
 1511TIP3   OH225947   5.524   2.230   5.301  0.2029  0.4388  0.1517
 1511TIP3    H125948   5.527   2.307   5.244  0.2220  1.2096  1.1782
 1511TIP3    H225949   5.495   2.159   5.244  2.4539  0.7033 -1.3633
 1512TIP3   OH225950   2.037   2.112   4.747 -0.0567 -0.0088 -0.0293
 1512TIP3    H125951   2.110   2.150   4.697 -0.8943 -1.3539 -2.3550
 1512TIP3    H225952   1.977   2.186   4.761  1.1520  0.8302  0.8123
 1513TIP3   OH225953   2.074   1.702  15.435  0.1150 -0.4435 -0.3520
 1513TIP3    H125954   2.147   1.664  15.483  0.8618  0.9106 -0.3917
 1513TIP3    H225955   2.000   1.645  15.455  0.7996 -0.8581  1.0583
 1514TIP3   OH225956   4.066   1.734  15.670 -0.1220 -0.5141 -0.1549
 1514TIP3    H125957   4.010   1.812  15.671  0.4770 -0.0459 -1.7090
 1514TIP3    H225958   4.112   1.737  15.754  2.5137  2.7536 -1.5840
 1515TIP3   OH225959   0.061   5.275   2.977 -0.0238  0.1778  0.0988
 1515TIP3    H125960   0.007   5.251   3.052  2.2778  0.8212  2.0246
 1515TIP3    H225961   0.067   5.371   2.982 -0.1664  0.2531 -1.1255
 1516TIP3   OH225962   0.334   5.852  15.792  0.3864 -0.0670  0.6863
 1516TIP3    H125963   0.335   5.934  15.840 -0.2416  1.0940 -1.2307
 1516TIP3    H225964   0.275   5.795  15.842 -1.4133  1.6053  0.5165
 1517TIP3   OH225965   0.819   5.225  12.124 -0.2056 -0.1913  0.7028
 1517TIP3    H125966   0.891   5.282  12.151 -1.3182  1.3003  0.5619
 1517TIP3    H225967   0.790   5.184  12.205 -0.4485  0.6832  1.0673
 1518TIP3   OH225968   0.510   4.060   5.147  0.4722  0.0291  0.2297
 1518TIP3    H125969   0.480   4.150   5.139  0.6318  0.0199 -0.4477
 1518TIP3    H225970   0.431   4.010   5.170  0.0775  0.1008 -0.9276
 1519TIP3   OH225971   4.455   0.510  12.492 -0.3565  0.0450 -0.1128
 1519TIP3    H125972   4.543   0.472  12.496  0.8146  2.4886 -2.0204
 1519TIP3    H225973   4.416   0.489  12.578  2.6692  0.4075  1.3893
 1520TIP3   OH225974   6.201   0.547  13.165 -0.1609  0.1982 -0.2877
 1520TIP3    H125975   6.223   0.639  13.181  0.2410  0.0871 -0.1811
 1520TIP3    H225976   6.189   0.510  13.252 -2.3757  0.6334 -0.3894
 1521TIP3   OH225977   3.299   0.507  12.496  0.2349  0.2299  1.0490
 1521TIP3    H125978   3.357   0.567  12.544  1.3587 -1.4357  1.8244
 1521TIP3    H225979   3.310   0.423  12.540 -0.5736 -0.7913 -0.6495
 1522TIP3   OH225980   2.508   1.912   4.773  0.2292  0.5900  0.1554
 1522TIP3    H125981   2.554   1.956   4.844 -0.2936  1.0200  0.2339
 1522TIP3    H225982   2.523   1.819   4.787  0.6887  0.7073  0.4400
 1523TIP3   OH225983   5.673   1.496   4.923  0.0272 -1.1369  0.8030
 1523TIP3    H125984   5.642   1.579   4.885 -0.3402 -1.1608  1.0442
 1523TIP3    H225985   5.601   1.435   4.909  0.8442 -1.7929 -0.6075
 1524TIP3   OH225986   2.545   3.945   2.104  0.5876  0.1718  0.6133
 1524TIP3    H125987   2.489   4.023   2.104 -0.5963 -0.6275 -2.2598
 1524TIP3    H225988   2.490   3.877   2.142  0.5487  0.0040  0.2518
 1525TIP3   OH225989   5.744   4.804   1.520  0.2783  0.7264 -0.6320
 1525TIP3    H125990   5.782   4.733   1.571  0.2974  1.2808  0.1398
 1525TIP3    H225991   5.687   4.761   1.457  0.5434  0.0086 -0.3822
 1526TIP3   OH225992   1.137   1.032  12.516 -0.0535 -0.1746 -0.1408
 1526TIP3    H125993   1.193   1.075  12.580 -0.3251 -0.4509  0.2835
 1526TIP3    H225994   1.093   1.104  12.470  0.2441  0.0251 -0.1095
 1527TIP3   OH225995   1.144   4.019   3.484 -0.4630 -0.1703  0.0988
 1527TIP3    H125996   1.074   4.029   3.548 -0.4371  0.5970  0.0047
 1527TIP3    H225997   1.169   3.927   3.490  0.0241  0.0624  1.6873
 1528TIP3   OH225998   0.638   4.397   0.944 -0.9417  0.2221 -0.6550
 1528TIP3    H125999   0.721   4.351   0.940  0.0934  2.1453 -2.2319
 1528TIP3    H226000   0.571   4.330   0.930  0.5321 -0.7495 -3.1494
 1529TIP3   OH226001   5.675   0.482  11.493 -0.5375  0.3972  0.3850
 1529TIP3    H126002   5.598   0.426  11.502  0.0475 -0.5570 -0.3951
 1529TIP3    H226003   5.722   0.473  11.576  0.7810 -2.1649 -0.5735
 1530TIP3   OH226004   1.950   2.201  15.189 -0.1592  0.2579  0.0246
 1530TIP3    H126005   1.900   2.238  15.116  1.1572  0.6647 -0.6935
 1530TIP3    H226006   2.006   2.273  15.218  1.7445 -0.8726 -0.7709
 1531TIP3   OH226007   0.702   1.691  14.722 -0.4488  0.0109 -0.3031
 1531TIP3    H126008   0.776   1.723  14.774 -0.6309  0.6391 -0.4307
 1531TIP3    H226009   0.626   1.702  14.779 -0.3533 -1.3143  0.1060
 1532TIP3   OH226010   5.355   5.630   2.415  0.2739 -0.0113 -0.1930
 1532TIP3    H126011   5.319   5.600   2.498  0.7150  1.0030  0.3603
 1532TIP3    H226012   5.279   5.655   2.363  0.0427 -0.0809  0.1151
 1533TIP3   OH226013   3.432   5.921  11.480  0.1110 -0.0509 -0.1392
 1533TIP3    H126014   3.457   5.964  11.562  1.2464  2.3384 -1.6648
 1533TIP3    H226015   3.509   5.871  11.454  0.4479  0.7421 -0.6976
 1534TIP3   OH226016   0.572   1.579  14.030  0.1776 -0.4630 -0.0352
 1534TIP3    H126017   0.634   1.507  14.030 -1.2983 -1.7505 -0.8302
 1534TIP3    H226018   0.486   1.538  14.035 -0.7160  1.2110 -0.9684
 1535TIP3   OH226019   1.874   6.647  14.449 -0.7561 -0.1663 -0.1865
 1535TIP3    H126020   1.918   6.568  14.417  3.7742  2.5243 -0.9546
 1535TIP3    H226021   1.814   6.671  14.379  1.8970  0.1183 -2.4351
 1536TIP3   OH226022   3.685   1.592   3.832 -0.1308  0.3334 -0.1128
 1536TIP3    H126023   3.704   1.597   3.739  1.2551 -2.2505  0.0168
 1536TIP3    H226024   3.590   1.583   3.836  0.0002 -1.8446 -1.3805
 1537TIP3   OH226025   5.736   5.070   5.956  0.4122 -0.3180  0.0273
 1537TIP3    H126026   5.788   5.020   6.019 -1.0226  1.0335  2.3329
 1537TIP3    H226027   5.647   5.038   5.967  0.2550 -0.5742 -1.8592
 1538TIP3   OH226028   5.169   5.127   3.768  0.4524  0.3602  0.5675
 1538TIP3    H126029   5.113   5.051   3.784 -0.1879  0.7514  0.1790
 1538TIP3    H226030   5.242   5.116   3.829  1.1117 -1.3261 -0.4617
 1539TIP3   OH226031   4.684   2.099  14.809  0.0466  0.1686 -0.0877
 1539TIP3    H126032   4.642   2.181  14.833  1.0044  0.4413  0.7224
 1539TIP3    H226033   4.612   2.041  14.784 -0.6438  1.1888 -0.4676
 1540TIP3   OH226034   1.039   1.384  12.660  0.4628  0.1846 -0.0953
 1540TIP3    H126035   1.054   1.457  12.720  0.5736 -0.2295  0.3773
 1540TIP3    H226036   1.074   1.415  12.576  0.8597  0.5273  0.1945
 1541TIP3   OH226037   2.078   6.042   3.495 -0.0439  0.3233  0.1591
 1541TIP3    H126038   2.167   6.040   3.530 -0.3024 -0.0516  0.7931
 1541TIP3    H226039   2.088   6.079   3.407  0.7496  0.1928  0.1909
 1542TIP3   OH226040   5.332   6.683  16.097  0.6214  0.1962 -0.2414
 1542TIP3    H126041   5.294   6.606  16.054  1.2474  0.2009 -0.8177
 1542TIP3    H226042   5.332   6.661  16.190  2.2877 -1.1845 -0.5384
 1543TIP3   OH226043   6.589   0.243   5.205 -0.1816  0.4717 -0.3887
 1543TIP3    H126044   6.510   0.284   5.171 -0.3386  0.2751 -0.2603
 1543TIP3    H226045   6.565   0.151   5.219 -0.4950  0.8080  1.4199
 1544TIP3   OH226046   5.066   3.682  14.218  0.1212  0.0481  0.2613
 1544TIP3    H126047   4.976   3.662  14.244 -0.5190  2.0951 -0.2544
 1544TIP3    H226048   5.092   3.609  14.162 -1.4438 -0.2695 -0.0702
 1545TIP3   OH226049   5.099   2.415   1.729  0.5121  0.3286  0.2461
 1545TIP3    H126050   5.172   2.459   1.687  1.1099  0.0521  0.9883
 1545TIP3    H226051   5.118   2.321   1.720 -0.2123  0.2321 -0.3737
 1546TIP3   OH226052   1.164   4.876  11.703 -0.0823  0.3986  0.3232
 1546TIP3    H126053   1.069   4.881  11.695 -0.2639 -0.4348  1.7575
 1546TIP3    H226054   1.187   4.793  11.660 -0.0883  0.2392  0.6272
 1547TIP3   OH226055   3.154   0.433  15.492  0.7196 -0.3886 -0.5115
 1547TIP3    H126056   3.246   0.455  15.507  0.7854 -0.4570 -0.8206
 1547TIP3    H226057   3.133   0.372  15.563  1.2425 -1.2940 -1.1227
 1548TIP3   OH226058   2.822   1.073  16.805  0.1974 -0.7391 -0.0652
 1548TIP3    H126059   2.805   1.140  16.871  1.4623  0.6109 -1.0851
 1548TIP3    H226060   2.915   1.082  16.784 -0.0796 -1.4713 -1.6884
 1549TIP3   OH226061   1.305   2.188   3.773  0.5200 -0.0590  1.0020
 1549TIP3    H126062   1.228   2.238   3.746  0.8986 -0.6130 -1.1844
 1549TIP3    H226063   1.357   2.251   3.824  1.0279  1.8559 -1.7603
 1550TIP3   OH226064   3.509   1.564  12.882 -0.2191  0.6602 -0.1461
 1550TIP3    H126065   3.597   1.576  12.845 -0.0255 -0.0848  0.0504
 1550TIP3    H226066   3.463   1.511  12.817 -0.0766 -0.1233  0.3782
 1551TIP3   OH226067   2.792   4.091  15.718 -0.4939  0.0758  0.5880
 1551TIP3    H126068   2.815   4.141  15.639  0.9952  1.0457  1.6049
 1551TIP3    H226069   2.875   4.081  15.765 -1.6243  1.0471  2.8954
 1552TIP3   OH226070   3.423   3.160   4.128 -0.2190 -0.1320  0.0933
 1552TIP3    H126071   3.420   3.171   4.033 -1.7757  0.3282  0.1839
 1552TIP3    H226072   3.427   3.249   4.162 -0.5515 -0.2731  0.4900
 1553TIP3   OH226073   2.614   0.382  16.077  0.3279 -0.5592  0.1845
 1553TIP3    H126074   2.529   0.382  16.033 -0.4029 -2.3932  1.5294
 1553TIP3    H226075   2.674   0.340  16.015 -0.2258 -1.1912  0.0747
 1554TIP3   OH226076   2.047   5.793  16.419  0.2870 -0.5704 -0.0186
 1554TIP3    H126077   2.016   5.884  16.423  1.0180 -0.3427  0.4484
 1554TIP3    H226078   2.026   5.765  16.330  0.1647  0.0954 -0.2050
 1555TIP3   OH226079   3.688   0.650  16.607 -0.1519  0.9019 -0.8283
 1555TIP3    H126080   3.779   0.644  16.635 -0.5463 -0.5566  0.1807
 1555TIP3    H226081   3.676   0.578  16.545 -0.3624  1.6969 -1.7336
 1556TIP3   OH226082   1.913   4.562  15.721  0.4328  0.4484  0.2383
 1556TIP3    H126083   1.885   4.518  15.801 -0.3575 -0.4055 -0.5023
 1556TIP3    H226084   1.998   4.600  15.743 -0.3196  1.2568  1.8525
 1557TIP3   OH226085   1.374   6.448  14.928 -0.2578 -0.0119  0.4024
 1557TIP3    H126086   1.362   6.533  14.885 -2.0185 -0.6061 -0.3098
 1557TIP3    H226087   1.290   6.431  14.971 -0.0088 -1.5241  0.3038
 1558TIP3   OH226088   4.189   3.272   1.569 -0.1149  0.0605  0.2726
 1558TIP3    H126089   4.263   3.328   1.545  0.7443 -1.2162 -0.1031
 1558TIP3    H226090   4.130   3.276   1.494  0.8742 -1.0804 -0.5826
 1559TIP3   OH226091   3.016   5.626  14.562 -0.3443 -0.3141 -0.1549
 1559TIP3    H126092   3.041   5.535  14.578 -1.6813 -0.5230  0.7684
 1559TIP3    H226093   2.924   5.630  14.586 -0.4178  1.1732 -0.6732
 1560TIP3   OH226094   3.903   2.930   1.069 -0.5823  0.0825 -0.2277
 1560TIP3    H126095   3.876   2.856   1.015 -0.6499 -2.6440  3.3551
 1560TIP3    H226096   3.968   2.894   1.130 -0.0464  3.1420  1.1590
 1561TIP3   OH226097   3.713   5.639   6.521  0.0970 -0.0297 -0.0864
 1561TIP3    H126098   3.734   5.727   6.488  1.8182 -0.1909  0.5238
 1561TIP3    H226099   3.728   5.582   6.445  0.1153  0.0688 -0.1580
 1562TIP3   OH226100   4.045   4.424   3.162  0.6593  0.0034  0.3591
 1562TIP3    H126101   4.062   4.340   3.121  2.5070  0.4696  0.1486
 1562TIP3    H226102   4.124   4.444   3.212 -0.9238  0.1732  2.9249
 1563TIP3   OH226103   2.182   1.429  12.452 -0.1657 -0.5314 -0.4070
 1563TIP3    H126104   2.095   1.390  12.445  0.3859 -1.6726 -1.1908
 1563TIP3    H226105   2.242   1.354  12.446  0.8424  0.1675  0.8751
 1564TIP3   OH226106   3.892   2.241  16.083 -0.5658 -0.3343 -0.1210
 1564TIP3    H126107   3.816   2.203  16.126 -1.6636  3.5085  1.5901
 1564TIP3    H226108   3.856   2.309  16.026  1.4386  0.1781 -0.8259
 1565TIP3   OH226109   5.388   2.787   0.998  0.7060  0.8027 -0.3869
 1565TIP3    H126110   5.386   2.706   1.049  1.9181  1.4876  0.7991
 1565TIP3    H226111   5.297   2.803   0.975  0.3368 -0.3922  0.1880
 1566TIP3   OH226112   4.002   1.697   4.255 -0.3813 -0.6024 -0.4285
 1566TIP3    H126113   3.927   1.692   4.315  0.5428  0.0309  0.7846
 1566TIP3    H226114   3.965   1.672   4.170 -1.7907 -1.1243  0.3113
 1567TIP3   OH226115   1.723   2.808   0.342  0.0352  0.4202 -0.2299
 1567TIP3    H126116   1.780   2.873   0.383  0.6959  0.3621 -1.0447
 1567TIP3    H226117   1.681   2.856   0.270 -0.4679  0.2938 -0.0226
 1568TIP3   OH226118   1.199   0.845   4.937  0.0429  0.3493  0.8335
 1568TIP3    H126119   1.199   0.872   4.845 -0.0501 -0.7322  0.5145
 1568TIP3    H226120   1.227   0.924   4.985  0.2101  0.8804 -0.1252
 1569TIP3   OH226121   1.155   0.781  13.951  0.0697 -0.0838  0.3334
 1569TIP3    H126122   1.172   0.723  14.025  0.5264 -0.8449 -0.3563
 1569TIP3    H226123   1.069   0.819  13.969  0.7902  0.8354  1.9512
 1570TIP3   OH226124   3.639   4.866   0.521  0.6458  0.0918  0.2060
 1570TIP3    H126125   3.659   4.824   0.604 -1.6397  0.5522  1.0124
 1570TIP3    H226126   3.607   4.953   0.545  2.1472  1.0922 -1.2824
 1571TIP3   OH226127   6.227   1.739  14.380 -0.1826  0.0231  1.1700
 1571TIP3    H126128   6.259   1.649  14.380  0.9445  0.4143  1.6183
 1571TIP3    H226129   6.133   1.731  14.397 -0.2845 -1.1205  0.1318
 1572TIP3   OH226130   3.366   5.640   2.728  0.0330  0.0131 -0.7232
 1572TIP3    H126131   3.459   5.626   2.741  0.0928 -0.8489 -2.0176
 1572TIP3    H226132   3.361   5.703   2.655 -0.3726  1.5321  0.5755
 1573TIP3   OH226133   1.931   2.941  15.520  0.1695 -0.1359 -0.6509
 1573TIP3    H126134   1.945   3.030  15.550  2.0564 -1.0824  1.4016
 1573TIP3    H226135   1.983   2.887  15.580 -1.8299 -2.6992 -1.1391
 1574TIP3   OH226136   1.713   5.894  15.702  0.2280  0.0123  0.5138
 1574TIP3    H126137   1.732   5.963  15.765  0.7680  1.0941 -0.8029
 1574TIP3    H226138   1.791   5.839  15.703 -0.2086 -0.5942  1.5775
 1575TIP3   OH226139   2.876   2.000   6.110  0.0558  0.6373 -0.3378
 1575TIP3    H126140   2.864   1.951   6.192  1.2591  0.3591 -0.3115
 1575TIP3    H226141   2.927   2.077   6.136  1.4269 -0.0339 -1.0064
 1576TIP3   OH226142   2.148   6.454  12.663 -0.0415 -0.2161 -0.0039
 1576TIP3    H126143   2.088   6.460  12.588 -0.6736  1.7422  0.6318
 1576TIP3    H226144   2.228   6.496  12.632  0.2335 -0.8055 -0.0949
 1577TIP3   OH226145   4.526   5.680  16.434  0.0009 -0.0658 -0.3437
 1577TIP3    H126146   4.530   5.681  16.339 -0.3163 -0.2868 -0.3642
 1577TIP3    H226147   4.616   5.692  16.463 -0.3814  4.0000 -0.6229
 1578TIP3   OH226148   4.888   4.613  13.513 -0.6137 -0.3279  0.1986
 1578TIP3    H126149   4.819   4.550  13.535  0.7511 -1.7413  0.4245
 1578TIP3    H226150   4.959   4.595  13.575 -0.0153  1.1306 -0.0306
 1579TIP3   OH226151   6.163   2.456  10.391 -0.4475  0.7012  0.1582
 1579TIP3    H126152   6.113   2.522  10.439  0.7028  0.3947  1.8329
 1579TIP3    H226153   6.247   2.451  10.437  1.6826  2.1481 -3.3859
 1580TIP3   OH226154   2.610   1.655   5.399 -0.1598  0.2339 -0.1286
 1580TIP3    H126155   2.639   1.727   5.343 -0.7572  0.6188  0.0514
 1580TIP3    H226156   2.515   1.660   5.398 -0.2030 -0.4028  0.0880
 1581TIP3   OH226157   3.908   5.243   4.472 -0.5151  0.0507  0.4136
 1581TIP3    H126158   3.943   5.179   4.535  0.0285  1.1104  1.2202
 1581TIP3    H226159   3.817   5.217   4.458 -0.2466 -1.0034  0.5865
 1582TIP3   OH226160   3.784   6.398  17.124  0.4653  0.5841 -0.5733
 1582TIP3    H126161   3.862   6.427  17.076  0.1240  1.4914 -0.5801
 1582TIP3    H226162   3.767   6.309  17.090  1.4578  0.4035 -0.6122
 1583TIP3   OH226163   0.718   6.421  14.297  0.0285  0.6392  0.6821
 1583TIP3    H126164   0.648   6.356  14.287 -0.5332  0.9727  2.3188
 1583TIP3    H226165   0.680   6.502  14.265  0.5536  0.3003 -0.8626
 1584TIP3   OH226166   4.558   1.216   5.007 -0.3210 -0.4678 -0.0051
 1584TIP3    H126167   4.585   1.137   4.960 -1.0102  0.3831 -1.8679
 1584TIP3    H226168   4.486   1.251   4.956 -0.5620  0.9440  1.2622
 1585TIP3   OH226169   2.351   5.416  16.101 -0.2862 -0.1370  0.2604
 1585TIP3    H126170   2.257   5.404  16.115 -0.1013  0.4972  2.1325
 1585TIP3    H226171   2.384   5.448  16.185  1.4014  0.8430 -0.7557
 1586TIP3   OH226172   5.291   3.156   0.115  0.1729  0.4032  0.1034
 1586TIP3    H126173   5.300   3.237   0.166 -0.3257 -0.5425  1.7293
 1586TIP3    H226174   5.371   3.107   0.132 -1.5128 -1.5358  2.9764
 1587TIP3   OH226175   0.228   5.518   2.055 -0.4094  0.4096  0.4158
 1587TIP3    H126176   0.280   5.483   2.127  1.6063  2.0622 -0.1824
 1587TIP3    H226177   0.228   5.613   2.068 -0.8706  0.6623 -1.1954
 1588TIP3   OH226178   6.312   2.277   0.804  0.1228  0.0717 -0.2552
 1588TIP3    H126179   6.227   2.271   0.849 -1.1482 -0.5598 -2.6626
 1588TIP3    H226180   6.301   2.348   0.741  0.8613 -1.0526 -1.6695
 1589TIP3   OH226181   2.493   4.788  16.544 -0.6367  0.2163 -0.1723
 1589TIP3    H126182   2.398   4.779  16.539 -0.4516 -2.8265  1.0417
 1589TIP3    H226183   2.523   4.782  16.453 -1.6885  2.7413 -0.7176
 1590TIP3   OH226184   0.519   5.681  13.936 -0.0139  0.1933 -0.5353
 1590TIP3    H126185   0.533   5.722  13.851 -0.1535  1.1670 -0.1073
 1590TIP3    H226186   0.603   5.642  13.958  0.4359  1.1907 -0.4744
 1591TIP3   OH226187   6.113   0.593   0.726 -0.3952  0.3501  0.4750
 1591TIP3    H126188   6.138   0.501   0.740 -0.5183  0.4362  1.3006
 1591TIP3    H226189   6.141   0.612   0.637 -0.7149 -0.6070  0.1602
 1592TIP3   OH226190   1.766   3.530   2.590  0.3799 -0.1269  0.0670
 1592TIP3    H126191   1.723   3.507   2.508  0.4381  0.8583 -0.2395
 1592TIP3    H226192   1.804   3.616   2.574  1.1397 -0.3135  0.8437
 1593TIP3   OH226193   6.531   6.568   4.019 -0.0753  0.0311 -0.4988
 1593TIP3    H126194   6.488   6.509   3.958  1.4335 -2.5197  0.8092
 1593TIP3    H226195   6.624   6.550   4.008  0.2347 -0.2641  2.3106
 1594TIP3   OH226196   3.487   4.488   0.600  0.8316  0.0297  0.3274
 1594TIP3    H126197   3.509   4.526   0.515 -1.9396 -0.6916 -0.7373
 1594TIP3    H226198   3.440   4.558   0.646  0.5662 -0.2644  0.5004
 1595TIP3   OH226199   6.780   2.538  16.803  0.3006  0.3924  0.4629
 1595TIP3    H126200   6.825   2.622  16.799  0.1342  0.4456 -0.6474
 1595TIP3    H226201   6.801   2.503  16.889 -0.2353  1.8960  1.2251
 1596TIP3   OH226202   2.453   6.476  17.143 -0.2175 -0.2928 -0.3902
 1596TIP3    H126203   2.472   6.561  17.103  1.2785 -0.2838  0.3098
 1596TIP3    H226204   2.516   6.416  17.103 -0.9580 -0.9887 -0.5300
 1597TIP3   OH226205   3.792   4.968  13.560 -0.1780  0.7331  0.1872
 1597TIP3    H126206   3.828   4.946  13.474 -5.3881 -0.7167 -1.8309
 1597TIP3    H226207   3.836   4.909  13.620  2.3310  0.5581 -1.7242
 1598TIP3   OH226208   0.595   2.794  15.432 -0.0956  0.6219  0.0294
 1598TIP3    H126209   0.516   2.755  15.470 -0.2673 -0.3347 -1.2610
 1598TIP3    H226210   0.590   2.887  15.455 -1.4602  0.5220  0.1673
 1599TIP3   OH226211   5.960   5.646  16.792 -0.3939 -0.5367  0.2551
 1599TIP3    H126212   5.968   5.725  16.845 -0.2739 -0.0070 -0.5479
 1599TIP3    H226213   5.872   5.650  16.755 -0.6021 -1.0778  0.6810
 1600TIP3   OH226214   3.003   2.792  13.690 -0.0504 -0.0599  0.0136
 1600TIP3    H126215   2.949   2.766  13.764  0.2318 -0.3224  0.1291
 1600TIP3    H226216   3.002   2.888  13.691 -0.7663 -0.0593 -0.1700
 1601TIP3   OH226217   3.774   6.548  11.007  0.3912 -0.4884 -0.1565
 1601TIP3    H126218   3.769   6.637  11.042 -0.4163 -0.0553 -1.3413
 1601TIP3    H226219   3.683   6.526  10.984  0.6659 -1.4078 -0.3821
 1602TIP3   OH226220   5.413   0.051  10.627  0.5327  0.2385 -0.3884
 1602TIP3    H126221   5.492   0.033  10.678 -0.2460 -1.4903  0.2553
 1602TIP3    H226222   5.431   0.134  10.583  1.8416  0.9734  1.4678
 1603TIP3   OH226223   6.726   4.985  14.085 -0.1732 -0.0329  0.1676
 1603TIP3    H126224   6.766   4.984  14.172  1.6015  0.1831 -0.6145
 1603TIP3    H226225   6.717   4.893  14.062 -0.0102 -0.0837  0.3051
 1604TIP3   OH226226   1.066   6.712  15.851  0.1415  0.2187  0.3840
 1604TIP3    H126227   1.125   6.785  15.833  1.5175 -0.6669  1.1376
 1604TIP3    H226228   1.097   6.642  15.793 -1.0946  0.1900 -0.2617
 1605TIP3   OH226229   2.882   5.951   5.277 -0.3651  0.4629  0.0595
 1605TIP3    H126230   2.821   6.017   5.310  0.6748 -0.2789  3.6884
 1605TIP3    H226231   2.962   5.965   5.327  0.7123 -1.9614 -0.8986
 1606TIP3   OH226232   4.708   0.868  13.082  0.4810 -0.3012  0.0692
 1606TIP3    H126233   4.701   0.958  13.112 -0.5335 -0.3454  0.0082
 1606TIP3    H226234   4.747   0.874  12.995 -0.0444  0.1207 -0.1384
 1607TIP3   OH226235   2.375   1.055  10.250  0.2337  0.4758 -0.6571
 1607TIP3    H126236   2.332   1.133  10.286  0.2063  0.3599 -0.4411
 1607TIP3    H226237   2.308   0.988  10.250  0.2799  0.4293 -0.7719
 1608TIP3   OH226238   6.735   6.051   4.314  0.6464 -0.0908  0.7629
 1608TIP3    H126239   6.673   6.025   4.246  1.4017  1.1114 -0.4141
 1608TIP3    H226240   6.702   6.011   4.394 -0.4690 -1.2121 -0.2467
 1609TIP3   OH226241   1.859   2.791   4.252 -0.0645  0.3352  0.0734
 1609TIP3    H126242   1.891   2.802   4.163  1.1364  1.1763  0.5969
 1609TIP3    H226243   1.826   2.701   4.255  0.7058  0.0089 -0.9545
 1610TIP3   OH226244   3.594   2.026   1.365 -0.6303 -0.2293 -0.1595
 1610TIP3    H126245   3.566   2.117   1.354  0.6534  0.0298 -1.4712
 1610TIP3    H226246   3.679   2.022   1.321 -0.9411 -2.2051 -0.6144
 1611TIP3   OH226247   0.015   1.026  15.989 -0.9218 -0.1789 -0.2780
 1611TIP3    H126248   0.029   1.042  15.895  2.1091 -0.7135  0.0510
 1611TIP3    H226249   0.049   1.104  16.032  0.6436 -1.3044  0.5439
 1612TIP3   OH226250   2.543   2.654  13.562  0.1096 -0.7057  0.4558
 1612TIP3    H126251   2.536   2.689  13.651 -2.1926  0.5248 -0.1645
 1612TIP3    H226252   2.583   2.568  13.573  0.8019 -0.1429  2.5788
 1613TIP3   OH226253   3.102   0.962   5.396  0.0380 -0.0202 -0.0845
 1613TIP3    H126254   3.147   0.902   5.455 -0.3609  0.3431  0.5946
 1613TIP3    H226255   3.051   1.020   5.454  0.7992  1.2869 -0.7022
 1614TIP3   OH226256   3.967   2.128  14.657 -0.3674  0.2778 -0.0428
 1614TIP3    H126257   3.961   2.218  14.689  0.9263  0.3055  0.1450
 1614TIP3    H226258   3.919   2.128  14.574  2.1557  1.8542 -1.5500
 1615TIP3   OH226259   6.186   3.067  16.521  0.4799 -0.4796  0.5349
 1615TIP3    H126260   6.095   3.055  16.496  0.3073  0.9538  0.4001
 1615TIP3    H226261   6.189   3.042  16.613 -0.4862  1.3038  1.0817
 1616TIP3   OH226262   4.803   6.393  13.871  0.3308 -0.5485 -0.1173
 1616TIP3    H126263   4.779   6.390  13.778  2.8878 -3.3723 -0.7769
 1616TIP3    H226264   4.823   6.485  13.887  0.2010 -0.0688 -2.5012
 1617TIP3   OH226265   4.242   3.173  13.274  0.0704 -0.3875 -0.8412
 1617TIP3    H126266   4.272   3.130  13.354  2.4702  1.5546 -0.6348
 1617TIP3    H226267   4.149   3.188  13.288  0.7107  1.1296  2.1965
 1618TIP3   OH226268   1.042   1.604   2.329 -0.0028  0.1983 -0.1381
 1618TIP3    H126269   1.013   1.691   2.302 -0.7359 -0.8005 -2.8481
 1618TIP3    H226270   1.135   1.602   2.310 -0.2123  0.0296 -1.1868
 1619TIP3   OH226271   2.584   3.175   1.740 -0.1002  0.2340 -0.0184
 1619TIP3    H126272   2.660   3.204   1.689 -1.0653  0.3932 -1.3779
 1619TIP3    H226273   2.511   3.227   1.707 -0.8806 -0.1929  1.0126
 1620TIP3   OH226274   4.689   6.259  16.497 -0.2770 -0.9831  0.0072
 1620TIP3    H126275   4.721   6.324  16.560  0.3963 -1.2263 -0.0854
 1620TIP3    H226276   4.599   6.286  16.479 -0.1235 -0.2932  0.2566
 1621TIP3   OH226277   4.884   6.404   2.601 -0.4415 -0.0135 -0.3725
 1621TIP3    H126278   4.931   6.464   2.543  1.1744 -1.1225 -0.2388
 1621TIP3    H226279   4.952   6.370   2.660 -1.7854 -0.0586  1.1800
 1622TIP3   OH226280   6.255   0.384  15.921 -0.7433 -0.2527  0.5996
 1622TIP3    H126281   6.266   0.435  16.001 -0.5682 -1.1717  1.1688
 1622TIP3    H226282   6.309   0.431  15.856  0.7100 -0.5981  1.5228
 1623TIP3   OH226283   0.353   5.923   1.656  0.3029 -0.5955 -0.7660
 1623TIP3    H126284   0.273   5.971   1.637  0.4210 -0.7321 -1.6542
 1623TIP3    H226285   0.423   5.988   1.650  0.4149 -0.7820 -1.5112
 1624TIP3   OH226286   0.023   3.733   6.171 -0.2946  0.2924 -0.1266
 1624TIP3    H126287  -0.041   3.663   6.166 -0.4241  0.4094 -0.1066
 1624TIP3    H226288   0.016   3.766   6.261  1.8613 -1.6539  0.7930
 1625TIP3   OH226289   4.023   2.527   4.794 -0.0077  0.2133 -0.6471
 1625TIP3    H126290   4.018   2.433   4.808 -0.8362  0.1550 -1.2835
 1625TIP3    H226291   4.109   2.541   4.754  0.3583 -0.1979 -0.0040
 1626TIP3   OH226292   6.399   5.040   4.531  0.1566  0.4323 -0.7890
 1626TIP3    H126293   6.451   5.081   4.462 -1.0584 -1.6799 -3.0522
 1626TIP3    H226294   6.441   4.955   4.545 -0.1241  0.4896  0.4824
 1627TIP3   OH226295   5.472   1.197  16.053  0.4009 -0.0241  0.1247
 1627TIP3    H126296   5.498   1.113  16.014 -0.4739 -0.7001  0.9696
 1627TIP3    H226297   5.542   1.218  16.115  0.6144 -0.1378 -0.0797
 1628TIP3   OH226298   3.545   2.192  12.977  0.4517  0.1585  0.1792
 1628TIP3    H126299   3.636   2.215  12.992  0.5160  0.4393 -0.5918
 1628TIP3    H226300   3.515   2.256  12.912 -0.0934 -0.3689 -0.0918
 1629TIP3   OH226301   5.352   5.468  15.659 -0.4568  0.1702 -0.4156
 1629TIP3    H126302   5.302   5.436  15.584 -0.0954 -0.3102 -0.4571
 1629TIP3    H226303   5.438   5.425  15.650 -0.3290  0.3112  0.1288
 1630TIP3   OH226304   0.547   2.230  12.682 -0.1438  0.1917  0.1180
 1630TIP3    H126305   0.481   2.291  12.714 -1.4577 -1.3174  0.3554
 1630TIP3    H226306   0.617   2.234  12.746  0.2393  2.1945 -0.4042
 1631TIP3   OH226307   4.520   5.162  13.281 -0.4195  0.8804  0.0480
 1631TIP3    H126308   4.490   5.235  13.228 -0.9876 -0.3188 -1.3223
 1631TIP3    H226309   4.607   5.142  13.249  0.0001  1.3656  0.8670
 1632TIP3   OH226310   5.103   2.330   4.531  0.0670  0.5357 -0.0513
 1632TIP3    H126311   5.025   2.344   4.477 -0.1881  1.6118  0.5812
 1632TIP3    H226312   5.109   2.235   4.540  0.5057  0.2973 -2.5377
 1633TIP3   OH226313   3.750   4.509   5.378 -0.2093  0.1777 -0.3091
 1633TIP3    H126314   3.802   4.579   5.338  1.9606 -0.6531  0.9611
 1633TIP3    H226315   3.746   4.441   5.311 -0.2939  0.5482 -0.6827
 1634TIP3   OH226316   1.727   1.486  11.119  0.3447 -1.1366 -0.3911
 1634TIP3    H126317   1.741   1.567  11.069  1.0985 -0.6757  0.5476
 1634TIP3    H226318   1.804   1.432  11.099 -0.4762 -1.9080 -1.5348
 1635TIP3   OH226319   3.814   4.295   5.195 -0.3032  0.6669 -0.5041
 1635TIP3    H126320   3.873   4.271   5.124 -0.7589  0.1790 -0.7244
 1635TIP3    H226321   3.855   4.258   5.274  0.7045  2.0526 -0.3597
 1636TIP3   OH226322   3.456   2.181   2.161 -0.2445 -0.4036  0.1046
 1636TIP3    H126323   3.407   2.121   2.218  0.3839  0.0334  1.1006
 1636TIP3    H226324   3.398   2.193   2.085 -2.0941  0.8107  1.6713
 1637TIP3   OH226325   4.104   6.137  11.105 -0.0927 -0.2691 -0.1882
 1637TIP3    H126326   4.023   6.169  11.065 -0.3822 -0.5541  0.1673
 1637TIP3    H226327   4.173   6.168  11.047 -0.2839  1.9630  0.7235
 1638TIP3   OH226328   1.970   6.596   3.664 -0.5588  0.2553 -0.4752
 1638TIP3    H126329   1.997   6.590   3.756 -1.8822 -0.5663 -0.1383
 1638TIP3    H226330   1.876   6.582   3.666 -0.4092 -1.0348 -2.0965
 1639TIP3   OH226331   0.371   3.554  13.434  0.2982 -0.0210 -0.4346
 1639TIP3    H126332   0.457   3.592  13.416  0.8225 -1.2245 -0.5368
 1639TIP3    H226333   0.383   3.460  13.422 -0.8067 -0.2969  0.4523
 1640TIP3   OH226334   1.987   1.768   2.572  0.1106 -0.1771 -1.0450
 1640TIP3    H126335   2.003   1.815   2.654 -1.0610  2.1099 -2.0622
 1640TIP3    H226336   2.004   1.676   2.592  0.5192  0.4477  1.5639
 1641TIP3   OH226337   5.848   2.617   3.887 -0.0561  0.0667 -0.1411
 1641TIP3    H126338   5.884   2.699   3.853  1.6137 -0.1708  1.0132
 1641TIP3    H226339   5.869   2.552   3.820  1.7387 -0.0770  0.5320
 1642TIP3   OH226340   3.702   4.692   5.646  0.5712  0.0220 -0.1092
 1642TIP3    H126341   3.716   4.757   5.577  0.5917 -0.7121 -0.8027
 1642TIP3    H226342   3.611   4.703   5.671  0.7690  0.8116  0.2916
 1643TIP3   OH226343   0.901   1.416   2.896 -0.4224  0.3942  0.8838
 1643TIP3    H126344   0.874   1.492   2.845 -1.9779 -2.3141 -2.5246
 1643TIP3    H226345   0.820   1.383   2.936  0.2595  0.5476  2.4611
 1644TIP3   OH226346   5.806   3.920   0.641 -0.2663 -0.2546 -0.5952
 1644TIP3    H126347   5.748   3.882   0.575  0.0309 -0.3959 -0.7738
 1644TIP3    H226348   5.746   3.963   0.702 -0.5262  0.1342 -1.1158
 1645TIP3   OH226349   6.781   0.460   4.369 -0.2533 -0.1456  0.4871
 1645TIP3    H126350   6.835   0.481   4.293  0.5783 -0.9392  0.8426
 1645TIP3    H226351   6.724   0.389   4.339 -1.4689  1.0442 -0.0397
 1646TIP3   OH226352   0.533   0.762  13.621 -0.0700 -0.0531  0.1866
 1646TIP3    H126353   0.625   0.740  13.604 -0.4082 -1.1770 -0.2218
 1646TIP3    H226354   0.534   0.857  13.634  1.4513 -0.3280  2.2684
 1647TIP3   OH226355   2.659   6.084  13.715  0.0638 -0.2015 -0.1221
 1647TIP3    H126356   2.700   6.160  13.756 -1.2651  0.8984 -0.8024
 1647TIP3    H226357   2.632   6.029  13.788 -0.5036  0.7962  0.4294
 1648TIP3   OH226358   0.146   0.409   1.366  0.3056  0.6738  0.0414
 1648TIP3    H126359   0.078   0.387   1.303  1.1190  0.7762 -0.8803
 1648TIP3    H226360   0.168   0.326   1.407 -0.3896  0.6442  0.3674
 1649TIP3   OH226361   5.224   5.189   0.895  0.1435 -0.5637 -0.3791
 1649TIP3    H126362   5.285   5.173   0.967  0.1704 -1.3302 -0.5669
 1649TIP3    H226363   5.257   5.268   0.853  1.5366 -1.4722 -1.0248
 1650TIP3   OH226364   0.643   0.775   5.098  0.1193 -0.2112  0.0308
 1650TIP3    H126365   0.562   0.809   5.135  0.5594  0.1927  0.6380
 1650TIP3    H226366   0.616   0.701   5.044 -0.8561  1.0695 -1.2806
 1651TIP3   OH226367   1.553   0.569  14.492  0.2820 -0.9428  0.3953
 1651TIP3    H126368   1.526   0.526  14.572 -1.9189  0.5005  0.4956
 1651TIP3    H226369   1.647   0.585  14.502  0.1071 -1.1924  2.4743
 1652TIP3   OH226370   0.978   2.280  14.420 -0.4312  0.0760 -0.0271
 1652TIP3    H126371   0.932   2.326  14.349 -2.0005 -0.1335  0.8410
 1652TIP3    H226372   0.984   2.189  14.389 -0.1531  0.2039 -0.3556
 1653TIP3   OH226373   3.477   2.903  10.849 -0.5112 -0.5365 -0.0709
 1653TIP3    H126374   3.555   2.892  10.794 -1.7383 -0.0525 -1.9776
 1653TIP3    H226375   3.475   2.996  10.870  0.3832 -0.8525  1.4911
 1654TIP3   OH226376   0.362   4.249  16.565 -0.2758  0.0603 -0.2975
 1654TIP3    H126377   0.429   4.310  16.535 -0.5265  0.0150 -0.9773
 1654TIP3    H226378   0.334   4.203  16.485 -0.6414 -0.3882  0.0813
 1655TIP3   OH226379   0.058   2.186  17.000  0.2104 -0.5120  0.0112
 1655TIP3    H126380  -0.000   2.129  17.051  0.9145 -0.9762  0.3020
 1655TIP3    H226381   0.016   2.272  17.002  0.2773 -0.4977  1.4562
 1656TIP3   OH226382   5.218   3.422  15.801  0.3295  0.3875  0.3272
 1656TIP3    H126383   5.264   3.465  15.729  0.8134  0.0505  0.4327
 1656TIP3    H226384   5.132   3.402  15.766 -0.1488  2.0602  0.4931
 1657TIP3   OH226385   4.536   2.806  11.557 -0.3241 -0.2928 -0.1078
 1657TIP3    H126386   4.511   2.740  11.621  0.1376  0.5665  0.9720
 1657TIP3    H226387   4.607   2.765  11.507 -0.2176 -0.7165  0.3892
 1658TIP3   OH226388   4.230   1.404  13.094 -0.7809 -0.8368 -0.4600
 1658TIP3    H126389   4.324   1.389  13.083 -0.9216 -0.5880 -2.1628
 1658TIP3    H226390   4.220   1.498  13.081 -1.4175 -1.0402 -1.4661
 1659TIP3   OH226391   1.068   0.275   4.425  0.7851  0.0428 -0.9999
 1659TIP3    H126392   1.053   0.195   4.375  0.4726 -0.2737 -0.3969
 1659TIP3    H226393   1.128   0.249   4.495 -0.4598  0.0058  0.0676
 1660TIP3   OH226394   5.147   5.312  15.806  0.3499 -0.1328 -0.0893
 1660TIP3    H126395   5.194   5.351  15.732  0.9524 -0.5375  0.0740
 1660TIP3    H226396   5.192   5.229  15.822 -0.9278 -0.9073 -0.4422
 1661TIP3   OH226397   3.512   6.523  12.650 -0.2643 -0.1054  0.1721
 1661TIP3    H126398   3.597   6.547  12.688 -0.3220 -0.9815  0.8472
 1661TIP3    H226399   3.496   6.434  12.680 -2.0846  0.5436  1.2145
 1662TIP3   OH226400   3.451   3.803   4.238 -0.6626 -0.0868 -0.0739
 1662TIP3    H126401   3.390   3.845   4.178 -1.7061 -1.3571  0.0850
 1662TIP3    H226402   3.431   3.843   4.323 -1.8376 -1.0766  0.1269
 1663TIP3   OH226403   0.401   0.803  11.929  0.1714  0.0127  0.1103
 1663TIP3    H126404   0.483   0.757  11.949  0.9420  0.3020 -2.2397
 1663TIP3    H226405   0.428   0.882  11.882 -1.3694  0.9062  0.6781
 1664TIP3   OH226406   5.202   6.536   5.051 -0.1432 -0.1784  0.4568
 1664TIP3    H126407   5.190   6.602   4.982  3.0246  1.7610  1.6579
 1664TIP3    H226408   5.213   6.587   5.131 -0.1916 -2.2966  1.8512
 1665TIP3   OH226409   4.150   6.056  11.761  0.2249  0.5667  0.6565
 1665TIP3    H126410   4.120   5.965  11.757 -0.2984  0.7735 -0.3768
 1665TIP3    H226411   4.236   6.052  11.803 -0.3611 -0.2651  1.7779
 1666TIP3   OH226412   3.133   4.567   4.302  0.6861 -0.4314 -0.1222
 1666TIP3    H126413   3.152   4.538   4.391  3.5460 -1.6997 -1.0919
 1666TIP3    H226414   3.048   4.527   4.281 -0.0296 -0.0964  2.0060
 1667TIP3   OH226415   5.308   4.932  11.597  0.2072  0.0344  0.1692
 1667TIP3    H126416   5.300   4.857  11.538  0.0634 -0.0435  0.2893
 1667TIP3    H226417   5.241   4.994  11.566 -0.7314 -0.5361  1.0424
 1668TIP3   OH226418   6.739   2.526  12.841 -0.0637 -0.2922 -0.3042
 1668TIP3    H126419   6.652   2.537  12.879 -0.1010  0.5848 -0.6432
 1668TIP3    H226420   6.790   2.483  12.911 -1.0365 -1.7774 -0.4812
 1669TIP3   OH226421   0.777   2.016  12.469 -1.0556 -0.0585  0.4061
 1669TIP3    H126422   0.773   2.111  12.457 -0.9760  0.0501  1.2346
 1669TIP3    H226423   0.686   1.987  12.466 -0.9623 -0.2056 -1.7877
 1670TIP3   OH226424   2.376   0.364   4.465  0.3708  0.4147  0.0119
 1670TIP3    H126425   2.356   0.407   4.382  0.0633  0.4330  0.0976
 1670TIP3    H226426   2.443   0.299   4.443 -0.6873 -0.5103 -0.4840
 1671TIP3   OH226427   2.181   2.250  16.112 -0.0309 -0.3956  0.1150
 1671TIP3    H126428   2.181   2.181  16.179  0.7573  0.9093  1.4591
 1671TIP3    H226429   2.204   2.204  16.031 -3.7837 -2.5275  0.1255
 1672TIP3   OH226430   5.790   2.995   5.072 -0.3242 -0.0644  0.0353
 1672TIP3    H126431   5.773   3.069   5.013  0.1108  0.3707  0.4442
 1672TIP3    H226432   5.715   2.994   5.131  0.8420  1.6152  1.5962
 1673TIP3   OH226433   3.042   1.210  15.530  0.2851  0.0640  0.2467
 1673TIP3    H126434   2.990   1.259  15.466 -0.3772 -0.8181  0.1160
 1673TIP3    H226435   3.033   1.260  15.611 -0.0428  0.3931  0.0103
 1674TIP3   OH226436   5.748   1.268   0.238 -0.0381 -0.0915 -0.1793
 1674TIP3    H126437   5.757   1.344   0.296 -0.3638  0.5704 -0.9823
 1674TIP3    H226438   5.835   1.227   0.239  0.1359  0.2793  0.2802
 1675TIP3   OH226439   5.980   5.286  11.724  0.1872 -0.3776  0.1848
 1675TIP3    H126440   5.963   5.202  11.680  1.4685 -1.3533  1.4994
 1675TIP3    H226441   5.935   5.278  11.808  0.3937  0.2372  0.3512
 1676TIP3   OH226442   2.009   1.307  14.128  0.0062 -0.0533 -0.5261
 1676TIP3    H126443   2.049   1.392  14.112  1.5798 -0.5818  0.5724
 1676TIP3    H226444   1.949   1.322  14.201 -2.3975  0.8872 -2.5872
 1677TIP3   OH226445   0.198   5.684   3.892  0.0800  0.1562  0.2711
 1677TIP3    H126446   0.223   5.774   3.914 -0.3994  0.2533  0.4420
 1677TIP3    H226447   0.280   5.635   3.890  0.1589  0.1841  2.1101
 1678TIP3   OH226448   4.046   5.893  11.332 -0.6340 -0.6178 -0.0817
 1678TIP3    H126449   3.977   5.948  11.295 -1.0928 -1.4568 -0.4921
 1678TIP3    H226450   4.026   5.889  11.426 -0.0739  0.6501  0.1012
 1679TIP3   OH226451   6.572   3.951   4.657 -0.8206 -0.5068  0.4716
 1679TIP3    H126452   6.542   3.935   4.568  1.6617 -0.2521 -0.4562
 1679TIP3    H226453   6.517   4.023   4.689  0.2127  1.4223 -1.9266
 1680TIP3   OH226454   2.946   1.625  13.552 -0.1426 -0.0132 -0.4495
 1680TIP3    H126455   3.022   1.596  13.603 -0.8402 -0.6591  0.2301
 1680TIP3    H226456   2.891   1.672  13.614 -1.1590 -1.0931 -0.5075
 1681TIP3   OH226457   1.033   1.874  16.718 -0.2417 -0.4169  0.1826
 1681TIP3    H126458   0.965   1.942  16.716  1.3224  1.1911 -0.2048
 1681TIP3    H226459   1.029   1.834  16.632 -0.0323  0.3802 -0.2089
 1682TIP3   OH226460   1.769   4.834  11.876  0.4319  0.4561 -0.2769
 1682TIP3    H126461   1.705   4.786  11.928  1.5856 -0.4688  0.3120
 1682TIP3    H226462   1.815   4.766  11.827 -0.1988  1.2537 -2.0210
 1683TIP3   OH226463   5.187   5.837  12.492  0.1755  0.3315 -0.3079
 1683TIP3    H126464   5.208   5.748  12.464 -1.1207  0.1188 -0.6593
 1683TIP3    H226465   5.110   5.861  12.440 -0.9836  0.7224  1.5200
 1684TIP3   OH226466   1.971   1.450   5.936  0.1543  0.3503  0.0879
 1684TIP3    H126467   1.994   1.438   6.028  0.6911  1.1618  0.0674
 1684TIP3    H226468   2.055   1.464   5.892 -0.2465  1.9156 -0.2162
 1685TIP3   OH226469   1.897   4.001  12.035  0.2832  0.1427  0.3078
 1685TIP3    H126470   1.898   4.074  11.973  0.1350  0.2000  0.3702
 1685TIP3    H226471   1.925   3.925  11.984 -1.5559 -0.1723 -0.2893
 1686TIP3   OH226472   2.248   1.652   3.295 -0.6519  0.1362  0.2885
 1686TIP3    H126473   2.339   1.679   3.282 -0.7129  0.4000  0.3985
 1686TIP3    H226474   2.204   1.674   3.213 -0.0807 -2.3030 -0.7102
 1687TIP3   OH226475   1.353   1.373   6.213 -0.5066 -0.7567  0.2104
 1687TIP3    H126476   1.420   1.305   6.225  0.0907 -0.3771 -0.8537
 1687TIP3    H226477   1.322   1.359   6.123  0.6758  1.2959 -0.5490
 1688TIP3   OH226478   1.112   5.374  12.765  0.0023 -0.3836 -0.4154
 1688TIP3    H126479   1.121   5.453  12.818 -0.4072  0.6108 -1.7978
 1688TIP3    H226480   1.084   5.306  12.827 -1.3100  0.9582  0.4769
 1689TIP3   OH226481   6.259   3.095  14.763  0.5395 -0.7019 -0.0947
 1689TIP3    H126482   6.203   3.095  14.841  0.2361  2.6032 -0.2172
 1689TIP3    H226483   6.339   3.051  14.790  0.7463  1.1038  2.3424
 1690TIP3   OH226484   5.837   2.352  11.028 -0.0450 -0.3594 -0.2336
 1690TIP3    H126485   5.781   2.325  10.956 -1.1591 -2.1298  1.2358
 1690TIP3    H226486   5.831   2.448  11.029 -0.3801 -0.3469 -2.1679
 1691TIP3   OH226487   1.555   2.327  14.235 -0.3535  0.5136 -0.1758
 1691TIP3    H126488   1.507   2.391  14.181  0.1016  0.3630 -0.7636
 1691TIP3    H226489   1.557   2.366  14.322  0.0936  1.3891 -0.5771
 1692TIP3   OH226490   2.510   3.495   4.554  0.5717  0.0596 -0.0476
 1692TIP3    H126491   2.549   3.543   4.480  1.6395 -1.0268 -0.2207
 1692TIP3    H226492   2.475   3.415   4.514  2.6509 -1.3459  0.8191
 1693TIP3   OH226493   1.904   0.922  12.335  0.0597 -0.2395  0.4635
 1693TIP3    H126494   1.957   0.932  12.414 -1.1096 -0.1730  1.2597
 1693TIP3    H226495   1.955   0.964  12.266  1.8966 -1.8177  0.8219
 1694TIP3   OH226496   5.915   3.487   0.209  0.7949 -1.0923 -0.2398
 1694TIP3    H126497   5.856   3.557   0.236 -1.1639 -1.7345 -2.7712
 1694TIP3    H226498   5.872   3.406   0.236  0.8988 -1.5289 -1.3492
 1695TIP3   OH226499   2.093   6.606  16.230  0.0028 -0.0138  0.2102
 1695TIP3    H126500   2.127   6.609  16.319 -0.8377  2.2789  0.4900
 1695TIP3    H226501   2.140   6.534  16.188  1.3386 -0.2818  2.1225
 1696TIP3   OH226502   2.859   3.074  13.570  0.3785  0.0829 -0.2850
 1696TIP3    H126503   2.908   3.084  13.651  0.0235 -1.2630  0.1058
 1696TIP3    H226504   2.788   3.015  13.591 -0.3114  0.5094 -1.3335
 1697TIP3   OH226505   3.968   4.114   0.312  0.2936 -0.2448 -0.4740
 1697TIP3    H126506   4.045   4.079   0.357  1.1073 -0.2008 -1.8151
 1697TIP3    H226507   3.983   4.209   0.309 -0.5452 -0.0709  0.6120
 1698TIP3   OH226508   4.851   5.479   2.790 -0.0675 -0.1151  0.2182
 1698TIP3    H126509   4.855   5.558   2.736 -1.6825 -0.4995 -0.5008
 1698TIP3    H226510   4.760   5.475   2.821 -0.3717 -2.3086 -0.7765
 1699TIP3   OH226511   1.485   1.818   5.138  0.4623  0.1529  0.4725
 1699TIP3    H126512   1.442   1.890   5.092 -0.8986 -1.7251 -1.2935
 1699TIP3    H226513   1.420   1.786   5.200  0.6955 -0.2050  0.5398
 1700TIP3   OH226514   4.083   4.512  14.384 -0.5290  0.3458 -0.0957
 1700TIP3    H126515   4.019   4.496  14.314 -0.4074 -2.3664  0.3649
 1700TIP3    H226516   4.030   4.516  14.464 -0.2034 -1.2173  0.2051
 1701TIP3   OH226517   5.838   1.615   3.127  0.1099  0.6805 -0.2713
 1701TIP3    H126518   5.746   1.595   3.141  0.4015 -0.7167 -0.2340
 1701TIP3    H226519   5.838   1.684   3.061 -0.9332 -0.3207 -1.3445
 1702TIP3   OH226520   6.551   6.592   2.213  0.7204  0.1682 -0.9927
 1702TIP3    H126521   6.575   6.530   2.145  0.5774  0.9281 -1.7376
 1702TIP3    H226522   6.633   6.637   2.234  1.3459 -1.9430  1.2774
 1703TIP3   OH226523   6.556   3.463   0.325 -0.1756 -0.1853  0.9618
 1703TIP3    H126524   6.468   3.431   0.303 -0.0005  0.5255 -0.8359
 1703TIP3    H226525   6.562   3.451   0.420 -0.4966 -4.4138  0.5190
 1704TIP3   OH226526   4.371   5.933   4.317  0.0099 -0.1927  0.6816
 1704TIP3    H126527   4.302   5.959   4.255  1.4343  0.8422 -0.5010
 1704TIP3    H226528   4.351   5.842   4.337 -1.0443 -0.2569 -0.5486
 1705TIP3   OH226529   5.581   4.486   0.830  0.2317 -0.0980  0.0338
 1705TIP3    H126530   5.643   4.434   0.779  1.2093  0.7250  0.3729
 1705TIP3    H226531   5.502   4.432   0.834  0.4093 -0.4925 -1.6956
 1706TIP3   OH226532   3.326   0.583   4.441 -0.1213  0.3709 -0.2954
 1706TIP3    H126533   3.377   0.536   4.507 -0.1461 -0.5585 -0.9298
 1706TIP3    H226534   3.373   0.665   4.429  1.5209 -0.6896 -1.2462
 1707TIP3   OH226535   0.176   2.167   6.111 -0.3570  0.1337  0.4677
 1707TIP3    H126536   0.164   2.167   6.206 -0.2081 -2.4807  0.5387
 1707TIP3    H226537   0.242   2.234   6.095 -3.1114  3.3366  1.7653
 1708TIP3   OH226538   5.975   0.622   3.822  0.1849 -0.5415 -0.1828
 1708TIP3    H126539   5.953   0.715   3.815  1.3729 -0.1099  1.5030
 1708TIP3    H226540   5.965   0.602   3.915  0.2081 -2.0332 -0.4957
 1709TIP3   OH226541   0.567   6.275  12.739 -0.0777  0.1609  0.2134
 1709TIP3    H126542   0.616   6.334  12.796 -1.0057  0.5697  0.5957
 1709TIP3    H226543   0.596   6.188  12.764  2.7112  0.4928 -1.6357
 1710TIP3   OH226544   4.432   3.240  16.321  0.2051 -0.2834  0.2047
 1710TIP3    H126545   4.468   3.244  16.410  0.9078  0.3437 -0.1003
 1710TIP3    H226546   4.505   3.267  16.265  0.0481 -1.5654 -0.6350
 1711TIP3   OH226547   0.391   0.560  13.758 -0.2275 -0.0773 -0.0702
 1711TIP3    H126548   0.298   0.569  13.734 -0.1177 -0.7675 -0.7873
 1711TIP3    H226549   0.427   0.648  13.748 -0.3928 -0.1694 -1.5691
 1712TIP3   OH226550   6.544   5.560   2.694  0.0659  0.2915  0.8241
 1712TIP3    H126551   6.517   5.546   2.784  0.2698 -1.0871  0.6728
 1712TIP3    H226552   6.626   5.513   2.685 -0.3767 -0.2902 -0.3049
 1713TIP3   OH226553   5.250   0.829  13.116 -0.3370  0.2858  0.4459
 1713TIP3    H126554   5.275   0.891  13.184  0.1361 -1.6396  2.0857
 1713TIP3    H226555   5.289   0.864  13.035  1.9108  0.9112  1.7478
 1714TIP3   OH226556   4.461   0.831   4.545  0.0937  0.2447  0.0544
 1714TIP3    H126557   4.380   0.807   4.591  0.8881  0.3500  1.5465
 1714TIP3    H226558   4.445   0.806   4.454 -0.9833 -1.3334  0.6421
 1715TIP3   OH226559   3.196   2.982  13.966 -0.1885 -0.5929  0.2412
 1715TIP3    H126560   3.194   3.078  13.958 -0.1412 -0.4923  1.2742
 1715TIP3    H226561   3.245   2.967  14.047 -2.4277 -1.3875  1.4939
 1716TIP3   OH226562   2.118   3.903  16.258 -0.0531 -0.0006 -0.3749
 1716TIP3    H126563   2.202   3.947  16.242 -0.3499  0.4555 -0.7156
 1716TIP3    H226564   2.108   3.843  16.184  0.7591 -1.2925  0.5396
 1717TIP3   OH226565   3.610   2.196  16.688  0.0415 -0.0976  0.3006
 1717TIP3    H126566   3.514   2.196  16.685  0.0246  0.0231  0.8132
 1717TIP3    H226567   3.633   2.103  16.696 -0.0402 -0.1051  0.4508
 1718TIP3   OH226568   6.156   3.286   0.916 -0.2964 -0.3253 -0.6168
 1718TIP3    H126569   6.144   3.339   0.994  1.6181 -1.6392  0.6275
 1718TIP3    H226570   6.154   3.349   0.844 -1.8318  0.9335  0.4983
 1719TIP3   OH226571   4.333   3.176   3.707  0.1285  0.3822 -0.6674
 1719TIP3    H126572   4.410   3.213   3.749  0.5571  0.4382 -1.4857
 1719TIP3    H226573   4.270   3.162   3.778  1.0412 -0.0385  0.0665
 1720TIP3   OH226574   4.785   3.965  13.392 -0.4576 -0.1998 -0.5270
 1720TIP3    H126575   4.799   3.871  13.399  1.5544  0.1697  0.9713
 1720TIP3    H226576   4.869   4.004  13.418 -1.1026  1.9925 -1.5698
 1721TIP3   OH226577   5.623   2.027   0.933  0.2796 -0.2483 -0.1595
 1721TIP3    H126578   5.690   2.034   0.865  0.2688  0.7406 -0.0791
 1721TIP3    H226579   5.669   1.997   1.011  0.8106  1.3582  0.1584
 1722TIP3   OH226580   4.652   1.466   0.123  0.7840 -0.2116 -0.2133
 1722TIP3    H126581   4.708   1.542   0.138  1.5412 -1.2444  2.4630
 1722TIP3    H226582   4.575   1.481   0.178  1.2040 -1.6533  0.7840
 1723TIP3   OH226583   2.141   1.697   0.231  0.0003 -0.7434  0.5416
 1723TIP3    H126584   2.158   1.725   0.141  0.4221  1.1155  1.1834
 1723TIP3    H226585   2.082   1.622   0.222  0.1660 -0.6730 -1.2869
 1724TIP3   OH226586   3.847   0.870   3.401  0.0565  0.3527 -0.7292
 1724TIP3    H126587   3.893   0.868   3.317  0.5945 -1.3790 -0.4067
 1724TIP3    H226588   3.758   0.841   3.380  0.4866 -1.1383 -0.5343
 1725TIP3   OH226589   6.305   2.692  16.726 -0.0066  0.9594  0.3271
 1725TIP3    H126590   6.353   2.615  16.697  1.1020  1.3815  1.0049
 1725TIP3    H226591   6.271   2.732  16.646  2.6508  1.8774 -0.3895
 1726TIP3   OH226592   6.631   3.533  13.654 -0.4034 -0.1495  0.6279
 1726TIP3    H126593   6.687   3.603  13.622  0.4600 -0.5417  1.2683
 1726TIP3    H226594   6.607   3.484  13.576 -0.4923  0.4800  0.2565
 1727TIP3   OH226595   2.646   0.892  14.672  0.6402 -0.9574  1.0705
 1727TIP3    H126596   2.714   0.934  14.724  0.2185 -1.5772  2.1430
 1727TIP3    H226597   2.596   0.840  14.735 -0.5927 -0.8085  0.2396
 1728TIP3   OH226598   4.131   0.860   5.674  0.4053  0.0195  0.0913
 1728TIP3    H126599   4.093   0.772   5.678  1.3457 -0.4552 -1.0815
 1728TIP3    H226600   4.061   0.915   5.640  0.7273 -0.8478 -2.0528
 1729TIP3   OH226601   3.022   3.870   6.095  0.5106  0.5462  0.8362
 1729TIP3    H126602   2.959   3.807   6.059  0.7249 -0.0993  1.5844
 1729TIP3    H226603   3.071   3.900   6.018 -0.6492  1.0017  0.2561
 1730TIP3   OH226604   4.762   2.645  12.702  0.1385  0.0664 -0.2276
 1730TIP3    H126605   4.688   2.615  12.754 -0.4990  1.3990 -0.3606
 1730TIP3    H226606   4.828   2.670  12.766 -0.4319  1.1574 -0.0554
 1731TIP3   OH226607   2.568   0.773   0.427  0.0386 -0.3030  0.0355
 1731TIP3    H126608   2.631   0.710   0.463  2.1066  1.4212 -0.4280
 1731TIP3    H226609   2.592   0.857   0.468 -1.2759  0.5864 -0.9783
 1732TIP3   OH226610   2.990   6.221   0.797  0.4049 -0.1417  0.4674
 1732TIP3    H126611   2.902   6.246   0.768  0.3156  0.2852  1.0761
 1732TIP3    H226612   2.982   6.217   0.893  1.1076  0.1229  0.5349
 1733TIP3   OH226613   1.711   1.190  13.441  0.0370  0.3320 -0.8252
 1733TIP3    H126614   1.783   1.253  13.435  0.7611 -0.1470  2.1083
 1733TIP3    H226615   1.634   1.245  13.456  0.2591  0.6542 -0.8460
 1734TIP3   OH226616   1.492   0.643   1.146  0.3001 -0.1428 -0.0101
 1734TIP3    H126617   1.468   0.734   1.126  1.0656  0.5554  2.1672
 1734TIP3    H226618   1.422   0.611   1.202  0.2964 -0.7522 -0.3544
 1735TIP3   OH226619   3.419   5.270  13.633  0.2794 -0.0054  0.3279
 1735TIP3    H126620   3.347   5.245  13.691  0.7704 -1.2649  0.4026
 1735TIP3    H226621   3.469   5.334  13.683 -0.0315 -0.1196  0.7859
 1736TIP3   OH226622   1.072   1.824  13.084 -0.5486 -0.2881  0.0252
 1736TIP3    H126623   1.038   1.763  13.019 -3.0692  0.5596  0.4878
 1736TIP3    H226624   1.022   1.905  13.069  0.8610  0.8237  1.1493
 1737TIP3   OH226625   1.316   5.926  13.947  0.3300  0.4105 -0.1524
 1737TIP3    H126626   1.321   6.004  14.002 -0.6471  0.0738  0.4315
 1737TIP3    H226627   1.382   5.940  13.879 -0.5377  2.2152 -0.6649
 1738TIP3   OH226628   0.568   2.733   4.085  0.1574 -0.2908 -0.3361
 1738TIP3    H126629   0.531   2.821   4.074 -2.4806 -1.2061  0.9957
 1738TIP3    H226630   0.576   2.722   4.180  2.5134 -0.6941 -0.5527
 1739TIP3   OH226631   0.062   5.768   1.582  0.2764 -0.2464 -0.2438
 1739TIP3    H126632   0.042   5.837   1.518 -3.0465 -2.4961 -1.8325
 1739TIP3    H226633   0.042   5.807   1.667 -0.1847  1.1948 -1.0054
 1740TIP3   OH226634   3.777   1.308   3.346  0.4465  0.3313 -0.2529
 1740TIP3    H126635   3.792   1.222   3.308 -0.6910 -0.4588  1.0597
 1740TIP3    H226636   3.840   1.365   3.301  1.2477 -1.1788 -1.0888
 1741TIP3   OH226637   3.878   2.289  12.151 -0.5166 -0.8788  0.2518
 1741TIP3    H126638   3.882   2.213  12.208 -1.3676 -2.2761 -1.4925
 1741TIP3    H226639   3.967   2.298  12.116 -0.5766 -1.4928 -0.0618
 1742TIP3   OH226640   5.933   0.610   4.860 -0.3286  0.4304  0.4294
 1742TIP3    H126641   5.842   0.622   4.833 -0.5534 -0.1514  0.9162
 1742TIP3    H226642   5.964   0.698   4.877 -0.5218  0.7118 -0.6349
 1743TIP3   OH226643   0.268   2.707   2.410 -0.0082 -0.4576  0.6196
 1743TIP3    H126644   0.280   2.631   2.352 -1.4116  0.4115 -0.8498
 1743TIP3    H226645   0.186   2.689   2.455 -0.3974  0.2118  0.1929
 1744TIP3   OH226646   2.590   5.482  13.233 -0.1477  0.1493 -0.3710
 1744TIP3    H126647   2.555   5.416  13.173  1.7482 -0.5724 -0.7216
 1744TIP3    H226648   2.644   5.538  13.177  0.9263 -0.0016  0.5101
 1745TIP3   OH226649   2.902   6.383  11.507  0.1425  0.0687  0.0707
 1745TIP3    H126650   2.880   6.298  11.469  2.9713 -0.4831 -0.4152
 1745TIP3    H226651   2.859   6.446  11.449  0.9528 -0.9118 -1.6505
 1746TIP3   OH226652   2.510   4.913   5.552  0.2128 -0.1138  0.1857
 1746TIP3    H126653   2.577   4.884   5.613  1.6785  0.3663 -1.1587
 1746TIP3    H226654   2.545   4.993   5.513 -2.5532  2.0115  1.8271
 1747TIP3   OH226655   1.258   0.809  14.650 -0.1548 -0.1490 -0.3301
 1747TIP3    H126656   1.291   0.893  14.618  0.8085 -0.6076 -0.6035
 1747TIP3    H226657   1.181   0.791  14.596  0.2162  0.0948 -0.9494
 1748TIP3   OH226658   5.619   1.516  11.978  0.3502 -0.0616 -0.4411
 1748TIP3    H126659   5.662   1.432  11.995 -2.2227 -1.3812 -0.1816
 1748TIP3    H226660   5.573   1.537  12.059 -0.4449  0.7103 -1.0700
 1749TIP3   OH226661   5.354   4.780  17.182 -0.2661  0.6672  0.4190
 1749TIP3    H126662   5.348   4.853  17.244 -1.8194 -0.8013  2.0460
 1749TIP3    H226663   5.338   4.702  17.235  1.0188 -0.8542 -1.3622
 1750TIP3   OH226664   2.085   4.453   3.578  0.3921 -0.1305 -0.4718
 1750TIP3    H126665   2.131   4.410   3.505  1.7017  0.4227  0.0281
 1750TIP3    H226666   2.013   4.500   3.536 -0.6303 -2.1957 -1.1094
 1751TIP3   OH226667   3.898   0.424   1.681  0.5323  0.0556 -0.2660
 1751TIP3    H126668   3.960   0.442   1.751 -1.0389  1.5597  0.7751
 1751TIP3    H226669   3.813   0.452   1.715 -1.1225 -3.7770 -0.8855
 1752TIP3   OH226670   6.599   4.164   1.128 -0.6108 -0.4382  0.0406
 1752TIP3    H126671   6.644   4.226   1.184 -0.0839 -1.2093  0.4869
 1752TIP3    H226672   6.506   4.184   1.139 -0.4292  0.4189 -0.0057
 1753TIP3   OH226673   6.536   5.632   0.631 -0.0053  0.2546 -0.0101
 1753TIP3    H126674   6.558   5.694   0.562 -1.0473  1.0749  0.3741
 1753TIP3    H226675   6.621   5.604   0.666  0.4907  1.1304 -0.4825
 1754TIP3   OH226676   1.276   3.415   3.410 -0.1365 -0.2176  0.2885
 1754TIP3    H126677   1.252   3.354   3.341 -3.8665  1.1386  0.2335
 1754TIP3    H226678   1.337   3.476   3.369 -1.2787 -0.2162 -1.4389
 1755TIP3   OH226679   3.369   6.559  16.337  0.0352 -0.0415 -0.1054
 1755TIP3    H126680   3.450   6.522  16.302 -0.3960 -1.2234  0.1081
 1755TIP3    H226681   3.364   6.647  16.299  1.4328  0.0638 -0.0755
 1756TIP3   OH226682   0.426   6.284  11.293 -0.1683  0.2487  0.0951
 1756TIP3    H126683   0.356   6.288  11.228  1.5651  1.6047 -1.7378
 1756TIP3    H226684   0.456   6.193  11.290 -1.8560 -0.3709  0.9654
 1757TIP3   OH226685   5.279   0.934  11.372 -0.1100  0.2892  0.7620
 1757TIP3    H126686   5.292   1.027  11.392  1.0933  0.2724  0.1169
 1757TIP3    H226687   5.235   0.934  11.287  2.7878  0.2515 -0.7975
 1758TIP3   OH226688   3.200   1.569   3.769  0.3083 -0.3916  1.0798
 1758TIP3    H126689   3.234   1.521   3.694 -0.3499  0.7699  0.0114
 1758TIP3    H226690   3.106   1.555   3.765  0.0429  1.4310  0.4017
 1759TIP3   OH226691   0.271   3.718  15.593  0.0616 -0.2592 -0.1863
 1759TIP3    H126692   0.183   3.681  15.588  0.1121 -0.5134  0.7077
 1759TIP3    H226693   0.280   3.747  15.684  0.3022  1.2417 -0.6723
 1760TIP3   OH226694   3.875   3.119  16.285 -0.1568 -0.0159 -0.5786
 1760TIP3    H126695   3.890   3.027  16.261 -1.7522 -0.3645 -0.2788
 1760TIP3    H226696   3.877   3.166  16.202 -3.0999 -0.8589 -1.1851
 1761TIP3   OH226697   4.346   6.206   5.333  0.0397 -0.5756 -0.2443
 1761TIP3    H126698   4.285   6.243   5.397  0.8314  2.4101 -1.1277
 1761TIP3    H226699   4.309   6.231   5.248  1.0559 -1.0737 -0.8348
 1762TIP3   OH226700   3.189   1.319  14.598  0.2668 -0.1056 -0.3520
 1762TIP3    H126701   3.131   1.243  14.605  0.2413  0.0743  1.6601
 1762TIP3    H226702   3.129   1.394  14.591  0.2907 -0.2569 -2.6219
 1763TIP3   OH226703   2.609   0.198  11.923  0.0268  0.2783 -0.2981
 1763TIP3    H126704   2.674   0.263  11.952 -0.2426  0.5976 -0.4030
 1763TIP3    H226705   2.595   0.143  11.999  0.8521 -0.1489 -0.4427
 1764TIP3   OH226706   5.815   1.211   4.052 -0.0661 -0.6270 -0.3282
 1764TIP3    H126707   5.905   1.224   4.081 -0.3415  1.1103 -0.2328
 1764TIP3    H226708   5.781   1.143   4.111  0.8292 -0.4872  0.3668
 1765TIP3   OH226709   0.695   6.549  13.679 -0.2137 -0.3697  0.1667
 1765TIP3    H126710   0.615   6.507  13.647 -0.5195  1.4541 -1.5647
 1765TIP3    H226711   0.710   6.622  13.619  2.0261  0.1263  1.2583
 1766TIP3   OH226712   0.302   1.821  15.794  0.1549  0.0146 -0.1679
 1766TIP3    H126713   0.325   1.837  15.702  1.9006 -1.1759  0.0231
 1766TIP3    H226714   0.333   1.898  15.841 -0.8486  0.6793 -0.5857
 1767TIP3   OH226715   4.098   2.227   5.214  0.2857  0.5947  0.0912
 1767TIP3    H126716   4.031   2.158   5.208  2.8741 -2.2139  2.3274
 1767TIP3    H226717   4.151   2.215   5.135  2.4044 -1.8584  1.8275
 1768TIP3   OH226718   0.718   3.407   2.967 -0.3164  0.1338 -0.6897
 1768TIP3    H126719   0.703   3.313   2.971  0.0537  0.0602 -0.9914
 1768TIP3    H226720   0.681   3.433   2.882 -0.0148  0.1854 -0.8063
 1769TIP3   OH226721   0.518   6.297  14.712 -0.0136  0.3962 -0.3715
 1769TIP3    H126722   0.430   6.322  14.740 -0.1811  0.6850 -1.1397
 1769TIP3    H226723   0.562   6.270  14.792 -0.7157  0.5172  0.0581
 1770TIP3   OH226724   5.700   3.608  16.842 -0.5823 -0.3561 -0.7913
 1770TIP3    H126725   5.665   3.696  16.825 -1.1935 -0.4334  0.0279
 1770TIP3    H226726   5.795   3.619  16.843 -0.6797  0.5115  0.4246
 1771TIP3   OH226727   0.506   5.583   0.073 -0.0664 -0.3298  0.4204
 1771TIP3    H126728   0.438   5.518   0.091 -0.3959  0.4504  2.1865
 1771TIP3    H226729   0.466   5.643   0.010 -0.6919 -0.4143  0.7296
 1772TIP3   OH226730   2.044   3.789  11.612 -0.0471  0.5882 -0.2716
 1772TIP3    H126731   1.986   3.724  11.651 -0.7874  1.2695 -0.2189
 1772TIP3    H226732   2.075   3.748  11.531 -0.4498  0.1400 -0.1996
 1773TIP3   OH226733   0.487   1.372  12.616 -0.4530 -0.0115 -0.0096
 1773TIP3    H126734   0.510   1.345  12.705  0.4375  0.2745 -0.1427
 1773TIP3    H226735   0.502   1.295  12.563  2.4443  0.7825 -0.4471
 1774TIP3   OH226736   0.946   3.448  13.571 -0.2350 -0.0812 -0.0399
 1774TIP3    H126737   0.869   3.503  13.559  0.1718  0.1498 -1.7200
 1774TIP3    H226738   0.962   3.449  13.666 -1.6162  0.7767  0.1927
 1775TIP3   OH226739   4.614   2.826  15.024 -0.1664 -0.0731  0.2291
 1775TIP3    H126740   4.681   2.770  15.064  0.2577 -0.3115 -0.7992
 1775TIP3    H226741   4.544   2.830  15.089  0.7376 -0.0227  1.2264
 1776TIP3   OH226742   0.171   3.817   0.217  0.5176 -0.3649 -0.1464
 1776TIP3    H126743   0.089   3.774   0.241 -0.9294  0.2440 -3.6510
 1776TIP3    H226744   0.237   3.749   0.223 -0.8662 -1.7919 -0.6691
 1777TIP3   OH226745   4.969   5.709  14.300 -0.8847 -1.0916 -0.0913
 1777TIP3    H126746   4.968   5.803  14.284  1.0502 -1.3862 -2.3661
 1777TIP3    H226747   4.892   5.692  14.354  0.2484  2.1603  2.7231
 1778TIP3   OH226748   6.252   4.091  16.553 -0.1300 -0.5199  0.0557
 1778TIP3    H126749   6.274   4.164  16.611 -2.1940 -0.9363  1.4125
 1778TIP3    H226750   6.266   4.126  16.465  2.5535  0.2794  0.7464
 1779TIP3   OH226751   0.582   2.179  15.329 -0.3869  0.3079  0.2675
 1779TIP3    H126752   0.533   2.099  15.309 -1.5660  0.7622  1.3123
 1779TIP3    H226753   0.577   2.187  15.424  2.1057  0.1311  0.4380
 1780TIP3   OH226754   2.974   5.168  15.247 -0.6024  0.7031 -0.9437
 1780TIP3    H126755   2.972   5.113  15.326  0.4449  2.9477  0.7267
 1780TIP3    H226756   3.042   5.130  15.193  0.4503  0.6031  0.4174
 1781TIP3   OH226757   4.697   3.219  13.142  0.0307  0.1423  0.4560
 1781TIP3    H126758   4.758   3.262  13.201 -0.2839 -0.0424  0.9146
 1781TIP3    H226759   4.753   3.168  13.083  0.3575  0.5623  0.3987
 1782TIP3   OH226760   0.778   4.312  13.062 -0.6634  0.1063  0.3550
 1782TIP3    H126761   0.744   4.393  13.100 -0.8885 -0.1460  0.6951
 1782TIP3    H226762   0.700   4.256  13.052 -0.6663  0.3006 -0.8000
 1783TIP3   OH226763   5.890   3.043  16.450  0.2137 -0.1309  0.9887
 1783TIP3    H126764   5.867   3.124  16.406  0.6608 -1.0863 -1.0424
 1783TIP3    H226765   5.811   3.017  16.497 -0.0186  1.2993  1.4178
 1784TIP3   OH226766   0.695   5.380  16.180  0.6546 -0.1398 -0.2668
 1784TIP3    H126767   0.784   5.403  16.154  1.3609  0.1017  2.2328
 1784TIP3    H226768   0.703   5.290  16.214  0.2414  0.4276  1.3495
 1785TIP3   OH226769   0.562   0.956   1.432 -0.0507 -0.3156 -0.4166
 1785TIP3    H126770   0.605   0.960   1.347  0.0136 -0.7431 -0.4069
 1785TIP3    H226771   0.618   1.008   1.490  0.9849 -1.6596 -0.1875
 1786TIP3   OH226772   5.964   3.783   5.700 -0.2260 -0.2693 -0.3591
 1786TIP3    H126773   5.973   3.713   5.765 -0.8820  0.2798  0.3378
 1786TIP3    H226774   6.029   3.848   5.726  0.7543 -0.8634 -1.3264
 1787TIP3   OH226775   2.155   3.524   6.237  0.4114 -0.2062 -0.2046
 1787TIP3    H126776   2.153   3.517   6.332  1.1022 -0.2367 -0.1951
 1787TIP3    H226777   2.082   3.583   6.216 -0.1795 -0.7504  0.2889
 1788TIP3   OH226778   1.766   5.679  13.102  0.1885  0.2379  0.2438
 1788TIP3    H126779   1.828   5.728  13.156 -0.1389  2.9158 -1.7068
 1788TIP3    H226780   1.804   5.592  13.094  1.2435  0.4005  3.0669
 1789TIP3   OH226781   4.682   4.405   4.002  0.5385 -0.1793  0.6772
 1789TIP3    H126782   4.588   4.414   4.016  0.4268 -1.1090  0.5076
 1789TIP3    H226783   4.703   4.475   3.939  0.1723  0.7690  1.5825
 1790TIP3   OH226784   0.930   6.207  15.763  0.3884 -0.0638  0.2795
 1790TIP3    H126785   0.893   6.292  15.738  2.9018  0.7062 -1.0013
 1790TIP3    H226786   0.932   6.209  15.859  0.7339  1.4645  0.2515
 1791TIP3   OH226787   4.715   0.511   1.112 -0.1481  0.1856  0.1622
 1791TIP3    H126788   4.661   0.436   1.136 -0.7889  0.8831  0.9566
 1791TIP3    H226789   4.734   0.554   1.195  0.0799  0.9906 -0.3014
 1792TIP3   OH226790   3.024   6.241  10.916 -0.0905 -0.3339  1.0007
 1792TIP3    H126791   2.993   6.321  10.872 -2.3670 -0.0319  3.0099
 1792TIP3    H226792   2.946   6.186  10.923  0.6752 -1.2524  2.7077
 1793TIP3   OH226793   3.415   1.094   3.155 -0.4150 -0.4471 -0.2541
 1793TIP3    H126794   3.408   1.187   3.134 -0.6665 -0.4882 -0.3664
 1793TIP3    H226795   3.332   1.057   3.124 -0.4717 -0.6412  0.1320
 1794TIP3   OH226796   5.014   4.675  12.600  0.3888  0.1016  0.1261
 1794TIP3    H126797   5.081   4.658  12.534  2.3616  0.5656  1.9590
 1794TIP3    H226798   5.011   4.594  12.652 -0.0556  0.2935  0.4019
 1795TIP3   OH226799   0.521   6.360  16.286  0.2615  0.4351 -0.0836
 1795TIP3    H126800   0.460   6.286  16.281  0.2430  0.4073  0.4788
 1795TIP3    H226801   0.466   6.437  16.270  0.5812  0.2220 -2.3764
 1796TIP3   OH226802   0.190   2.009  11.015 -0.4481 -0.0334 -0.1769
 1796TIP3    H126803   0.280   2.042  11.019 -0.7649  0.6826  1.0948
 1796TIP3    H226804   0.155   2.046  10.934  0.1959  0.1974 -0.3573
 1797TIP3   OH226805   0.168   5.909   1.356  0.2441 -0.6576 -0.3539
 1797TIP3    H126806   0.226   5.985   1.364  0.1309 -0.6373  0.3057
 1797TIP3    H226807   0.228   5.834   1.350  0.3886 -0.4078 -2.4362
 1798TIP3   OH226808   4.420   0.189  11.257 -0.1840  0.1019 -0.1089
 1798TIP3    H126809   4.345   0.140  11.291 -1.5920  1.7589 -0.7784
 1798TIP3    H226810   4.457   0.132  11.189 -0.2619 -1.1199  0.8497
 1799TIP3   OH226811   1.381   1.302   1.295 -0.3578 -0.2473 -0.2409
 1799TIP3    H126812   1.287   1.289   1.286 -0.3860  0.9125 -2.0397
 1799TIP3    H226813   1.402   1.272   1.383 -2.5142  0.0406  0.3941
 1800TIP3   OH226814   4.274   4.224   2.561 -0.2108 -0.5367  0.4421
 1800TIP3    H126815   4.217   4.222   2.484  1.0444  1.3131 -0.5557
 1800TIP3    H226816   4.213   4.229   2.635 -1.4007 -0.8388 -0.5011
 1801TIP3   OH226817   6.540   0.737   3.553  0.2333 -0.0356  0.2857
 1801TIP3    H126818   6.525   0.643   3.568 -1.0328  0.5810  3.1279
 1801TIP3    H226819   6.493   0.780   3.624  2.1084  2.7081 -0.0904
 1802TIP3   OH226820   2.482   2.150  17.001 -0.0338 -0.2395  0.9072
 1802TIP3    H126821   2.559   2.106  16.966 -1.6464 -2.9594  0.6303
 1802TIP3    H226822   2.458   2.213  16.933  1.9544  0.6679  1.0252
 1803TIP3   OH226823   4.999   3.121  11.045 -0.0451  0.3375  0.2519
 1803TIP3    H126824   5.019   3.072  10.965  0.9191 -1.0290  1.3138
 1803TIP3    H226825   5.018   3.212  11.023  2.2342 -0.2858 -0.4213
 1804TIP3   OH226826   5.925   3.756  13.478 -0.2439 -0.3279 -0.1572
 1804TIP3    H126827   5.940   3.808  13.400  0.5993  0.2058  0.3640
 1804TIP3    H226828   5.907   3.820  13.547  2.0443 -0.6493  0.7634
 1805TIP3   OH226829   2.976   3.508  13.445 -0.2329  0.2817 -0.0509
 1805TIP3    H126830   2.939   3.507  13.356  0.3917  0.3743 -0.3108
 1805TIP3    H226831   2.914   3.561  13.495 -0.6493  0.1370 -0.4003
 1806TIP3   OH226832   1.627   1.365  10.762  0.5798  0.6720 -0.1335
 1806TIP3    H126833   1.598   1.284  10.803 -1.1480  0.3694 -1.8563
 1806TIP3    H226834   1.596   1.434  10.820  0.0854  0.1817  0.1881
 1807TIP3   OH226835   4.437   0.775   0.542  0.4797  0.4602 -0.0306
 1807TIP3    H126836   4.362   0.813   0.497 -0.3888 -1.1010  0.0825
 1807TIP3    H226837   4.425   0.799   0.634 -0.3604 -0.5478  0.1269
 1808TIP3   OH226838   0.438   1.400   0.469 -0.2529 -0.2208 -0.4669
 1808TIP3    H126839   0.510   1.360   0.421  0.8874  0.8360  0.3066
 1808TIP3    H226840   0.362   1.348   0.447  0.4990 -0.5481 -2.3737
 1809TIP3   OH226841   6.759   5.562   4.502  0.1788  0.7827 -0.4038
 1809TIP3    H126842   6.679   5.562   4.554  0.1096 -1.2804 -0.4605
 1809TIP3    H226843   6.829   5.565   4.567  0.0659  0.5626 -0.2705
 1810TIP3   OH226844   6.274   1.015   1.356 -0.7622  0.1487 -0.3272
 1810TIP3    H126845   6.348   1.072   1.375  0.4951 -1.4939 -0.1293
 1810TIP3    H226846   6.309   0.951   1.294 -1.5766 -1.5329  0.9117
 1811TIP3   OH226847   4.209   4.648  13.309  0.3062  0.5812  0.6389
 1811TIP3    H126848   4.265   4.682  13.379  1.4444 -0.2327  0.1383
 1811TIP3    H226849   4.268   4.634  13.235 -0.7982  0.9849 -0.3553
 1812TIP3   OH226850   2.148   1.522   0.639 -0.3325 -0.4289 -0.6192
 1812TIP3    H126851   2.134   1.547   0.548  0.6218 -1.4493 -1.0518
 1812TIP3    H226852   2.064   1.539   0.681 -0.3120  1.5941 -1.3162
 1813TIP3   OH226853   4.743   5.254   0.535 -0.1455 -1.1400  0.1485
 1813TIP3    H126854   4.685   5.297   0.472  0.2840  1.1778  1.2924
 1813TIP3    H226855   4.689   5.184   0.573 -1.7352  0.0933  0.1907
 1814TIP3   OH226856   4.508   6.587   4.419  0.3283 -0.1007 -0.3152
 1814TIP3    H126857   4.542   6.609   4.332  1.0336  0.6637  0.1491
 1814TIP3    H226858   4.415   6.569   4.404  1.1144 -3.4292 -1.8197
 1815TIP3   OH226859   4.649   3.820   1.626 -0.1421 -0.1639  0.0876
 1815TIP3    H126860   4.670   3.726   1.626 -0.8612 -0.3259 -0.6251
 1815TIP3    H226861   4.564   3.826   1.668  0.6938  0.3688  1.7676
 1816TIP3   OH226862   1.213   5.216   1.387  0.5787 -0.1385 -0.1841
 1816TIP3    H126863   1.280   5.237   1.453  0.7511  1.4847 -0.8655
 1816TIP3    H226864   1.252   5.243   1.304 -0.2866 -0.7024 -0.7793
 1817TIP3   OH226865   5.644   3.811  16.479  0.7162 -0.4412 -0.1445
 1817TIP3    H126866   5.659   3.904  16.491 -1.9229 -0.1301  1.0349
 1817TIP3    H226867   5.563   3.793  16.526  0.2530 -2.9842 -1.7972
 1818TIP3   OH226868   5.962   5.192  12.399  0.4274  0.8200 -0.1119
 1818TIP3    H126869   5.937   5.136  12.326 -0.8619 -0.0348  0.9744
 1818TIP3    H226870   5.908   5.271  12.388  0.2284  0.6890 -0.0727
 1819TIP3   OH226871   4.723   1.055  10.750 -0.2124  0.3414 -0.3046
 1819TIP3    H126872   4.704   1.012  10.666 -0.7937 -2.3417  1.1380
 1819TIP3    H226873   4.799   1.008  10.784  1.3212  2.8028 -0.2717
 1820TIP3   OH226874   4.273   1.205  11.015  0.2166  0.1127  0.2823
 1820TIP3    H126875   4.179   1.221  11.019 -0.2261 -1.5602 -2.2050
 1820TIP3    H226876   4.301   1.252  10.936  1.2078 -0.5537  0.2302
 1821TIP3   OH226877   6.732   5.351  17.101  0.2279 -0.6041 -0.1851
 1821TIP3    H126878   6.760   5.295  17.173  0.5875 -1.6427 -1.1330
 1821TIP3    H226879   6.640   5.328  17.088  0.0687 -0.1724  0.1659
 1822TIP3   OH226880   5.085   4.183   4.993 -0.0769  0.2784 -0.1268
 1822TIP3    H126881   5.129   4.222   5.069 -2.6057  1.9066  0.5916
 1822TIP3    H226882   5.069   4.092   5.018 -2.7571  1.3204  2.2287
 1823TIP3   OH226883   0.104   5.533   3.393  0.3052 -0.2357  0.2860
 1823TIP3    H126884   0.038   5.546   3.460  0.8506  0.0663  0.7673
 1823TIP3    H226885   0.131   5.621   3.367  0.7316 -0.3533  0.3122
 1824TIP3   OH226886   1.684   4.144  16.537 -0.5891 -0.3916 -0.1168
 1824TIP3    H126887   1.637   4.095  16.469 -0.1522 -0.0774 -0.6512
 1824TIP3    H226888   1.764   4.174  16.493 -0.2458 -0.2937  0.5765
 1825TIP3   OH226889   2.388   6.527  15.254 -0.0508 -0.8011  0.2170
 1825TIP3    H126890   2.402   6.621  15.259 -0.1971 -0.7184 -0.7205
 1825TIP3    H226891   2.472   6.488  15.277  0.6208 -0.3912 -1.4606
 1826TIP3   OH226892   3.478   5.647   6.709 -0.5501  0.6016  0.3368
 1826TIP3    H126893   3.427   5.711   6.660  1.1350  2.5248  1.0133
 1826TIP3    H226894   3.566   5.653   6.672 -0.2024 -0.8326  0.8969
 1827TIP3   OH226895   1.943   4.244  13.410 -0.3509 -0.1064  0.5499
 1827TIP3    H126896   1.954   4.255  13.504  0.7939  0.0348  0.4102
 1827TIP3    H226897   1.996   4.167  13.388 -0.7802 -0.2661  0.0540
 1828TIP3   OH226898   5.177   1.539  12.593 -1.2825 -0.3553  0.8800
 1828TIP3    H126899   5.213   1.461  12.637  0.9596  0.4580  0.5210
 1828TIP3    H226900   5.102   1.505  12.544 -1.5265 -1.9494  2.2801
 1829TIP3   OH226901   1.420   3.920   1.537 -0.2763  0.2264 -0.3892
 1829TIP3    H126902   1.402   3.987   1.603 -0.5777  0.6702 -0.9222
 1829TIP3    H226903   1.513   3.930   1.517  0.6020 -1.9759  2.2654
 1830TIP3   OH226904   6.758   1.190   1.259 -0.2915  0.1105 -0.1116
 1830TIP3    H126905   6.676   1.221   1.221  0.3574  0.3001 -1.4019
 1830TIP3    H226906   6.734   1.110   1.305 -1.4891  1.0517  0.9398
 1831TIP3   OH226907   0.191   6.559  11.098 -0.0446  0.1939  0.5215
 1831TIP3    H126908   0.200   6.493  11.167  1.8396 -0.9027 -0.7470
 1831TIP3    H226909   0.114   6.530  11.049 -1.2076  0.8040  1.9414
 1832TIP3   OH226910   4.399   2.579  13.658  0.4109  0.4769 -0.0124
 1832TIP3    H126911   4.344   2.632  13.600 -1.5959 -0.6073  0.8189
 1832TIP3    H226912   4.416   2.634  13.734 -0.4062  0.4734  0.1777
 1833TIP3   OH226913   4.343   0.538   5.020 -0.9050  0.4520 -0.1926
 1833TIP3    H126914   4.298   0.585   5.090 -1.3198 -0.5448  0.2115
 1833TIP3    H226915   4.369   0.455   5.059  2.2549  1.4261 -0.0989
 1834TIP3   OH226916   3.192   5.264  17.104  0.3523 -0.1631  0.8156
 1834TIP3    H126917   3.103   5.232  17.120 -0.9727  2.0782 -1.7027
 1834TIP3    H226918   3.219   5.217  17.025  1.8788 -1.6740  2.2069
 1835TIP3   OH226919   5.486   1.996  16.999 -0.3635  0.1906 -0.2829
 1835TIP3    H126920   5.549   1.952  17.056 -0.0507 -0.3788 -1.0792
 1835TIP3    H226921   5.431   2.046  17.060  0.2001 -0.1245  0.4971
 1836TIP3   OH226922   0.195   3.380  11.477  0.3831  0.4643 -0.3066
 1836TIP3    H126923   0.288   3.382  11.454  0.3549 -0.2322 -0.5115
 1836TIP3    H226924   0.192   3.399  11.570  0.8100 -0.4038 -0.1091
 1837TIP3   OH226925   5.313   3.316   1.110 -0.9217  0.0601  0.3542
 1837TIP3    H126926   5.260   3.274   1.179 -2.0233 -1.3896 -1.3163
 1837TIP3    H226927   5.275   3.284   1.028  1.1542  0.7712 -0.9270
 1838TIP3   OH226928   1.298   6.322  11.677 -0.3855  0.3079 -0.1009
 1838TIP3    H126929   1.220   6.377  11.671 -0.2402  0.5671  0.3827
 1838TIP3    H226930   1.264   6.233  11.690 -0.5948  0.4871  0.6037
 1839TIP3   OH226931   4.181   5.041  11.336 -0.4084  0.3362 -0.3531
 1839TIP3    H126932   4.206   4.958  11.379 -1.4450  0.5168  0.6311
 1839TIP3    H226933   4.166   5.017  11.245  1.2644 -0.1762 -0.5129
 1840TIP3   OH226934   2.737   1.774  16.677 -0.3240  0.0426 -0.0283
 1840TIP3    H126935   2.708   1.701  16.622  2.9423  0.4939 -2.5732
 1840TIP3    H226936   2.713   1.852  16.627  0.4968  0.5346  0.3419
 1841TIP3   OH226937   2.319   1.642   5.401 -0.3394  0.4845  0.5020
 1841TIP3    H126938   2.287   1.633   5.311 -0.3270  0.7763  0.4699
 1841TIP3    H226939   2.288   1.728   5.429 -0.2066  0.4605  0.7230
 1842TIP3   OH226940   2.459   2.827  14.191  0.6586  0.1160 -0.0116
 1842TIP3    H126941   2.366   2.805  14.199  0.0762  2.2556 -0.3463
 1842TIP3    H226942   2.503   2.743  14.181 -1.1030 -1.0292  1.4495
 1843TIP3   OH226943   6.667   3.234  12.597  0.5078 -0.7279  0.1838
 1843TIP3    H126944   6.732   3.242  12.528  0.1697 -0.6208 -0.1219
 1843TIP3    H226945   6.667   3.319  12.641 -2.2892  0.6558 -2.3646
 1844TIP3   OH226946   6.426   2.113  13.203 -0.2944 -0.4213  0.4036
 1844TIP3    H126947   6.429   2.175  13.276 -1.2667  0.5004 -0.3106
 1844TIP3    H226948   6.396   2.031  13.242 -0.1576 -0.1107  1.1617
 1845TIP3   OH226949   0.854   3.352  15.562 -0.2446  0.6821 -0.2546
 1845TIP3    H126950   0.819   3.380  15.646 -1.1552 -0.0228 -0.3799
 1845TIP3    H226951   0.789   3.382  15.498 -0.7016 -0.7441 -0.4810
 1846TIP3   OH226952   2.704   2.390  16.791 -0.3798 -0.3351 -0.0930
 1846TIP3    H126953   2.625   2.338  16.800  0.4589 -1.8965 -1.5654
 1846TIP3    H226954   2.699   2.425  16.702  1.0628 -1.2557 -0.5433
 1847TIP3   OH226955   1.733   3.156   1.420 -0.0990  0.1816  0.1576
 1847TIP3    H126956   1.694   3.140   1.334  1.0426  0.1440 -0.3519
 1847TIP3    H226957   1.779   3.074   1.440 -1.6418 -0.3974  1.5043
 1848TIP3   OH226958   3.968   4.430  15.703 -0.1318 -0.1333  0.2198
 1848TIP3    H126959   3.990   4.390  15.788  0.7142 -0.3982 -0.1255
 1848TIP3    H226960   3.877   4.403  15.689  0.3808 -1.8831  0.0508
 1849TIP3   OH226961   4.155   0.041   4.882  0.3793 -0.4715 -0.0186
 1849TIP3    H126962   4.177  -0.028   4.819 -1.4269 -1.3003  0.2047
 1849TIP3    H226963   4.146  -0.005   4.965  1.9006  0.4903  0.7003
 1850TIP3   OH226964   5.588   6.188   0.469  0.0636 -0.4144  0.0647
 1850TIP3    H126965   5.530   6.241   0.523 -0.8857 -2.3175  0.9643
 1850TIP3    H226966   5.635   6.252   0.415 -1.4928  1.2861  0.6455
 1851TIP3   OH226967   2.446   3.757  14.762  0.1758 -0.3426 -0.1237
 1851TIP3    H126968   2.414   3.829  14.708 -0.1025  0.0523  0.5619
 1851TIP3    H226969   2.368   3.703  14.779  0.3738 -0.7783 -0.5947
 1852TIP3   OH226970   0.415   3.962   5.510 -0.1199  0.6511 -0.4338
 1852TIP3    H126971   0.378   4.048   5.530  1.1879  1.0923  0.2082
 1852TIP3    H226972   0.490   3.954   5.569 -1.5442 -1.8998  1.1310
 1853TIP3   OH226973   1.160   5.239  14.415  0.8520 -0.3722 -0.3544
 1853TIP3    H126974   1.213   5.185  14.474 -0.3265  1.0562  2.1056
 1853TIP3    H226975   1.173   5.328  14.447  1.1830  0.6075 -3.0966
 1854TIP3   OH226976   2.328   1.444  16.793  0.3231  0.3456 -0.3459
 1854TIP3    H126977   2.244   1.449  16.748  2.1351 -1.5819 -4.1865
 1854TIP3    H226978   2.313   1.383  16.866 -1.2890 -1.0233 -1.7893
 1855TIP3   OH226979   4.455   5.157   1.272 -0.1621 -0.0079  0.2794
 1855TIP3    H126980   4.466   5.203   1.355  1.3635 -1.0514  0.6770
 1855TIP3    H226981   4.529   5.096   1.268 -1.4039 -1.4791 -0.8505
 1856TIP3   OH226982   2.029   3.797  15.353  0.0707 -0.7604 -0.4184
 1856TIP3    H126983   2.111   3.758  15.384  0.3721  1.7480  2.1550
 1856TIP3    H226984   2.057   3.861  15.287 -0.0972 -2.1505 -1.8455
 1857TIP3   OH226985   5.741   2.824  12.901 -0.4517  0.3978 -0.4044
 1857TIP3    H126986   5.718   2.731  12.906  0.7750  0.1134  0.3127
 1857TIP3    H226987   5.810   2.828  12.835  0.4748  0.5628  0.5409
 1858TIP3   OH226988   2.459   2.793   1.355  0.6149  0.2552  0.5598
 1858TIP3    H126989   2.541   2.832   1.326  0.9305 -0.5044  0.4252
 1858TIP3    H226990   2.424   2.855   1.419  1.9122 -0.0094  1.5441
 1859TIP3   OH226991   4.292   5.509   5.342 -0.0354 -0.0634  0.2098
 1859TIP3    H126992   4.289   5.500   5.438 -2.4656 -0.5689  0.1284
 1859TIP3    H226993   4.291   5.419   5.310 -1.6023  0.1103 -0.2957
 1860TIP3   OH226994   6.299   5.862  16.573  0.4636 -0.5458  0.0391
 1860TIP3    H126995   6.330   5.773  16.557  1.0572 -0.2527 -0.4697
 1860TIP3    H226996   6.376   5.917  16.557  0.3293 -0.0094  1.1709
 1861TIP3   OH226997   3.760   4.005  14.729  0.2517  0.4352  0.0446
 1861TIP3    H126998   3.838   3.968  14.770 -0.8885 -2.3542 -0.1818
 1861TIP3    H226999   3.700   4.021  14.801  0.0060  0.0016 -0.0666
 1862TIP3   OH227000   5.812   4.925  12.295 -0.3046  0.0598  0.6344
 1862TIP3    H127001   5.784   4.907  12.384 -1.8175  0.7089  0.2973
 1862TIP3    H227002   5.752   4.875  12.240  0.4759 -0.1540 -0.0409
 1863TIP3   OH227003   4.805   6.343  15.337 -0.5182  0.1022 -0.5518
 1863TIP3    H127004   4.747   6.372  15.407 -1.7514 -1.5106 -0.8880
 1863TIP3    H227005   4.893   6.352  15.373 -1.0950  0.2982  0.8198
 1864TIP3   OH227006   1.164   3.661   0.020 -0.1934  0.5970 -0.3299
 1864TIP3    H127007   1.124   3.647  -0.066  0.2371  3.5091 -1.0527
 1864TIP3    H227008   1.097   3.709   0.069 -0.1005 -0.3129  0.6935
 1865TIP3   OH227009   3.725   0.836   0.721 -0.1446  0.1580 -0.3592
 1865TIP3    H127010   3.656   0.778   0.689  0.6370 -0.4219 -1.0463
 1865TIP3    H227011   3.698   0.924   0.693 -1.0671  0.0541  0.2139
 1866TIP3   OH227012   5.449   5.198   4.560 -0.1353  0.2798 -0.4015
 1866TIP3    H127013   5.478   5.110   4.533 -0.5829  0.2525 -0.7987
 1866TIP3    H227014   5.451   5.195   4.656  1.1279  0.2625 -0.4203
 1867TIP3   OH227015   1.345   2.443  12.016 -0.1053 -0.6453 -0.3907
 1867TIP3    H127016   1.438   2.425  12.009  0.5609  2.7609 -1.2856
 1867TIP3    H227017   1.338   2.506  12.088 -1.5477  0.1816 -1.2246
 1868TIP3   OH227018   3.994   3.309   1.378  0.9685 -0.3472  0.5162
 1868TIP3    H127019   3.903   3.290   1.401  0.9147 -0.5001  0.1714
 1868TIP3    H227020   3.998   3.404   1.374  0.3417 -0.3909 -1.4366
 1869TIP3   OH227021   4.367   6.204   5.637  0.4650  0.1916 -0.0881
 1869TIP3    H127022   4.433   6.150   5.593 -0.4790 -0.6534 -0.4729
 1869TIP3    H227023   4.383   6.188   5.731  0.9608  0.1821 -0.1688
 1870TIP3   OH227024   3.083   0.541   4.328 -0.0860  0.8189 -0.7057
 1870TIP3    H127025   3.106   0.467   4.271 -0.0747  1.1963 -1.1923
 1870TIP3    H227026   3.165   0.567   4.369 -0.2099  0.1172 -0.0009
 1871TIP3   OH227027   4.880   3.344  11.457 -0.5321  0.0916  0.1121
 1871TIP3    H127028   4.851   3.431  11.485  0.4925  0.4208  0.1816
 1871TIP3    H227029   4.963   3.331  11.503 -0.0372 -0.3759 -0.8990
 1872TIP3   OH227030   1.323   2.247   1.262 -0.8053 -0.2120 -0.2284
 1872TIP3    H127031   1.232   2.258   1.289 -0.4882  1.6560  0.1740
 1872TIP3    H227032   1.354   2.170   1.310 -1.8991 -0.3070  0.3365
 1873TIP3   OH227033   0.301   5.232   5.121 -0.2762 -0.5003 -0.0907
 1873TIP3    H127034   0.371   5.271   5.173  0.8213 -1.2288 -0.9960
 1873TIP3    H227035   0.312   5.137   5.132  1.2590 -0.7629 -3.2137
 1874TIP3   OH227036   4.006   0.366  14.185 -0.6376  0.2648  0.2362
 1874TIP3    H127037   3.988   0.411  14.102  0.5659  2.2732  1.0241
 1874TIP3    H227038   3.951   0.409  14.249 -1.0258 -0.8101  0.6459
 1875TIP3   OH227039   1.133   3.778  13.506 -0.2177  0.4650  0.8111
 1875TIP3    H127040   1.081   3.832  13.448 -0.2345  0.3457  0.7162
 1875TIP3    H227041   1.204   3.744  13.451 -1.5794 -1.5857  0.2786
 1876TIP3   OH227042   2.496   1.598   4.102 -0.2122  0.1214  0.1587
 1876TIP3    H127043   2.569   1.634   4.153 -0.0453 -0.0106  0.0136
 1876TIP3    H227044   2.537   1.563   4.023 -0.5624  1.0700 -0.4647
 1877TIP3   OH227045   4.690   3.514  13.432  0.7191  0.4205 -0.3813
 1877TIP3    H127046   4.597   3.490  13.426  0.5583  1.4775 -3.2567
 1877TIP3    H227047   4.690   3.598  13.477  0.2163  0.7132 -0.9174
 1878TIP3   OH227048   5.235   1.349   0.951  0.6508  0.2061  0.0016
 1878TIP3    H127049   5.295   1.413   0.990  0.8226  0.6855 -1.0583
 1878TIP3    H227050   5.262   1.265   0.991  0.5860  0.7457  1.1915
 1879TIP3   OH227051   2.161   1.461  17.074 -0.1534  0.9248  0.2191
 1879TIP3    H127052   2.183   1.368  17.068 -0.6125  0.8689 -0.8845
 1879TIP3    H227053   2.079   1.468  17.026  1.3377  2.3786 -2.2015
 1880TIP3   OH227054   4.487   4.280  13.730  1.0011  0.3073 -0.5235
 1880TIP3    H127055   4.502   4.254  13.821  0.2717  1.5117 -0.0515
 1880TIP3    H227056   4.397   4.255  13.712  0.7951  1.0925 -0.5682
 1881TIP3   OH227057   5.579   0.231   1.026 -0.0871 -0.6317 -0.3497
 1881TIP3    H127058   5.655   0.289   1.025  0.3636 -1.1405  1.7133
 1881TIP3    H227059   5.517   0.271   0.965  1.3565  0.4428 -1.1335
 1882TIP3   OH227060   2.198   4.840   2.593 -0.1306  0.4477 -0.0913
 1882TIP3    H127061   2.246   4.759   2.575  0.1934  0.7422 -0.5608
 1882TIP3    H227062   2.261   4.895   2.638 -0.9222 -0.2705  1.9507
 1883TIP3   OH227063   2.396   1.080   2.601 -0.0373 -0.1517  0.1374
 1883TIP3    H127064   2.392   1.173   2.580 -0.8414 -0.3850 -0.7911
 1883TIP3    H227065   2.477   1.049   2.560  0.1000  0.0747  0.2350
 1884TIP3   OH227066   4.163   3.117  16.021 -0.1234 -0.2872  0.0153
 1884TIP3    H127067   4.194   3.192  15.971 -0.2906 -0.7360 -0.7641
 1884TIP3    H227068   4.072   3.137  16.042 -0.2914 -0.4433 -0.5407
 1885TIP3   OH227069   0.795   2.929  14.282  0.5336  0.1565 -0.7805
 1885TIP3    H127070   0.711   2.892  14.256  0.6628  0.3337 -1.4532
 1885TIP3    H227071   0.774   2.988  14.355  0.2601 -0.8211 -0.0726
 1886TIP3   OH227072   4.676   4.485  16.712  0.0492  0.1783 -0.0819
 1886TIP3    H127073   4.664   4.580  16.714  0.9532  0.2979 -0.3104
 1886TIP3    H227074   4.591   4.450  16.738  0.2819  1.0994  2.0204
 1887TIP3   OH227075   1.335   2.056   5.062  0.1036  0.2161 -0.3455
 1887TIP3    H127076   1.403   2.121   5.078 -0.4605  1.6323 -3.3997
 1887TIP3    H227077   1.274   2.099   5.002 -2.2857 -1.8226  0.5338
 1888TIP3   OH227078   4.402   1.051   3.899 -0.6342 -0.4882  0.2507
 1888TIP3    H127079   4.417   1.145   3.901  1.4813 -0.7646 -0.7441
 1888TIP3    H227080   4.316   1.041   3.859 -1.1882  1.0411  1.0336
 1889TIP3   OH227081   1.535   2.659   2.328  0.7059 -0.0237  0.6076
 1889TIP3    H127082   1.512   2.575   2.368 -0.2924  0.0507  0.1892
 1889TIP3    H227083   1.592   2.636   2.254  0.9629 -0.2841  0.8845
 1890TIP3   OH227084   6.596   2.276   5.076 -0.0002 -0.2286 -0.3769
 1890TIP3    H127085   6.511   2.235   5.066 -1.4095  2.2978  0.7106
 1890TIP3    H227086   6.621   2.258   5.167 -0.7869  1.5301  0.2119
 1891TIP3   OH227087   6.781   1.839   0.560  0.0768  0.3091 -0.1499
 1891TIP3    H127088   6.747   1.871   0.643 -0.0413  0.1792 -0.1490
 1891TIP3    H227089   6.834   1.762   0.583 -1.2147 -0.6573 -0.3581
 1892TIP3   OH227090   3.948   6.075  15.736 -0.6353  0.8286  0.1763
 1892TIP3    H127091   3.939   6.012  15.808 -1.6550  2.0527  1.1394
 1892TIP3    H227092   3.898   6.036  15.664 -1.4295  0.6189  0.8334
 1893TIP3   OH227093   4.118   5.805  12.001  0.0985 -0.0544 -0.1353
 1893TIP3    H127094   4.118   5.722  12.049 -1.2305  0.8112  1.4115
 1893TIP3    H227095   4.191   5.797  11.939  0.9822 -1.7431  1.0880
 1894TIP3   OH227096   0.018   0.627   2.120  0.4204  0.0378 -0.2975
 1894TIP3    H127097   0.042   0.539   2.090 -0.9938 -0.2956 -0.4492
 1894TIP3    H227098   0.012   0.618   2.215 -1.7321 -0.5475 -0.4594
 1895TIP3   OH227099   4.127   3.473  12.648 -0.3714 -0.1461  0.3554
 1895TIP3    H127100   4.153   3.414  12.577  0.0542  2.6038 -1.8515
 1895TIP3    H227101   4.043   3.440  12.678 -1.1096 -0.6707 -2.2342
 1896TIP3   OH227102   0.039   4.481   5.523  0.0469 -0.2877  0.3010
 1896TIP3    H127103   0.094   4.549   5.562 -1.9331  0.4048  1.9652
 1896TIP3    H227104   0.035   4.412   5.590 -2.3286  0.3413  0.8423
 1897TIP3   OH227105   4.753   0.804  13.348  1.0022  0.2318 -0.0481
 1897TIP3    H127106   4.752   0.815  13.253 -1.1010  0.8930  0.0321
 1897TIP3    H227107   4.669   0.838  13.377  0.9674 -1.4238  1.9067
 1898TIP3   OH227108   1.192   3.822  14.924  0.7233  0.6501  0.2575
 1898TIP3    H127109   1.099   3.811  14.904  1.0757 -1.4803 -0.2803
 1898TIP3    H227110   1.229   3.860  14.845  0.3829  1.2348  0.3690
 1899TIP3   OH227111   1.546   6.141  16.496 -0.0780 -0.2466 -0.1617
 1899TIP3    H127112   1.491   6.211  16.531  1.6743  0.9947  0.1891
 1899TIP3    H227113   1.548   6.156  16.402 -2.3041 -1.7637 -0.4815
 1900TIP3   OH227114   1.752   1.452  15.889 -0.0735  0.1036  0.4104
 1900TIP3    H127115   1.823   1.387  15.890  1.6953  1.9293 -0.6419
 1900TIP3    H227116   1.781   1.518  15.825 -2.4596  1.2116  0.4074
 1901TIP3   OH227117   3.679   3.209   4.639 -0.5851  0.5401 -0.1621
 1901TIP3    H127118   3.635   3.167   4.713  0.4151 -0.5803 -0.1795
 1901TIP3    H227119   3.723   3.285   4.677  0.5774 -0.4737  0.5623
 1902TIP3   OH227120   5.685   3.281  11.709 -0.2950 -0.0579  0.2421
 1902TIP3    H127121   5.609   3.263  11.766 -0.2273 -1.1385  0.0084
 1902TIP3    H227122   5.654   3.260  11.621  0.1171  0.0069  0.0825
 1903TIP3   OH227123   5.316   6.109  17.107  0.3580  0.0821 -0.0958
 1903TIP3    H127124   5.290   6.190  17.150  2.0195 -0.6940  2.4182
 1903TIP3    H227125   5.400   6.086  17.145  0.3957 -2.3146 -1.4929
 1904TIP3   OH227126   6.415   6.608   4.316 -0.1053 -0.0876  0.4307
 1904TIP3    H127127   6.352   6.668   4.276  1.2277  0.4733 -0.8893
 1904TIP3    H227128   6.463   6.571   4.242  1.3895 -0.2016  1.4272
 1905TIP3   OH227129   3.533   0.736  11.221  0.1360 -0.5645 -0.7052
 1905TIP3    H127130   3.444   0.743  11.186  0.0116 -0.4076 -0.3637
 1905TIP3    H227131   3.579   0.812  11.188 -0.8829  1.3332  2.0598
 1906TIP3   OH227132   0.935   6.141  16.318  0.4409 -0.1161  0.4200
 1906TIP3    H127133   0.913   6.048  16.307 -3.0428  0.5755  1.0502
 1906TIP3    H227134   0.954   6.150  16.411 -0.3378  0.0193  0.5673
 1907TIP3   OH227135   0.905   5.646   3.728  0.1601  0.1873  0.4974
 1907TIP3    H127136   0.929   5.554   3.730 -0.4994 -0.0060 -0.3737
 1907TIP3    H227137   0.935   5.677   3.642 -1.2774  0.3348  0.0426
 1908TIP3   OH227138   5.618   2.524  14.688 -0.0219 -0.3769 -0.3053
 1908TIP3    H127139   5.538   2.569  14.715 -0.9591 -2.1667 -0.0478
 1908TIP3    H227140   5.681   2.595  14.674 -0.9936  0.9281  1.6000
 1909TIP3   OH227141   3.537   1.116  15.667 -0.9459  0.1076 -0.4154
 1909TIP3    H127142   3.518   1.061  15.743 -2.6027  0.1990 -0.7373
 1909TIP3    H227143   3.457   1.112  15.614 -0.6540  1.8962 -1.0184
 1910TIP3   OH227144   3.766   2.293   5.314 -0.0996  0.5158 -0.3489
 1910TIP3    H127145   3.808   2.237   5.249 -0.7040  1.1295 -1.2754
 1910TIP3    H227146   3.765   2.380   5.274 -0.9909  0.7861  0.2398
 1911TIP3   OH227147   4.960   0.684   1.886 -0.2086  0.4968 -0.1173
 1911TIP3    H127148   4.892   0.685   1.954  1.2514 -0.3390  1.3874
 1911TIP3    H227149   5.029   0.741   1.920  0.7140 -0.2510 -0.7247
 1912TIP3   OH227150   1.215   3.799  11.959  0.1624 -0.3637 -0.4702
 1912TIP3    H127151   1.128   3.828  11.985  0.4230 -1.5412  1.8168
 1912TIP3    H227152   1.220   3.708  11.988  2.2865 -0.2021 -0.2594
 1913TIP3   OH227153   6.268   4.218  10.376 -0.7590  0.4676 -0.7120
 1913TIP3    H127154   6.193   4.276  10.380  0.3151  1.6887  3.5325
 1913TIP3    H227155   6.241   4.139  10.422 -0.4989 -0.4163 -2.0333
 1914TIP3   OH227156   1.737   2.545   1.402 -0.4835 -0.3269 -0.4919
 1914TIP3    H127157   1.733   2.639   1.383  0.3008 -0.1848  0.0004
 1914TIP3    H227158   1.668   2.506   1.348 -0.9612  0.5609 -0.5257
 1915TIP3   OH227159   1.737   4.296   6.112 -0.2440  0.3538  0.2335
 1915TIP3    H127160   1.759   4.386   6.087 -0.0718  0.6359  1.3659
 1915TIP3    H227161   1.755   4.244   6.033  1.0395  1.1065  0.0180
 1916TIP3   OH227162   3.375   2.006   6.091 -0.0322  0.1641  0.1883
 1916TIP3    H127163   3.280   1.993   6.098 -0.3455  1.3423 -1.5269
 1916TIP3    H227164   3.402   2.033   6.179 -2.0149  4.0240 -0.2447
 1917TIP3   OH227165   5.492   3.271   1.519 -0.3698  0.3558  0.0461
 1917TIP3    H127166   5.507   3.182   1.552 -1.9511 -0.2349 -0.7465
 1917TIP3    H227167   5.558   3.282   1.451 -0.7308 -0.5812 -0.4735
 1918TIP3   OH227168   4.698   1.969  13.894  0.8961  0.4673  0.2741
 1918TIP3    H127169   4.641   2.024  13.947 -0.8749 -0.0454 -1.0768
 1918TIP3    H227170   4.775   2.024  13.876  0.3873  1.5074  1.2448
 1919TIP3   OH227171   5.164   1.875   1.152 -0.2495  0.6560 -0.5810
 1919TIP3    H127172   5.238   1.816   1.164  0.9343  1.6177 -2.8288
 1919TIP3    H227173   5.201   1.963   1.162 -1.3412  1.1220 -0.4970
 1920TIP3   OH227174   5.677   2.479   5.534 -0.1112 -0.3463  0.6006
 1920TIP3    H127175   5.652   2.387   5.536  1.5497 -0.8018  1.1946
 1920TIP3    H227176   5.713   2.493   5.447  1.5127 -0.7928  1.1798
 1921TIP3   OH227177   1.217   1.421  13.053  0.3537 -0.0499 -0.0764
 1921TIP3    H127178   1.293   1.382  13.097 -0.1323 -0.1542  0.6728
 1921TIP3    H227179   1.146   1.415  13.117 -0.0082  1.0651 -0.3629
 1922TIP3   OH227180   3.362   5.675  11.287  0.2226  0.3266  0.3545
 1922TIP3    H127181   3.449   5.699  11.254 -0.0293  0.4646 -0.2149
 1922TIP3    H227182   3.343   5.592  11.244 -0.0092  0.3942  0.3283
 1923TIP3   OH227183   1.951   3.060   2.311 -0.4621  0.4358  0.1338
 1923TIP3    H127184   2.035   3.020   2.290 -0.5023  0.1012  0.6042
 1923TIP3    H227185   1.949   3.063   2.407  0.1957  2.9583  0.0903
 1924TIP3   OH227186   6.773   4.860  14.636 -0.5669 -0.0634 -0.3830
 1924TIP3    H127187   6.729   4.890  14.557  0.4165  0.5399 -0.7195
 1924TIP3    H227188   6.866   4.864  14.614 -0.2078  1.5476  1.3011
 1925TIP3   OH227189   3.878   5.992   0.188  0.5745  0.2399 -0.3534
 1925TIP3    H127190   3.941   5.924   0.167  0.8610  0.8193 -1.4089
 1925TIP3    H227191   3.913   6.071   0.147 -1.3457  0.3515 -1.8632
 1926TIP3   OH227192   0.361   2.768   2.064  0.3896 -0.3135  0.1551
 1926TIP3    H127193   0.413   2.776   1.984 -1.5076  0.7069 -1.0012
 1926TIP3    H227194   0.309   2.689   2.051 -0.9678  0.6205 -0.2850
 1927TIP3   OH227195   4.420   2.056   0.631  0.0005  0.7098  0.0514
 1927TIP3    H127196   4.378   1.970   0.637 -0.3913  0.7987 -1.3377
 1927TIP3    H227197   4.475   2.060   0.709  1.6587 -1.6841 -0.9149
 1928TIP3   OH227198   3.327   2.179  16.665  0.4976 -0.1958 -1.0153
 1928TIP3    H127199   3.283   2.220  16.590  1.4529  1.7022 -0.5475
 1928TIP3    H227200   3.273   2.103  16.685 -2.1380  1.6634 -0.9327
 1929TIP3   OH227201   5.445   2.455   2.298 -0.2618 -0.3830 -0.0294
 1929TIP3    H127202   5.488   2.514   2.235 -1.2238  1.4750  1.0025
 1929TIP3    H227203   5.515   2.398   2.329  0.4476 -0.5733 -1.9456
 1930TIP3   OH227204   1.762   1.715  12.902 -0.0449  0.0686  0.1299
 1930TIP3    H127205   1.715   1.703  12.984 -0.1032  0.8674  0.2149
 1930TIP3    H227206   1.843   1.759  12.926 -1.0695  2.3573 -0.5096
 1931TIP3   OH227207   0.804   4.962   4.913  0.3596 -0.2689  0.5830
 1931TIP3    H127208   0.871   5.013   4.868  1.2914 -0.0996  2.1113
 1931TIP3    H227209   0.852   4.896   4.962 -0.6755 -0.9571  0.6971
 1932TIP3   OH227210   6.408   3.152  15.583 -0.0334  0.4160 -0.2817
 1932TIP3    H127211   6.363   3.071  15.560 -0.3735  0.7767 -0.9046
 1932TIP3    H227212   6.491   3.124  15.621  1.1706 -0.1999 -3.2367
 1933TIP3   OH227213   2.059   5.539   4.595  0.3676 -0.7401 -0.3404
 1933TIP3    H127214   2.128   5.595   4.560  1.1211 -0.5237  1.4230
 1933TIP3    H227215   2.081   5.451   4.565  1.2124 -0.6137 -0.1039
 1934TIP3   OH227216   5.625   4.294  12.483 -0.5769  0.4217 -0.2567
 1934TIP3    H127217   5.580   4.215  12.453  2.2360 -1.5535  0.4615
 1934TIP3    H227218   5.622   4.290  12.578  1.5773 -0.0885 -0.1747
 1935TIP3   OH227219   3.572   2.072   4.320  0.2328 -0.2431 -0.2490
 1935TIP3    H127220   3.523   2.033   4.248  1.5077 -1.1266 -0.6684
 1935TIP3    H227221   3.512   2.072   4.394 -1.2423  1.0698 -1.4238
 1936TIP3   OH227222   4.358   0.978  11.730  0.2417 -0.2720  0.1305
 1936TIP3    H127223   4.292   0.977  11.799 -0.1408  0.9025 -0.2019
 1936TIP3    H227224   4.437   1.013  11.772 -0.1463  0.9613 -0.1527
 1937TIP3   OH227225   5.290   0.409  13.500 -0.4663  0.3054 -0.7706
 1937TIP3    H127226   5.294   0.366  13.586 -0.5165 -1.3759 -1.5908
 1937TIP3    H227227   5.373   0.458  13.493 -0.0599 -0.2938 -0.1512
 1938TIP3   OH227228   0.680   6.017  13.505 -0.4801  0.0446  0.7805
 1938TIP3    H127229   0.595   6.060  13.500 -0.0544  0.8376  0.0833
 1938TIP3    H227230   0.716   6.043  13.590 -0.5994  0.3567  0.7343
 1939TIP3   OH227231   3.170   5.997  15.711  0.2132  0.5561  0.4001
 1939TIP3    H127232   3.080   6.020  15.734  0.1986 -0.4265  1.3366
 1939TIP3    H227233   3.168   5.985  15.616 -0.6605  0.4502  0.4321
 1940TIP3   OH227234   5.661   0.537  13.685  0.4404 -0.5635  0.0670
 1940TIP3    H127235   5.726   0.544  13.615  1.3196 -1.4862  0.7742
 1940TIP3    H227236   5.711   0.546  13.765 -0.6798  1.3389  0.5799
 1941TIP3   OH227237   3.458   1.258   4.747 -0.5705  0.4467 -0.0530
 1941TIP3    H127238   3.432   1.218   4.664 -0.9892 -1.3239  0.9013
 1941TIP3    H227239   3.550   1.234   4.758 -0.3860  1.0683 -0.2169
 1942TIP3   OH227240   6.605   4.006  11.979  0.3857  0.3712 -0.0316
 1942TIP3    H127241   6.649   3.992  12.063  0.4750  0.9431  0.0234
 1942TIP3    H227242   6.529   3.949  11.982  2.0706 -2.0189 -0.8604
 1943TIP3   OH227243   0.569   1.021   4.182  0.1107  0.2314 -0.5602
 1943TIP3    H127244   0.512   0.964   4.130  1.0915  0.2881 -1.7063
 1943TIP3    H227245   0.639   0.964   4.213 -0.6187  0.1305  0.9771
 1944TIP3   OH227246   4.777   0.489  16.278 -0.2964 -0.0166 -0.7744
 1944TIP3    H127247   4.864   0.528  16.268  0.4045 -1.0894  1.0766
 1944TIP3    H227248   4.775   0.417  16.215  0.5850 -0.7234  0.0051
 1945TIP3   OH227249   5.086   2.867  14.154 -0.5857  0.1347  0.4830
 1945TIP3    H127250   5.007   2.856  14.207  0.4945  0.8107  2.2444
 1945TIP3    H227251   5.157   2.875  14.217  1.1859 -2.3260 -1.1164
 1946TIP3   OH227252   5.656   1.002   0.305 -0.2214  0.1904  0.4644
 1946TIP3    H127253   5.701   1.081   0.338  1.5981 -0.9077  0.6778
 1946TIP3    H227254   5.564   1.027   0.304  0.4159  2.7246 -0.5541
 1947TIP3   OH227255   3.512   3.571  11.298  0.2166 -0.3209 -0.2984
 1947TIP3    H127256   3.581   3.572  11.364 -0.3676  1.2949  0.3187
 1947TIP3    H227257   3.546   3.625  11.226 -0.2859  0.2487 -0.1107
 1948TIP3   OH227258   6.656   3.786  15.020 -0.2207  0.1446 -0.1686
 1948TIP3    H127259   6.660   3.815  14.928 -0.0078 -0.8092 -0.4666
 1948TIP3    H227260   6.579   3.729  15.023 -0.3519  0.3513  0.2923
 1949TIP3   OH227261   5.208   5.027   4.763  0.5495  0.1476  0.5304
 1949TIP3    H127262   5.164   5.000   4.844  1.1177 -0.5213  0.6102
 1949TIP3    H227263   5.145   5.007   4.694  0.3149  0.1438  0.7443
 1950TIP3   OH227264   2.912   5.415   0.063 -1.3446  0.1019 -0.4232
 1950TIP3    H127265   2.844   5.368   0.111 -2.4597  1.9259 -0.1737
 1950TIP3    H227266   2.876   5.503   0.050  0.9481  1.0954 -0.3198
 1951TIP3   OH227267   0.492   3.357  15.034  0.1758 -0.3316 -0.2221
 1951TIP3    H127268   0.585   3.368  15.056  0.4533  0.5087 -1.6864
 1951TIP3    H227269   0.470   3.437  14.986 -1.5506 -0.1343  0.8703
 1952TIP3   OH227270   1.734   1.942  11.923  0.3390  0.2786  0.3201
 1952TIP3    H127271   1.705   1.998  11.995  1.5424  0.9694  0.2932
 1952TIP3    H227272   1.824   1.972  11.905  0.2890 -0.3438 -1.0065
 1953TIP3   OH227273   1.290   6.268  10.659 -0.0060  0.0136 -0.2907
 1953TIP3    H127274   1.257   6.343  10.709  1.1325  0.2622  0.1215
 1953TIP3    H227275   1.279   6.193  10.718 -1.2480 -0.1666 -0.7459
 1954TIP3   OH227276   6.584   2.533   2.750 -0.0608 -0.0675  0.6545
 1954TIP3    H127277   6.520   2.515   2.819 -1.5398  1.1531 -0.3632
 1954TIP3    H227278   6.664   2.556   2.797 -0.3199 -1.7025  1.9482
 1955TIP3   OH227279   1.225   2.875   5.258  0.0792 -0.4429 -0.0518
 1955TIP3    H127280   1.231   2.784   5.286  0.5890 -0.8904 -1.5527
 1955TIP3    H227281   1.132   2.892   5.250 -0.0121 -0.8663  0.1057
 1956TIP3   OH227282   3.784   3.534   2.866 -0.2830 -0.0408  0.4287
 1956TIP3    H127283   3.839   3.457   2.879  1.4646  1.7054  3.9300
 1956TIP3    H227284   3.843   3.601   2.831 -1.0828  0.6476  0.3745
 1957TIP3   OH227285   2.359   1.332  11.535  0.0528  0.9488  0.5206
 1957TIP3    H127286   2.392   1.418  11.564 -0.6787  2.2133 -2.2950
 1957TIP3    H227287   2.425   1.300  11.474 -0.5563  0.3144  0.1918
 1958TIP3   OH227288   5.116   0.320   3.321  0.5829 -0.2869 -0.2925
 1958TIP3    H127289   5.103   0.349   3.231  1.0012  1.2390  0.1297
 1958TIP3    H227290   5.125   0.401   3.371  1.3365 -1.1439  0.9720
 1959TIP3   OH227291   1.215   3.409  11.097 -0.3443  0.2755 -0.0609
 1959TIP3    H127292   1.156   3.470  11.053 -0.1497  1.3262  1.1068
 1959TIP3    H227293   1.289   3.401  11.037 -0.5885  0.8290 -0.4465
 1960TIP3   OH227294   4.794   6.060  11.409  0.3058 -0.2176  0.3509
 1960TIP3    H127295   4.774   6.153  11.409  0.8572 -0.0911  1.9298
 1960TIP3    H227296   4.708   6.017  11.405  0.0994  0.3487 -1.5192
 1961TIP3   OH227297   2.440   4.871  13.507  0.3100 -0.7820  0.6702
 1961TIP3    H127298   2.534   4.856  13.501  0.2321 -0.9956 -0.0172
 1961TIP3    H227299   2.432   4.965  13.525  0.5603 -0.0856 -2.5903
 1962TIP3   OH227300   3.943   0.456  10.969 -0.3831  0.0413 -0.3492
 1962TIP3    H127301   3.884   0.531  10.967 -2.6883 -1.7757 -1.6139
 1962TIP3    H227302   3.938   0.425  11.060 -1.9363 -0.5332 -0.6183
 1963TIP3   OH227303   5.909   1.705  13.916  0.1987  0.5112 -0.4754
 1963TIP3    H127304   5.832   1.752  13.885  0.3135  1.4602  0.6477
 1963TIP3    H227305   5.956   1.768  13.970 -1.0602 -1.6417  3.3170
 1964TIP3   OH227306   4.909   0.636   5.439  0.4685  0.1538 -0.0860
 1964TIP3    H127307   4.914   0.549   5.400 -0.2796 -0.1351  0.4629
 1964TIP3    H227308   4.983   0.684   5.400  0.5839 -0.5672 -0.7629
 1965TIP3   OH227309   6.380   5.715   3.480 -0.4178  0.2602 -0.4124
 1965TIP3    H127310   6.437   5.707   3.557 -0.1259 -0.9053 -0.7420
 1965TIP3    H227311   6.363   5.809   3.473  1.1443  0.5926 -0.0621
 1966TIP3   OH227312   1.001   6.041  16.722  0.0636  0.0121  0.7626
 1966TIP3    H127313   1.074   6.076  16.670 -0.0068 -0.3511  0.4230
 1966TIP3    H227314   1.035   5.959  16.758 -0.4512 -0.5820 -0.0720
 1967TIP3   OH227315   3.685   4.035   0.311  0.0426  0.2786  0.3136
 1967TIP3    H127316   3.750   4.054   0.379 -2.0597 -0.2048  2.5080
 1967TIP3    H227317   3.716   4.083   0.234  1.2081  2.7393  2.2635
 1968TIP3   OH227318   4.790   4.693  16.513 -0.2260  0.0699 -0.4098
 1968TIP3    H127319   4.717   4.714  16.572  0.7716  0.4470  0.7103
 1968TIP3    H227320   4.815   4.604  16.535  0.5177  0.4068  0.1543
 1969TIP3   OH227321   4.464   5.757   3.958  0.2376 -0.1170  0.1298
 1969TIP3    H127322   4.494   5.711   4.036  1.3577  0.8657  0.2912
 1969TIP3    H227323   4.520   5.723   3.888  2.6091  2.5610  0.6306
 1970TIP3   OH227324   5.701   2.119  13.052 -0.0718 -0.8454 -0.4907
 1970TIP3    H127325   5.726   2.054  13.118 -0.3088 -1.7603 -1.2874
 1970TIP3    H227326   5.661   2.190  13.102  0.3542 -1.2348  0.4061
 1971TIP3   OH227327   1.745   2.269  15.923  0.1612  0.0886 -0.0390
 1971TIP3    H127328   1.757   2.331  15.995 -0.7833  0.3977 -0.1359
 1971TIP3    H227329   1.801   2.302  15.853 -0.3105  0.8139 -0.0764
 1972TIP3   OH227330   0.096   4.789  10.564 -0.8463 -0.4174  0.3466
 1972TIP3    H127331   0.030   4.719  10.559 -0.0068 -1.2400  0.5738
 1972TIP3    H227332   0.141   4.772  10.647 -0.9970  0.7285  0.6688
 1973TIP3   OH227333   6.251   5.915  11.829 -1.4293  0.0159  0.5375
 1973TIP3    H127334   6.216   5.955  11.750 -0.2757 -0.1072 -0.0520
 1973TIP3    H227335   6.221   5.971  11.901  0.1273  1.9467 -0.2594
 1974TIP3   OH227336   5.992   2.827  14.730  0.0212 -0.6103 -0.5470
 1974TIP3    H127337   5.996   2.914  14.769 -0.5027 -0.0175 -1.8171
 1974TIP3    H227338   6.036   2.835  14.646 -0.3904 -1.4717 -0.8538
 1975TIP3   OH227339   2.658   2.562   3.050 -0.1822  0.2484  0.7492
 1975TIP3    H127340   2.712   2.621   2.998 -0.4943 -0.3158 -0.2264
 1975TIP3    H227341   2.586   2.616   3.081 -1.1237  0.1236 -1.1456
 1976TIP3   OH227342   4.882   0.713  12.429  0.0699  0.2619  0.4076
 1976TIP3    H127343   4.966   0.691  12.471  0.0478 -1.3537 -0.3360
 1976TIP3    H227344   4.816   0.688  12.493  0.1527  2.6198  1.4682
 1977TIP3   OH227345   1.190   1.186  12.898 -0.1832 -0.1238 -0.2233
 1977TIP3    H127346   1.226   1.255  12.843 -0.2772  1.1028  1.2312
 1977TIP3    H227347   1.253   1.177  12.970 -2.1616  1.2238  1.7197
 1978TIP3   OH227348   6.523   5.533  12.069  0.5703  0.2509 -0.0674
 1978TIP3    H127349   6.505   5.576  12.152  0.4181  1.2130 -0.5957
 1978TIP3    H227350   6.468   5.578  12.005  1.4702  0.2203 -0.8869
 1979TIP3   OH227351   2.600   3.395   3.833  0.3406  0.4489  0.3477
 1979TIP3    H127352   2.589   3.489   3.842 -1.5820  0.2638  0.0010
 1979TIP3    H227353   2.582   3.360   3.920 -1.5031  0.1723 -0.1435
 1980TIP3   OH227354   6.257   1.293  13.764 -0.4143  0.5157  0.6541
 1980TIP3    H127355   6.305   1.352  13.707 -0.1539  0.7128  1.0794
 1980TIP3    H227356   6.311   1.214  13.769 -0.8281  0.1797 -0.0268
 1981TIP3   OH227357   1.243   0.335   0.442 -0.1451  0.2376  0.0408
 1981TIP3    H127358   1.310   0.269   0.422  0.6077  0.8847  0.3704
 1981TIP3    H227359   1.165   0.285   0.465 -0.7193 -0.5355 -3.4282
 1982TIP3   OH227360   3.386   3.417   4.620  0.3635 -0.1384  0.1518
 1982TIP3    H127361   3.375   3.507   4.650  0.7124 -0.0394 -0.0184
 1982TIP3    H227362   3.409   3.368   4.699  0.7217  0.0219  0.1488
 1983TIP3   OH227363   2.473   0.059   3.960  0.0737 -0.4536  0.2917
 1983TIP3    H127364   2.540   0.090   3.900 -0.4504  1.1265  0.4969
 1983TIP3    H227365   2.507  -0.025   3.993  1.1260 -0.5167 -0.9116
 1984TIP3   OH227366   3.165   1.494  16.060 -0.1603  0.1455 -0.7558
 1984TIP3    H127367   3.171   1.490  15.965 -0.1805 -0.8868 -0.7276
 1984TIP3    H227368   3.256   1.509  16.089 -0.3425  1.7343 -0.9787
 1985TIP3   OH227369   3.979   2.554  16.941 -0.1622 -0.4983 -0.1227
 1985TIP3    H127370   3.907   2.617  16.938  0.5989  0.3182 -1.6036
 1985TIP3    H227371   3.964   2.497  16.866 -0.0410 -1.1963  0.3794
 1986TIP3   OH227372   1.719   6.372  11.456 -0.0272  0.7520 -0.1275
 1986TIP3    H127373   1.723   6.406  11.367 -0.1726  1.8565  0.2761
 1986TIP3    H227374   1.639   6.320  11.459 -0.4395  1.3664 -0.4183
 1987TIP3   OH227375   6.042   4.498   3.124 -0.4552  0.5129  0.1713
 1987TIP3    H127376   6.097   4.571   3.096 -0.5569  0.4875 -0.0958
 1987TIP3    H227377   5.993   4.474   3.046  0.9504 -1.0734 -0.2578
 1988TIP3   OH227378   1.814   3.950  11.676 -0.0853  0.0793  0.0698
 1988TIP3    H127379   1.869   3.915  11.606 -1.0849 -1.4787  0.0246
 1988TIP3    H227380   1.809   3.880  11.740 -0.1531  1.0587  1.1523
 1989TIP3   OH227381   5.899   1.237   4.663 -0.4615  0.5975  0.1660
 1989TIP3    H127382   5.859   1.227   4.750  1.6045 -1.6698  0.9075
 1989TIP3    H227383   5.917   1.331   4.656  1.2984  0.5439  3.1110
 1990TIP3   OH227384   4.914   3.272   0.087 -0.7077 -0.1131 -0.4192
 1990TIP3    H127385   4.952   3.277   0.175 -2.8598 -0.4328  0.5565
 1990TIP3    H227386   4.988   3.247   0.031  0.3094 -1.8070  1.5692
 1991TIP3   OH227387   6.513   3.504   0.620 -0.0348  0.3962 -0.8544
 1991TIP3    H127388   6.543   3.507   0.711 -1.7361  4.5619 -0.3207
 1991TIP3    H227389   6.426   3.464   0.624 -0.4592  1.3332 -0.4922
 1992TIP3   OH227390   5.962   3.740  12.052 -0.1900 -0.1733 -0.3552
 1992TIP3    H127391   5.899   3.779  12.112  1.4593  0.0267  1.3062
 1992TIP3    H227392   6.047   3.756  12.093  0.8284 -1.8415 -1.7272
 1993TIP3   OH227393   5.119   1.273   4.790  0.5224 -0.2120 -0.3148
 1993TIP3    H127394   5.125   1.186   4.829  0.2159 -1.0109 -2.0264
 1993TIP3    H227395   5.166   1.266   4.707  0.5684  1.2787 -0.4344
 1994TIP3   OH227396   2.504   2.059   2.962 -0.2291 -0.4409 -0.0790
 1994TIP3    H127397   2.578   2.013   3.002  0.0686 -0.0098 -0.1414
 1994TIP3    H227398   2.508   2.147   2.998 -0.4303 -0.2807 -0.4503
 1995TIP3   OH227399   4.531   0.380   3.965  0.3756  0.6505 -0.1327
 1995TIP3    H127400   4.502   0.342   3.882  0.1827  0.8819 -0.1705
 1995TIP3    H227401   4.450   0.394   4.014  0.5155  0.1453  0.2502
 1996TIP3   OH227402   2.036   5.818  13.688 -0.1807  0.3595 -0.3264
 1996TIP3    H127403   2.011   5.810  13.596  1.6892  0.5817 -0.8769
 1996TIP3    H227404   2.048   5.912  13.702 -1.6805  0.4366  0.4883
 1997TIP3   OH227405   0.999   0.467  14.275  0.7246  0.5185  0.0506
 1997TIP3    H127406   0.913   0.500  14.250  1.3649  0.7696 -1.9329
 1997TIP3    H227407   0.983   0.381  14.313 -0.3780  0.5444 -0.3581
 1998TIP3   OH227408   3.676   5.085  16.152 -0.0304  0.6783 -0.2855
 1998TIP3    H127409   3.767   5.107  16.130  0.2321  1.0119  1.1381
 1998TIP3    H227410   3.636   5.064  16.067  1.4476  0.2439 -0.8893
 1999TIP3   OH227411   1.790   0.058   5.424 -0.2817 -0.8305 -0.6437
 1999TIP3    H127412   1.855  -0.012   5.429  0.8616  0.2407 -0.0078
 1999TIP3    H227413   1.725   0.027   5.362  0.1658 -2.4859 -0.3020
 2000TIP3   OH227414   3.002   4.736   1.167  0.1086  0.4163 -0.0813
 2000TIP3    H127415   3.043   4.819   1.192 -2.1650  1.3324  0.6340
 2000TIP3    H227416   2.985   4.691   1.249 -2.2002  0.9594 -0.2313
 2001TIP3   OH227417   0.004   1.235   4.610 -0.0913  0.8077 -0.0145
 2001TIP3    H127418   0.061   1.195   4.675 -1.3362  0.3922  0.8353
 2001TIP3    H227419   0.039   1.206   4.526 -0.9468 -2.0591  0.5909
 2002TIP3   OH227420   2.509   0.712  12.129  0.2989  0.1455 -0.0602
 2002TIP3    H127421   2.507   0.623  12.165 -2.4176  0.3099  0.2939
 2002TIP3    H227422   2.534   0.701  12.038 -0.1735 -1.0112 -0.0587
 2003TIP3   OH227423   1.983   5.691   3.106 -0.3282  0.3871 -0.2948
 2003TIP3    H127424   1.947   5.774   3.075 -0.9207  0.3270  0.2280
 2003TIP3    H227425   2.027   5.654   3.030  0.3564  1.4102 -0.4062
 2004TIP3   OH227426   6.514   4.933   6.435 -0.3417  0.0406  0.1358
 2004TIP3    H127427   6.533   4.937   6.341  1.3328 -3.3055  0.2558
 2004TIP3    H227428   6.587   4.979   6.476  0.5946 -1.2495 -0.0641
 2005TIP3   OH227429   2.193   2.065   0.774  0.5567  0.0214  0.8019
 2005TIP3    H127430   2.186   1.970   0.781  0.3961 -0.0270 -0.0022
 2005TIP3    H227431   2.108   2.094   0.744 -0.1877  0.6813  3.3934
 2006TIP3   OH227432   5.232   5.693   3.643 -0.4116 -0.3524  0.6620
 2006TIP3    H127433   5.242   5.623   3.578  2.1831  0.0104  0.5913
 2006TIP3    H227434   5.161   5.664   3.700 -1.7484 -1.3749 -1.4630
 2007TIP3   OH227435   6.282   3.285  13.974 -0.3858 -0.1121 -0.2756
 2007TIP3    H127436   6.254   3.332  13.895 -0.3026 -0.4950 -0.5352
 2007TIP3    H227437   6.202   3.247  14.009 -0.3921 -0.1137 -0.2910
 2008TIP3   OH227438   3.862   5.134   5.709  0.4463 -0.0770 -0.3494
 2008TIP3    H127439   3.798   5.188   5.756 -0.0331  0.0023 -1.0854
 2008TIP3    H227440   3.939   5.190   5.701  0.2415  0.2008 -0.3821
 2009TIP3   OH227441   4.577   3.110   1.613 -0.5475 -0.1599  0.4781
 2009TIP3    H127442   4.554   3.201   1.629 -2.2424 -0.8025  1.9362
 2009TIP3    H227443   4.499   3.073   1.570 -0.0208 -1.0080  0.2492
 2010TIP3   OH227444   2.282   2.736   4.203  0.0401 -0.5865 -0.0832
 2010TIP3    H127445   2.367   2.692   4.209 -1.2983 -3.3436 -0.5161
 2010TIP3    H227446   2.264   2.765   4.293  2.0100  1.1808 -0.2311
 2011TIP3   OH227447   1.623   2.996  13.854  0.6326  0.4323 -0.4282
 2011TIP3    H127448   1.528   2.987  13.862  0.5453  0.2686 -1.6485
 2011TIP3    H227449   1.653   3.005  13.944 -0.6458  1.4992 -0.0893
 2012TIP3   OH227450   4.983   0.362   4.216  0.3621  0.3887  0.4158
 2012TIP3    H127451   4.959   0.273   4.193  2.0767 -0.3201  1.2824
 2012TIP3    H227452   4.912   0.416   4.182 -1.3148 -1.4191  0.9917
 2013TIP3   OH227453   1.102   6.679   5.494  0.2729 -0.1053 -0.7180
 2013TIP3    H127454   1.183   6.711   5.534 -0.0038  0.1249 -0.3400
 2013TIP3    H227455   1.036   6.745   5.517 -0.4171 -1.2193  0.5259
 2014TIP3   OH227456   3.054   5.679  16.471 -0.0126 -0.3241  0.0234
 2014TIP3    H127457   3.124   5.742  16.454  0.6366 -1.1575 -0.4614
 2014TIP3    H227458   3.096   5.611  16.524 -0.5218 -0.6890 -0.0399
 2015TIP3   OH227459   2.945   2.259  16.965  0.3997  0.6509 -0.1558
 2015TIP3    H127460   2.956   2.295  16.877 -0.0927  0.0145 -0.4826
 2015TIP3    H227461   2.931   2.336  17.020  1.0994  1.0772 -0.5753
 2016TIP3   OH227462   0.035   2.732  13.935  0.6318  0.0207 -0.1124
 2016TIP3    H127463   0.016   2.644  13.968  1.2952 -0.3713 -0.7409
 2016TIP3    H227464  -0.038   2.753  13.878 -0.2864  0.5094  1.2203
 2017TIP3   OH227465   2.223   2.390   3.723  0.1246 -0.0843  0.1761
 2017TIP3    H127466   2.260   2.397   3.635  1.3711  0.9531  0.7694
 2017TIP3    H227467   2.294   2.419   3.781 -0.6158 -0.9543  1.5349
 2018TIP3   OH227468   3.243   2.052   5.038 -0.2271 -0.3125  0.3367
 2018TIP3    H127469   3.253   2.010   4.952  0.4492  0.9973 -0.2472
 2018TIP3    H227470   3.289   1.994   5.099 -0.9657 -1.4064 -0.1261
 2019TIP3   OH227471   5.260   5.248  14.135  0.1562 -0.1869 -0.6149
 2019TIP3    H127472   5.290   5.338  14.128  0.6184 -0.2526  0.3797
 2019TIP3    H227473   5.340   5.197  14.151 -0.4952 -0.2841  2.7611
 2020TIP3   OH227474   2.224   4.822   6.754 -0.3115 -0.3539 -0.5269
 2020TIP3    H127475   2.131   4.833   6.737 -0.1341  2.3373  0.0497
 2020TIP3    H227476   2.255   4.909   6.777  2.6284 -0.9518 -1.9901
 2021TIP3   OH227477   0.987   1.492  11.917  0.7499  0.0207  0.5316
 2021TIP3    H127478   0.894   1.495  11.942  0.5164 -0.4085 -0.2712
 2021TIP3    H227479   1.008   1.398  11.916  1.1385  0.1080  0.4842
 2022TIP3   OH227480   3.820   2.693   0.896  0.1892  0.1878 -0.4776
 2022TIP3    H127481   3.765   2.626   0.856  2.0091 -1.2650 -0.6172
 2022TIP3    H227482   3.766   2.773   0.894 -2.0039 -1.2437 -0.3258
 2023TIP3   OH227483   4.806   1.362  10.839  0.2131 -0.5992 -0.3074
 2023TIP3    H127484   4.901   1.362  10.831  0.0308 -2.1122 -3.0343
 2023TIP3    H227485   4.780   1.448  10.805  0.6218  0.1233  1.1601
 2024TIP3   OH227486   5.220   4.324   5.760 -0.8528  0.3790 -0.9169
 2024TIP3    H127487   5.136   4.303   5.800 -0.4605  0.2485 -0.1675
 2024TIP3    H227488   5.249   4.405   5.803 -0.0306 -0.2234 -0.3247
 2025TIP3   OH227489   6.627   4.324   3.723  0.0435  0.6041 -0.5506
 2025TIP3    H127490   6.710   4.277   3.708 -0.4649 -1.6756  3.2332
 2025TIP3    H227491   6.560   4.264   3.690 -0.3816  0.1721  1.0510
 2026TIP3   OH227492   4.349   0.704   4.311 -0.2283  0.4452 -0.5444
 2026TIP3    H127493   4.407   0.643   4.357 -0.1328  1.4781  0.7425
 2026TIP3    H227494   4.311   0.653   4.240  0.5823 -0.8418 -0.0608
 2027TIP3   OH227495   1.048   2.625  16.593 -0.2167 -0.0829  0.2675
 2027TIP3    H127496   1.099   2.653  16.518  1.0065 -0.4740  0.9370
 2027TIP3    H227497   0.957   2.633  16.565  0.2322 -2.1894 -1.9892
 2028TIP3   OH227498   3.891   0.691  11.638  0.0477  0.7609 -0.4021
 2028TIP3    H127499   3.947   0.753  11.684  0.6959 -0.2746  0.2185
 2028TIP3    H227500   3.892   0.721  11.547  0.7224  1.3870 -0.1947
 2029TIP3   OH227501   6.430   1.219   1.888 -0.3114  0.0051  0.5118
 2029TIP3    H127502   6.411   1.192   1.978 -0.1828  0.3469  0.6432
 2029TIP3    H227503   6.426   1.315   1.890 -0.7110 -0.0027  0.0610
 2030TIP3   OH227504   1.004   3.709  15.849  0.1708 -0.0670 -0.2304
 2030TIP3    H127505   0.965   3.661  15.922 -0.0323 -0.4496 -0.5887
 2030TIP3    H227506   0.955   3.791  15.844  1.3342  0.7340  1.1793
 2031TIP3   OH227507   0.623   6.596   2.341 -0.1313  0.2468 -0.2317
 2031TIP3    H127508   0.554   6.538   2.373 -1.3763  2.0968  0.4974
 2031TIP3    H227509   0.580   6.649   2.273  0.9374  0.4489 -0.7578
 2032TIP3   OH227510   1.655   3.670  12.230 -0.0464 -0.0584  0.0216
 2032TIP3    H127511   1.637   3.707  12.316  0.3742 -0.7817  0.4270
 2032TIP3    H227512   1.735   3.619  12.242 -0.7160 -1.2519 -0.4723
 2033TIP3   OH227513   0.526   2.500  12.451  0.4491 -0.1388 -0.4027
 2033TIP3    H127514   0.578   2.577  12.473 -0.1034 -0.0093  0.4408
 2033TIP3    H227515   0.514   2.455  12.534 -1.6894  0.3775 -0.4143
 2034TIP3   OH227516   2.446   1.675   2.764  0.2809  0.4942 -0.4990
 2034TIP3    H127517   2.388   1.656   2.838 -1.5092 -0.9287 -2.1929
 2034TIP3    H227518   2.534   1.659   2.797 -0.5442 -0.8601  1.0975
 2035TIP3   OH227519   5.936   3.967   2.823 -0.0250 -0.0931 -0.2368
 2035TIP3    H127520   6.013   3.981   2.879 -0.6823 -0.1844  0.6946
 2035TIP3    H227521   5.971   3.974   2.734  1.0841 -0.2118  0.1694
 2036TIP3   OH227522   2.617   3.919  16.019 -0.3088 -0.9636  0.4010
 2036TIP3    H127523   2.654   3.832  16.033  0.4972 -0.8018 -0.6901
 2036TIP3    H227524   2.692   3.974  15.997 -1.2600 -0.8000 -2.5951
 2037TIP3   OH227525   2.365   5.962   5.537 -0.1370 -0.3741 -0.6129
 2037TIP3    H127526   2.370   6.056   5.554  0.4611 -0.2821 -1.2976
 2037TIP3    H227527   2.377   5.921   5.623 -1.6438  0.1917 -0.1023
 2038TIP3   OH227528   1.313   0.301   3.234 -0.3010 -0.2103 -0.0440
 2038TIP3    H127529   1.361   0.248   3.298  0.2718  0.2591 -0.0828
 2038TIP3    H227530   1.364   0.293   3.154 -0.4140  0.0992 -0.1476
 2039TIP3   OH227531   1.309   1.624   2.303 -0.1719 -0.3971  0.7584
 2039TIP3    H127532   1.352   1.623   2.388 -0.1231  1.2906  0.7835
 2039TIP3    H227533   1.351   1.697   2.257 -0.7093 -0.8339 -0.4355
 2040TIP3   OH227534   6.022   3.057   0.885 -0.6143 -0.3341  0.0765
 2040TIP3    H127535   6.087   3.127   0.886 -0.0234 -0.8375 -1.2326
 2040TIP3    H227536   5.938   3.102   0.878 -0.4465  0.3331  2.0073
 2041TIP3   OH227537   0.906   2.049   0.916  0.1538 -0.4539  0.0382
 2041TIP3    H127538   0.896   2.018   0.826  1.1194 -0.2214 -0.1476
 2041TIP3    H227539   0.911   1.970   0.969  0.9046 -0.5940 -0.2508
 2042TIP3   OH227540   0.188   1.918  16.145 -0.7673 -0.3187 -0.6784
 2042TIP3    H127541   0.135   1.855  16.095 -1.2092 -0.0991 -0.4810
 2042TIP3    H227542   0.128   1.989  16.166 -0.2732  0.1692 -0.8822
 2043TIP3   OH227543   1.442   5.876  17.225  0.3759 -0.5523 -0.0855
 2043TIP3    H127544   1.409   5.790  17.254 -0.2453 -0.6481 -1.0482
 2043TIP3    H227545   1.364   5.922  17.194  0.9775 -0.3527 -1.3326
 2044TIP3   OH227546   5.672   4.723   0.023  0.3716  0.6881 -0.1927
 2044TIP3    H127547   5.663   4.814  -0.007  0.0642  0.3244 -1.2335
 2044TIP3    H227548   5.679   4.730   0.118 -1.4097  1.6658 -0.1087
 2045TIP3   OH227549   1.856   2.354   4.723 -0.5150  0.6112 -0.0237
 2045TIP3    H127550   1.821   2.277   4.678 -0.6459  0.5917  0.1125
 2045TIP3    H227551   1.872   2.417   4.652  0.9749 -0.0592 -0.3097
 2046TIP3   OH227552   3.925   2.645  11.410 -0.2732 -0.3791 -0.0751
 2046TIP3    H127553   3.856   2.580  11.424 -1.8455  1.1584 -0.4992
 2046TIP3    H227554   3.887   2.707  11.349  1.2637  0.8648  0.2046
 2047TIP3   OH227555   0.189   5.686  14.286 -0.7499 -0.6872  0.1523
 2047TIP3    H127556   0.255   5.729  14.231 -0.4387 -1.0694  0.2217
 2047TIP3    H227557   0.196   5.729  14.371 -1.7712  0.4401 -0.3342
 2048TIP3   OH227558   3.587   5.824  13.949 -0.2318  0.4456  0.5551
 2048TIP3    H127559   3.664   5.880  13.959  0.0950  0.1432 -0.2460
 2048TIP3    H227560   3.553   5.846  13.862 -2.0226  1.7902  1.5441
 2049TIP3   OH227561   0.912   3.648  10.741 -0.3262  0.1168 -0.7305
 2049TIP3    H127562   0.914   3.734  10.701  0.8836  0.0883 -0.7559
 2049TIP3    H227563   0.937   3.588  10.671  2.1604  0.1066  0.1122
 2050TIP3   OH227564   6.651   0.680   0.996 -0.7615  0.2379 -0.1472
 2050TIP3    H127565   6.631   0.605   1.053 -0.3262 -0.3929 -0.8225
 2050TIP3    H227566   6.662   0.753   1.057  0.8501 -0.6655  0.6852
 2051TIP3   OH227567   2.221   0.166  13.014 -0.2173 -0.4506  0.4547
 2051TIP3    H127568   2.204   0.144  13.106 -0.7595 -0.3926  0.3662
 2051TIP3    H227569   2.145   0.134  12.967 -0.8370  1.2605  0.2626
 2052TIP3   OH227570   5.893   0.967  12.109  0.6425  0.2794  0.4680
 2052TIP3    H127571   5.946   1.010  12.043  0.8272  0.4812  0.7504
 2052TIP3    H227572   5.890   1.028  12.183 -1.1456  0.8895 -0.0748
 2053TIP3   OH227573   4.906   4.799  14.322 -0.0161 -0.0207  0.1057
 2053TIP3    H127574   4.916   4.842  14.237 -0.0620  0.1693  0.1960
 2053TIP3    H227575   4.926   4.707  14.306 -0.6228 -0.0970 -0.2377
 2054TIP3   OH227576   6.091   4.358  12.543  0.7222  0.1766 -0.8841
 2054TIP3    H127577   6.072   4.270  12.512  2.1083  0.2490 -1.9666
 2054TIP3    H227578   6.074   4.414  12.467 -1.8525  1.0607  0.2918
 2055TIP3   OH227579   5.818   4.825  14.079 -0.5523 -1.0670  0.4069
 2055TIP3    H127580   5.863   4.872  14.149 -1.0173 -1.8384  1.2372
 2055TIP3    H227581   5.727   4.822  14.107 -0.5681 -2.2528  0.2798
 2056TIP3   OH227582   3.981   1.020   4.644  0.0593  1.0160  0.8066
 2056TIP3    H127583   3.920   1.014   4.718 -0.0247  1.8189  0.8028
 2056TIP3    H227584   4.061   0.979   4.676 -1.1253 -1.9747  0.1122
 2057TIP3   OH227585   5.981   2.972   3.585  0.1273  0.2135  0.3669
 2057TIP3    H127586   6.074   2.971   3.564 -0.2083 -0.6692 -1.1487
 2057TIP3    H227587   5.939   3.005   3.506 -0.7134  2.5791  1.7240
 2058TIP3   OH227588   3.365   4.911   5.595  0.1302 -0.1225 -0.2383
 2058TIP3    H127589   3.446   4.931   5.643 -0.1086  0.9888 -0.2934
 2058TIP3    H227590   3.395   4.890   5.507  0.6398 -2.8546  0.5119
 2059TIP3   OH227591   3.774   6.658   3.950  0.0738 -0.4319 -0.3465
 2059TIP3    H127592   3.772   6.716   4.027 -2.1828 -1.4272  0.3833
 2059TIP3    H227593   3.694   6.607   3.957 -0.0617 -0.6812 -3.2829
 2060TIP3   OH227594   0.516   0.178  16.740 -0.2767  0.1735  0.4552
 2060TIP3    H127595   0.558   0.137  16.816 -1.9738 -1.5716  0.4941
 2060TIP3    H227596   0.489   0.105  16.685  1.3618  1.4364 -2.1316
 2061TIP3   OH227597   5.204   2.106   5.410  0.3990  0.5434 -0.5433
 2061TIP3    H127598   5.193   2.051   5.332 -1.2107  1.7733 -1.2115
 2061TIP3    H227599   5.221   2.193   5.374 -0.5217  1.1500  0.4961
 2062TIP3   OH227600   2.818   6.459   4.989  0.2845  0.3530 -0.4623
 2062TIP3    H127601   2.899   6.453   4.939 -0.2337  1.1348 -1.3942
 2062TIP3    H227602   2.847   6.458   5.081  1.2569 -0.5983 -0.7673
 2063TIP3   OH227603   0.309   4.644   1.404 -0.4821 -0.5252  0.0012
 2063TIP3    H127604   0.241   4.580   1.385 -2.3111  1.2122  0.4840
 2063TIP3    H227605   0.387   4.592   1.422 -1.3536 -2.5369 -1.7521
 2064TIP3   OH227606   4.675   4.171   4.681 -0.0860  0.1787 -0.3558
 2064TIP3    H127607   4.750   4.218   4.720 -2.0225  1.8072  1.5691
 2064TIP3    H227608   4.663   4.212   4.595  1.3110 -0.2023 -0.7435
 2065TIP3   OH227609   0.513   1.660  13.134 -0.5554  0.5949 -0.0199
 2065TIP3    H127610   0.497   1.728  13.199  0.8030  1.9992 -1.1259
 2065TIP3    H227611   0.482   1.697  13.052  0.3046 -0.0663 -0.6569
 2066TIP3   OH227612   0.658   4.044   5.644 -0.6152 -0.1850  0.7165
 2066TIP3    H127613   0.648   4.132   5.608  2.9718  0.0727  0.2246
 2066TIP3    H227614   0.667   4.058   5.738 -0.7059 -0.0996  0.7131
 2067TIP3   OH227615   5.276   1.707  14.375 -0.3151 -0.2651  0.0176
 2067TIP3    H127616   5.329   1.784  14.397 -0.0630  0.6522 -3.5360
 2067TIP3    H227617   5.202   1.743  14.324 -1.0209 -2.2052 -0.3716
 2068TIP3   OH227618   0.263   4.724   1.080 -0.5907  0.2156 -0.0158
 2068TIP3    H127619   0.254   4.693   0.990  0.3083  0.3962 -0.1747
 2068TIP3    H227620   0.304   4.652   1.127 -1.0862  0.1097  0.2602
 2069TIP3   OH227621   2.217   0.941  12.687  0.0779  0.0494  0.6105
 2069TIP3    H127622   2.163   0.866  12.664  2.0469 -1.3402  0.4154
 2069TIP3    H227623   2.202   0.953  12.781  1.4707 -2.0424  1.1286
 2070TIP3   OH227624   2.380   1.160   3.725  0.5270 -0.5517 -0.6968
 2070TIP3    H127625   2.472   1.156   3.701  0.5836 -0.5943 -0.4789
 2070TIP3    H227626   2.335   1.107   3.660  0.7537 -1.2071 -0.3208
 2071TIP3   OH227627   5.149   4.965   6.344 -0.6529 -0.2914 -0.2992
 2071TIP3    H127628   5.073   5.022   6.329 -1.4014 -0.6554  1.8519
 2071TIP3    H227629   5.133   4.888   6.290 -1.5117 -0.0804 -0.3518
 2072TIP3   OH227630   4.358   0.110   1.039  0.0147 -0.1182  0.4275
 2072TIP3    H127631   4.324   0.061   1.114 -0.1526 -1.1973 -0.3410
 2072TIP3    H227632   4.282   0.121   0.981  0.7955 -1.9010 -0.9627
 2073TIP3   OH227633   5.743   1.412   1.141  0.5431  0.1063  0.1869
 2073TIP3    H127634   5.737   1.324   1.104  3.8584 -0.8897  1.8269
 2073TIP3    H227635   5.731   1.399   1.235 -0.4895  1.6519  0.2906
 2074TIP3   OH227636   4.892   5.143   1.728  0.2798  0.3051 -0.2551
 2074TIP3    H127637   4.904   5.095   1.647 -2.1487  0.4629 -0.7338
 2074TIP3    H227638   4.872   5.233   1.700  2.4816  1.1081  0.5902
 2075TIP3   OH227639   0.618   3.287   4.810  0.1600 -0.2225  0.2993
 2075TIP3    H127640   0.561   3.314   4.738  0.9126 -0.8671 -0.5423
 2075TIP3    H227641   0.557   3.258   4.878 -0.5350 -0.2690 -0.3308
 2076TIP3   OH227642   2.741   2.309  15.640  0.0307 -0.1879  0.2389
 2076TIP3    H127643   2.698   2.229  15.671 -0.5980  0.1960  0.3745
 2076TIP3    H227644   2.774   2.287  15.553 -2.2721  0.1262 -0.7518
 2077TIP3   OH227645   2.847   1.546   1.993 -0.6005  0.2748  0.2874
 2077TIP3    H127646   2.814   1.498   1.917  2.6786  0.7578 -1.5470
 2077TIP3    H227647   2.882   1.478   2.051 -0.6718  0.0914  0.1172
 2078TIP3   OH227648   1.023   3.453   5.117 -0.2181 -0.2415  0.5332
 2078TIP3    H127649   1.072   3.411   5.188  1.0013 -1.4559 -0.9900
 2078TIP3    H227650   0.933   3.457   5.149 -0.1708 -3.1052  1.1607
 2079TIP3   OH227651   5.593   5.248  12.328 -0.0564 -0.2619 -0.1452
 2079TIP3    H127652   5.570   5.312  12.261 -0.6410 -1.3394 -0.9758
 2079TIP3    H227653   5.660   5.193  12.287 -1.0598 -1.4800 -0.1758
 2080TIP3   OH227654   4.583   5.729   0.695  0.1732 -0.3318 -0.1875
 2080TIP3    H127655   4.618   5.773   0.773  1.6497  1.2022 -1.6800
 2080TIP3    H227656   4.661   5.696   0.650 -0.5809 -0.0512 -1.7101
 2081TIP3   OH227657   6.584   6.444   0.758 -0.6479 -0.0055 -0.2054
 2081TIP3    H127658   6.640   6.386   0.707 -1.1287  0.1649 -0.9384
 2081TIP3    H227659   6.576   6.401   0.843 -1.8322 -1.5578 -1.0618
 2082TIP3   OH227660   1.345   3.514   0.612 -0.8177  0.7391  0.1290
 2082TIP3    H127661   1.316   3.592   0.565  2.1169  1.0892 -1.2120
 2082TIP3    H227662   1.338   3.444   0.547  0.6131  0.7152 -0.0231
 2083TIP3   OH227663   4.255   5.819   6.472 -0.1341 -0.0359  0.1544
 2083TIP3    H127664   4.184   5.756   6.484  0.9602 -1.5049 -0.9983
 2083TIP3    H227665   4.218   5.885   6.413 -0.7703 -0.4236  0.1172
 2084TIP3   OH227666   3.840   5.945  16.507  0.3883  0.0318  0.6187
 2084TIP3    H127667   3.761   5.892  16.494 -0.4140  1.5494 -0.7707
 2084TIP3    H227668   3.912   5.882  16.496 -0.5880 -1.3434  1.8015
 2085TIP3   OH227669   4.743   5.947  16.573  0.4055  0.1222 -0.7266
 2085TIP3    H127670   4.754   6.038  16.603  0.7411 -0.2688  0.3617
 2085TIP3    H227671   4.828   5.923  16.537  0.3872  0.1560 -0.7939
 2086TIP3   OH227672   2.469   2.070  12.677 -0.0730  0.5351  0.5624
 2086TIP3    H127673   2.442   2.160  12.689  0.2786  0.8543 -0.8832
 2086TIP3    H227674   2.565   2.073  12.679 -0.0484  0.2897 -0.0705
 2087TIP3   OH227675   2.827   0.667  14.600  0.1015  0.2792  0.2165
 2087TIP3    H127676   2.791   0.754  14.617 -0.8580  0.3350 -1.8929
 2087TIP3    H227677   2.917   0.672  14.630 -0.2325  1.6863  1.0437
 2088TIP3   OH227678   0.035   2.499   4.817 -0.6412  0.3971  0.1562
 2088TIP3    H127679   0.114   2.549   4.837 -1.2907  1.3299  0.4246
 2088TIP3    H227680   0.056   2.453   4.735 -0.0387  1.1236 -0.1085
 2089TIP3   OH227681   0.079   3.637   1.534  0.0728  0.0262 -0.7757
 2089TIP3    H127682   0.057   3.563   1.590  0.0762 -0.2574 -1.1427
 2089TIP3    H227683   0.042   3.713   1.578  0.0433 -0.1987 -0.4114
 2090TIP3   OH227684   2.548   1.881   0.861  0.2126  0.5014 -0.1275
 2090TIP3    H127685   2.643   1.875   0.872  0.2539  0.2644 -0.5840
 2090TIP3    H227686   2.525   1.805   0.807 -0.3275  0.2088  0.5095
 2091TIP3   OH227687   1.227   2.343   3.062 -0.7668  0.0773  0.2817
 2091TIP3    H127688   1.301   2.315   3.008  0.1147  1.5987  0.6632
 2091TIP3    H227689   1.238   2.296   3.144 -1.1283 -0.9208 -0.2367
 2092TIP3   OH227690   6.148   4.581  12.037 -0.4275 -0.7617  0.0855
 2092TIP3    H127691   6.060   4.546  12.048 -0.7752 -0.1015 -0.5938
 2092TIP3    H227692   6.158   4.593  11.943  0.6486 -1.4903  0.0848
 2093TIP3   OH227693   6.410   6.118  12.661  0.3173  0.8911  0.6306
 2093TIP3    H127694   6.431   6.148  12.572  1.6594  1.4858  1.1425
 2093TIP3    H227695   6.372   6.194  12.704 -0.0887  0.6784  0.6488
 2094TIP3   OH227696   2.190   2.971  14.388  0.1666  0.1889  0.3143
 2094TIP3    H127697   2.148   2.946  14.471  1.3688  1.2788  1.2767
 2094TIP3    H227698   2.202   2.888  14.342  0.6599 -0.5917  1.7956
 2095TIP3   OH227699   2.945   4.701   5.788 -0.5718  0.3577 -0.0185
 2095TIP3    H127700   2.889   4.662   5.855  2.0726 -0.8233  1.5953
 2095TIP3    H227701   3.034   4.682   5.818  0.7003  2.3800 -2.3726
 2096TIP3   OH227702   4.552   3.882   1.953  0.9363 -0.5837  1.1357
 2096TIP3    H127703   4.463   3.907   1.979  1.1551  0.5459  0.8428
 2096TIP3    H227704   4.592   3.964   1.925  1.4945 -1.3968 -0.4770
 2097TIP3   OH227705   4.181   1.805   0.669 -0.0254 -0.5516 -0.2954
 2097TIP3    H127706   4.253   1.769   0.617  1.2667 -0.4021  1.3252
 2097TIP3    H227707   4.106   1.749   0.650  0.9106 -1.6135 -0.8916
 2098TIP3   OH227708   6.505   4.177  15.716 -0.0219  0.6313 -0.1718
 2098TIP3    H127709   6.439   4.245  15.730 -2.3322 -1.5505 -0.0174
 2098TIP3    H227710   6.530   4.186  15.624  0.3742  2.2690  0.0955
 2099TIP3   OH227711   3.576   3.174  13.070 -0.1786 -0.1846  0.3266
 2099TIP3    H127712   3.596   3.106  13.134 -2.0982  1.0492  2.3415
 2099TIP3    H227713   3.490   3.150  13.035 -1.2502  1.5647  1.6528
 2100TIP3   OH227714   5.377   0.211   3.182 -0.3449 -0.2746  0.1270
 2100TIP3    H127715   5.398   0.297   3.219 -0.4718 -0.2568  0.1565
 2100TIP3    H227716   5.286   0.219   3.152  0.4308  0.4011 -2.1590
 2101TIP3   OH227717   4.207   2.547   0.698 -0.1510 -0.5280  0.0620
 2101TIP3    H127718   4.266   2.567   0.770  0.1289 -1.7288  0.1748
 2101TIP3    H227719   4.237   2.463   0.665 -1.0258 -0.5549 -0.6877
 2102TIP3   OH227720   4.188   5.653  11.509 -0.4254 -0.1139  0.0399
 2102TIP3    H127721   4.158   5.603  11.585 -0.2344  1.0822  0.9300
 2102TIP3    H227722   4.276   5.683  11.535 -0.4846  0.5500 -0.5388
 2103TIP3   OH227723   2.840   4.398  13.088  0.5250  0.4954 -0.2221
 2103TIP3    H127724   2.817   4.326  13.146 -1.9838  1.2362 -0.2431
 2103TIP3    H227725   2.864   4.470  13.146 -2.1269  1.2832 -0.0487
 2104TIP3   OH227726   1.661   2.009   4.263 -0.3293  0.3713  0.2479
 2104TIP3    H127727   1.651   2.076   4.331  2.5909 -0.7878  1.9098
 2104TIP3    H227728   1.676   2.058   4.182 -0.6879  1.7369  0.9961
 2105TIP3   OH227729   1.755   2.982  16.837 -0.2855 -0.2765  0.0675
 2105TIP3    H127730   1.682   2.981  16.775 -0.8323  1.9984  0.6106
 2105TIP3    H227731   1.802   3.063  16.817  0.2667 -0.1498  1.7953
 2106TIP3   OH227732   4.325   3.728  12.291 -0.0965  0.1920  0.2545
 2106TIP3    H127733   4.247   3.677  12.316 -1.1916  0.6009 -2.1541
 2106TIP3    H227734   4.303   3.818  12.316  0.0657  0.1316  0.6102
 2107TIP3   OH227735   3.964   3.084  11.602  0.2461  0.2899  0.7589
 2107TIP3    H127736   3.941   3.019  11.669 -0.4187 -1.3574 -1.0332
 2107TIP3    H227737   3.916   3.162  11.628  0.1886 -0.2414  2.3439
 2108TIP3   OH227738   0.425   0.053  14.306 -0.8361 -0.3679  0.2157
 2108TIP3    H127739   0.414  -0.005  14.230 -1.1155  1.5032 -1.2081
 2108TIP3    H227740   0.351   0.114  14.300 -0.1151  0.6164  1.2548
 2109TIP3   OH227741   4.408   1.070   1.706  0.4022  0.2936  0.6550
 2109TIP3    H127742   4.350   1.003   1.742  0.5090 -0.2184 -0.0915
 2109TIP3    H227743   4.479   1.077   1.769  0.9370 -1.0758  0.2274
 2110TIP3   OH227744   0.740   6.353   5.908 -0.2180 -0.0672  0.6194
 2110TIP3    H127745   0.803   6.287   5.937 -1.0640 -1.6767 -1.1116
 2110TIP3    H227746   0.667   6.345   5.970  0.4933  0.5935  1.5659
 2111TIP3   OH227747   1.255   1.364  16.526  0.3026 -0.0941  0.4970
 2111TIP3    H127748   1.335   1.415  16.518  0.1007  0.2635  0.7487
 2111TIP3    H227749   1.232   1.340  16.436  0.5915 -0.0408  0.4107
 2112TIP3   OH227750   3.730   0.688   2.817 -0.5543 -0.7734 -0.4088
 2112TIP3    H127751   3.769   0.601   2.823 -2.1624 -1.4345  0.7467
 2112TIP3    H227752   3.757   0.721   2.731 -1.4531 -3.1718 -1.6481
 2113TIP3   OH227753   0.412   0.357  12.696 -0.4529  0.5132 -0.6866
 2113TIP3    H127754   0.362   0.289  12.651  1.6150  0.6350 -3.3369
 2113TIP3    H227755   0.372   0.439  12.668 -0.9815  0.5004  0.0210
 2114TIP3   OH227756   1.305   6.083  12.615 -0.1021  0.2375  0.0977
 2114TIP3    H127757   1.293   6.068  12.521  1.3539 -1.2125  0.1223
 2114TIP3    H227758   1.319   5.995  12.652  0.8874  0.9383  1.4354
 2115TIP3   OH227759   2.553   2.345   1.785  0.2192 -0.5263  0.0761
 2115TIP3    H127760   2.562   2.340   1.880  0.8340 -2.6223 -0.0587
 2115TIP3    H227761   2.635   2.383   1.755  0.2152 -0.3012  0.3494
 2116TIP3   OH227762   1.885   3.413  12.814  0.3404  0.4396  0.1442
 2116TIP3    H127763   1.966   3.454  12.843  0.8084  2.6593 -3.8980
 2116TIP3    H227764   1.911   3.356  12.741 -1.4290 -0.4952  0.2153
 2117TIP3   OH227765   3.417   1.846  16.925  0.5917  0.0233 -0.7022
 2117TIP3    H127766   3.464   1.767  16.898  1.1909 -0.0720  0.6151
 2117TIP3    H227767   3.341   1.850  16.866  0.2858 -1.7946 -0.4517
 2118TIP3   OH227768   3.589   3.397   4.396 -0.2833 -0.4049  0.2973
 2118TIP3    H127769   3.530   3.444   4.454 -0.5125  0.2028 -0.4127
 2118TIP3    H227770   3.616   3.319   4.445  0.6762  0.8361  1.7689
 2119TIP3   OH227771   4.864   0.457  16.644 -0.8044  0.0241  0.7817
 2119TIP3    H127772   4.866   0.508  16.725  1.1223  1.5606 -0.1966
 2119TIP3    H227773   4.955   0.451  16.617 -1.3369 -1.2775 -0.7945
 2120TIP3   OH227774   1.351   3.776   3.473  0.1061  0.0254 -0.9692
 2120TIP3    H127775   1.419   3.710   3.458 -0.3458 -0.2610 -1.7822
 2120TIP3    H227776   1.296   3.738   3.542  0.7957  0.2902 -0.2531
 2121TIP3   OH227777   5.752   4.879   0.784  0.5972  0.4737 -0.0815
 2121TIP3    H127778   5.664   4.882   0.822  0.2638  1.8428 -0.9489
 2121TIP3    H227779   5.808   4.851   0.857 -0.4620  0.1997  0.6415
 2122TIP3   OH227780   3.403   4.302  11.444 -0.1769 -0.0164 -0.3110
 2122TIP3    H127781   3.309   4.311  11.431 -0.1518 -0.3927 -0.8064
 2122TIP3    H227782   3.431   4.244  11.373  0.6600  1.2265 -1.0198
 2123TIP3   OH227783   4.196   2.217  16.988 -0.0977  0.1404  0.0255
 2123TIP3    H127784   4.114   2.190  17.028  0.6719 -0.4751  1.1871
 2123TIP3    H227785   4.233   2.137  16.951 -0.0265  0.4225 -0.5239
 2124TIP3   OH227786   4.766   0.061  16.048 -0.6012 -0.4616  0.4963
 2124TIP3    H127787   4.816   0.140  16.028  2.3775 -2.4844 -0.3651
 2124TIP3    H227788   4.725   0.079  16.133 -1.2951  2.5742 -0.4246
 2125TIP3   OH227789   0.422   0.152   4.340 -0.0250  0.1455  0.7801
 2125TIP3    H127790   0.460   0.134   4.427 -1.2159  0.6424  1.4183
 2125TIP3    H227791   0.448   0.243   4.322  0.6138 -0.1074  0.3982
 2126TIP3   OH227792   0.842   1.438   0.280 -0.0768  0.0012 -0.1896
 2126TIP3    H127793   0.914   1.424   0.219 -1.5873 -1.4178 -1.7012
 2126TIP3    H227794   0.874   1.403   0.363  1.5846  0.9529 -0.3954
 2127TIP3   OH227795   4.588   1.102  13.165  0.4145 -0.2872  0.3307
 2127TIP3    H127796   4.530   1.089  13.241 -0.8579  0.8412 -0.4373
 2127TIP3    H227797   4.607   1.196  13.166  0.8052 -0.3620 -0.4454
 2128TIP3   OH227798   6.516   5.806  17.169  0.1148  0.1255 -0.4791
 2128TIP3    H127799   6.431   5.837  17.199 -0.2128 -1.1160 -0.0981
 2128TIP3    H227800   6.563   5.885  17.143 -0.1068  1.0854  1.9956
 2129TIP3   OH227801   5.583   3.923  13.452  0.0396  0.0954  0.2106
 2129TIP3    H127802   5.518   3.910  13.520  0.1889  1.2076  0.5811
 2129TIP3    H227803   5.663   3.881  13.486 -0.7338 -2.1786 -0.6951
 2130TIP3   OH227804   5.386   3.898   1.968 -0.1209 -0.7489  0.3794
 2130TIP3    H127805   5.317   3.938   1.915 -0.0904 -1.7756 -0.4377
 2130TIP3    H227806   5.343   3.877   2.051 -0.1469  0.9346  0.8101
 2131TIP3   OH227807   5.114   2.344  15.601  0.1869  0.4366 -0.1415
 2131TIP3    H127808   5.052   2.382  15.539 -1.7445  0.4519  1.7293
 2131TIP3    H227809   5.200   2.373  15.570 -0.7682  0.9642 -2.4204
 2132TIP3   OH227810   3.024   4.091   5.411 -0.8213  0.0781 -0.2179
 2132TIP3    H127811   3.089   4.154   5.442  0.2028 -0.7993 -0.5478
 2132TIP3    H227812   2.966   4.142   5.355 -0.1051  0.7706 -0.3402
 2133TIP3   OH227813   5.370   2.158  17.203  0.5138  0.2958 -0.5901
 2133TIP3    H127814   5.287   2.206  17.198  1.2656  1.7875  0.9796
 2133TIP3    H227815   5.387   2.147  17.296  2.5176  0.7590 -0.8728
 2134TIP3   OH227816   4.503   2.397   0.425  0.3960 -0.2956 -0.1405
 2134TIP3    H127817   4.569   2.351   0.477  1.3040 -0.3025 -1.2618
 2134TIP3    H227818   4.551   2.427   0.348 -0.8579 -0.0469 -0.8367
 2135TIP3   OH227819   2.621   4.563   2.876 -0.4488  0.2462 -0.3033
 2135TIP3    H127820   2.632   4.650   2.838  1.3246  0.7566  1.2766
 2135TIP3    H227821   2.709   4.525   2.874 -0.7091 -0.4919  1.3605
 2136TIP3   OH227822   0.491   2.665   0.348  0.1297 -0.2159 -0.2959
 2136TIP3    H127823   0.502   2.760   0.343 -3.3117  0.2064 -1.6164
 2136TIP3    H227824   0.429   2.652   0.419 -1.4597 -1.2052 -1.8074
 2137TIP3   OH227825   6.660   5.257   0.442  0.8762  0.2615  0.8285
 2137TIP3    H127826   6.710   5.317   0.498  3.6611 -0.5186 -0.6845
 2137TIP3    H227827   6.708   5.175   0.446 -0.4577 -0.6050 -0.4851
 2138TIP3   OH227828   1.440   4.781  17.061  0.5180  0.6059 -0.0045
 2138TIP3    H127829   1.449   4.725  17.138  2.6343 -1.8004 -1.8821
 2138TIP3    H227830   1.529   4.813  17.044  0.1220  0.9780 -1.5041
 2139TIP3   OH227831   2.510   4.532   0.509  0.2681  0.0374  0.5615
 2139TIP3    H127832   2.526   4.626   0.495  0.1819 -0.0289  0.0277
 2139TIP3    H227833   2.471   4.502   0.427  1.3703 -0.7205  0.3046
 2140TIP3   OH227834   1.719   0.184   0.074  0.4335 -0.1224  0.1541
 2140TIP3    H127835   1.779   0.153   0.005 -0.8452  0.9922 -1.4971
 2140TIP3    H227836   1.632   0.176   0.035 -0.3590 -0.0082  1.8680
 2141TIP3   OH227837   4.375   6.595   1.139 -0.2338 -0.3133 -0.0294
 2141TIP3    H127838   4.382   6.587   1.044  0.7024 -1.0975  0.0893
 2141TIP3    H227839   4.286   6.567   1.160 -0.7584  0.7659 -0.7529
 2142TIP3   OH227840   3.831   6.158  16.329 -0.0267  0.1496  0.5436
 2142TIP3    H127841   3.842   6.092  16.398  0.2009  0.1325  0.4873
 2142TIP3    H227842   3.919   6.178  16.299 -0.2378 -1.1728 -1.0150
 2143TIP3   OH227843   5.055   4.444  16.719  0.0856  0.3574  0.5565
 2143TIP3    H127844   5.009   4.429  16.802  0.6319 -3.3501  0.2647
 2143TIP3    H227845   5.119   4.374  16.714  0.6848  1.0570 -2.6069
 2144TIP3   OH227846   3.462   6.705   0.692 -0.5806  0.3256 -0.4356
 2144TIP3    H127847   3.412   6.654   0.628  0.2475 -0.6837 -0.2934
 2144TIP3    H227848   3.409   6.702   0.772 -0.5988 -0.2055 -0.4679
 2145TIP3   OH227849   4.450   6.085   4.061 -0.3659 -0.3549 -0.0244
 2145TIP3    H127850   4.412   6.011   4.108 -0.2181  0.2811  1.1241
 2145TIP3    H227851   4.482   6.143   4.130 -1.7532  1.4499 -0.8824
 2146TIP3   OH227852   0.774   4.220   2.349  0.6025  0.1130 -0.0019
 2146TIP3    H127853   0.835   4.148   2.365 -0.0722 -0.2310  1.1253
 2146TIP3    H227854   0.804   4.290   2.407 -0.7094 -0.4561  1.4266
 2147TIP3   OH227855   5.189   6.279   0.266 -0.2058 -0.5574 -0.5325
 2147TIP3    H127856   5.197   6.338   0.341  1.9070  0.5099 -1.5318
 2147TIP3    H227857   5.096   6.278   0.245 -0.6293  0.1766  1.2824
 2148TIP3   OH227858   1.445   2.198  11.907  0.0487  0.2418  0.9790
 2148TIP3    H127859   1.393   2.268  11.945  1.3126  0.8255  1.6946
 2148TIP3    H227860   1.493   2.161  11.982  0.5646 -0.3498  0.3698
 2149TIP3   OH227861   5.257   3.013  12.944 -0.4985 -0.7011  0.0367
 2149TIP3    H127862   5.315   2.942  12.917 -0.4881 -0.4668 -0.5612
 2149TIP3    H227863   5.178   2.969  12.976 -0.7368 -0.9685 -0.8989
 2150TIP3   OH227864   3.106   5.469   3.489  0.1511  0.3062  0.1903
 2150TIP3    H127865   3.017   5.496   3.466 -0.5527 -0.4298  1.9716
 2150TIP3    H227866   3.098   5.376   3.511  1.1688  0.4612  1.2713
 2151TIP3   OH227867   0.614   3.627   0.563 -0.0679  0.5436  0.2821
 2151TIP3    H127868   0.701   3.637   0.601  0.4930 -0.3024 -0.7565
 2151TIP3    H227869   0.615   3.686   0.487 -0.7334  1.2477  0.8135
 2152TIP3   OH227870   3.754   5.356   1.234  0.1578  0.0226 -0.5938
 2152TIP3    H127871   3.706   5.274   1.248 -0.4835  0.7747  1.9558
 2152TIP3    H227872   3.762   5.363   1.139 -0.0238 -2.8469 -0.8735
 2153TIP3   OH227873   6.089   5.199  14.388 -0.8341 -0.1659 -0.3399
 2153TIP3    H127874   6.044   5.272  14.432 -0.9857 -0.6279  0.2748
 2153TIP3    H227875   6.136   5.240  14.316 -1.9701  0.3753 -0.7872
 2154TIP3   OH227876   5.622   0.120   0.783 -0.4125 -0.1645  0.2867
 2154TIP3    H127877   5.717   0.128   0.796 -0.5449 -1.2022  2.1273
 2154TIP3    H227878   5.586   0.123   0.871 -2.2555  1.8346 -0.5117
 2155TIP3   OH227879   5.549   6.347  12.618 -0.1311 -0.3049 -0.0157
 2155TIP3    H127880   5.561   6.256  12.646  1.9538 -0.0863 -0.1196
 2155TIP3    H227881   5.608   6.357  12.543  1.1074  1.6704  1.2027
 2156TIP3   OH227882   3.138   3.439  15.908 -0.4705 -0.5343  0.4254
 2156TIP3    H127883   3.068   3.384  15.871 -0.8415 -1.0343  1.8322
 2156TIP3    H227884   3.118   3.526  15.875 -0.8848 -0.9385 -0.4275
 2157TIP3   OH227885   2.431   2.923  16.389  0.4064  0.8276 -0.6105
 2157TIP3    H127886   2.355   2.924  16.331  1.4695  0.0638 -2.0384
 2157TIP3    H227887   2.482   3.001  16.364  0.3400  1.0813  0.0211
 2158TIP3   OH227888   6.418   1.801  17.177  0.1712  0.3784  0.1650
 2158TIP3    H127889   6.508   1.830  17.165  0.0434  0.5257 -0.4587
 2158TIP3    H227890   6.422   1.706  17.170  0.3654  0.3428  0.7339
 2159TIP3   OH227891   3.890   0.397   3.545  0.9637  0.8617 -0.0344
 2159TIP3    H127892   3.978   0.377   3.513  0.1732 -2.4185 -0.3289
 2159TIP3    H227893   3.904   0.442   3.628  2.9259 -1.8270  1.1420
 2160TIP3   OH227894   1.164   6.238   2.840 -0.1253 -0.7542 -0.5980
 2160TIP3    H127895   1.235   6.199   2.891 -1.6058 -2.2888  0.3629
 2160TIP3    H227896   1.198   6.322   2.810  2.6830 -2.1857 -1.5468
 2161TIP3   OH227897   2.252   6.601  13.548  0.0465  0.1877  0.6557
 2161TIP3    H127898   2.202   6.626  13.469 -0.8799 -0.2267  1.1041
 2161TIP3    H227899   2.185   6.586  13.614  0.8192  0.3381  1.4755
 2162TIP3   OH227900   6.045   2.458  16.606 -0.7079  0.1381 -0.0712
 2162TIP3    H127901   6.035   2.546  16.569 -1.4307 -1.0990 -3.0067
 2162TIP3    H227902   6.054   2.401  16.529  3.1415 -1.9814  1.7976
 2163TIP3   OH227903   0.281   5.321   3.454 -0.2116  0.5518 -0.2761
 2163TIP3    H127904   0.329   5.381   3.510  0.5916  0.5851 -0.9857
 2163TIP3    H227905   0.216   5.375   3.410  1.8313  1.3013 -2.4341
 2164TIP3   OH227906   3.040   4.409   4.772  0.3484  0.1320 -0.1047
 2164TIP3    H127907   2.989   4.457   4.837 -0.2711 -1.0687  0.3077
 2164TIP3    H227908   3.129   4.405   4.809 -0.0526 -0.7447  0.7748
 2165TIP3   OH227909   3.293   5.811   6.555  0.6234 -0.5361 -0.3115
 2165TIP3    H127910   3.204   5.781   6.535  1.0734 -2.2951  0.1985
 2165TIP3    H227911   3.304   5.891   6.504 -1.2754 -0.2762 -0.3353
 2166TIP3   OH227912   4.202   3.373  15.157 -0.0856  0.4463 -0.4581
 2166TIP3    H127913   4.132   3.327  15.111  0.2109 -0.4252 -0.0599
 2166TIP3    H227914   4.278   3.316  15.147  0.5966  1.4315 -0.9646
 2167TIP3   OH227915   3.089   6.205  16.847 -0.2994 -0.0924 -0.5867
 2167TIP3    H127916   3.174   6.166  16.871  0.2664  1.0948 -0.6247
 2167TIP3    H227917   3.085   6.197  16.752  0.6436  1.5641 -0.7855
 2168TIP3   OH227918   4.088   4.388   2.119  0.2956 -0.3411  0.0832
 2168TIP3    H127919   4.181   4.365   2.119  0.3189 -0.2494 -0.8050
 2168TIP3    H227920   4.063   4.389   2.027 -0.2276  1.0659  0.2271
 2169TIP3   OH227921   2.176   0.274   3.474  0.4178 -0.4609  0.2909
 2169TIP3    H127922   2.129   0.271   3.558  0.3261  1.2603  0.3202
 2169TIP3    H227923   2.166   0.186   3.438 -3.5405  0.0273 -0.0811
 2170TIP3   OH227924   1.437   6.319  15.576 -0.0463  0.0785 -0.6659
 2170TIP3    H127925   1.363   6.262  15.597 -0.4330  1.0101  0.5499
 2170TIP3    H227926   1.433   6.331  15.481 -1.1660 -0.2476 -0.6585
 2171TIP3   OH227927   1.529   6.329  11.814 -0.3274 -0.0564 -0.4525
 2171TIP3    H127928   1.465   6.313  11.744  2.1837 -1.1035 -2.5882
 2171TIP3    H227929   1.563   6.243  11.836  0.2983  0.4878  0.7372
 2172TIP3   OH227930   2.448   0.063  15.325  0.0107  0.0547 -0.1086
 2172TIP3    H127931   2.524   0.051  15.382  1.3586 -0.9216 -2.0525
 2172TIP3    H227932   2.404   0.141  15.360  1.5442  0.2713  1.4109
 2173TIP3   OH227933   1.976   5.809  15.794  0.3704  0.2478 -0.4886
 2173TIP3    H127934   1.991   5.739  15.858 -2.1087 -0.7721 -0.9723
 2173TIP3    H227935   1.995   5.889  15.843 -0.6538 -0.5628  1.3083
 2174TIP3   OH227936   3.851   4.633  12.894  0.3035  0.0484 -0.0913
 2174TIP3    H127937   3.805   4.564  12.940 -0.1509  0.1411 -0.4065
 2174TIP3    H227938   3.873   4.697  12.962 -0.8656  0.4607 -0.0961
 2175TIP3   OH227939   5.044   4.226   1.212 -0.2277 -0.5485  0.0587
 2175TIP3    H127940   5.008   4.314   1.199 -0.8911 -0.8651 -0.2911
 2175TIP3    H227941   5.021   4.204   1.302 -0.4330 -0.5311  0.0108
 2176TIP3   OH227942   0.037   1.176  11.262 -0.5209  0.1979  0.3643
 2176TIP3    H127943   0.111   1.203  11.207 -1.1543  1.2380 -0.0089
 2176TIP3    H227944   0.042   1.234  11.339 -2.1467  1.7528 -0.6433
 2177TIP3   OH227945   1.205   5.820  15.351  0.0828  0.4970 -0.1441
 2177TIP3    H127946   1.191   5.769  15.271 -0.0668  0.5514 -0.1540
 2177TIP3    H227947   1.119   5.857  15.370  0.2412  0.9164 -0.2524
 2178TIP3   OH227948   0.959   4.621  11.476 -0.5012  0.7686  0.7032
 2178TIP3    H127949   0.933   4.693  11.419 -0.1681 -1.4103 -2.3178
 2178TIP3    H227950   0.888   4.557  11.468  0.7012 -0.6069  0.8212
 2179TIP3   OH227951   4.593   4.318   0.928 -0.3331 -0.1587  0.2459
 2179TIP3    H127952   4.569   4.358   1.012 -0.2621 -0.7324  0.5431
 2179TIP3    H227953   4.594   4.224   0.946  1.3449 -0.1904  0.0172
 2180TIP3   OH227954   3.108   4.081  14.501 -0.0846  0.3509 -0.3084
 2180TIP3    H127955   3.045   4.139  14.544 -1.3043 -0.6313 -0.7462
 2180TIP3    H227956   3.190   4.131  14.501 -0.4217  0.9674  1.8028
 2181TIP3   OH227957   2.664   4.911   0.837  0.2731 -0.1482  0.2276
 2181TIP3    H127958   2.734   4.846   0.848 -0.0508 -0.3687  1.0720
 2181TIP3    H227959   2.598   4.866   0.785  1.2398  0.4412 -1.5349
 2182TIP3   OH227960   6.313   3.158   2.913 -0.0051 -0.0613 -0.3029
 2182TIP3    H127961   6.353   3.073   2.931 -0.7918 -0.3757 -0.0084
 2182TIP3    H227962   6.354   3.187   2.831 -0.7070 -1.3425 -1.1201
 2183TIP3   OH227963   3.329   2.702   1.940 -0.0773  0.6300  0.3286
 2183TIP3    H127964   3.391   2.775   1.936  0.7108  0.1690  3.1156
 2183TIP3    H227965   3.375   2.628   1.901 -0.1598  1.1247 -0.7202
 2184TIP3   OH227966   1.526   0.106  17.144 -0.9890 -0.3428 -0.4314
 2184TIP3    H127967   1.436   0.127  17.119 -1.0172  0.2949  0.2088
 2184TIP3    H227968   1.572   0.098  17.060 -1.2437  1.1045 -0.7231
 2185TIP3   OH227969   2.246   4.173  12.799  0.0231 -0.3438 -0.2651
 2185TIP3    H127970   2.152   4.160  12.786 -0.1055 -2.0686  2.0286
 2185TIP3    H227971   2.284   4.087  12.779  1.1596  0.4771 -1.6368
 2186TIP3   OH227972   5.109   3.823  15.966  0.4741  0.1795 -0.3722
 2186TIP3    H127973   5.054   3.757  16.007  0.7061 -0.1770 -0.6306
 2186TIP3    H227974   5.048   3.890  15.934  0.1062 -0.7161 -1.5771
 2187TIP3   OH227975   0.093   4.390   1.040 -0.4217 -0.6962 -0.4649
 2187TIP3    H127976   0.085   4.308   1.090  1.6051 -0.7344 -0.1586
 2187TIP3    H227977   0.182   4.389   1.006 -0.5231  1.1779 -0.8514
 2188TIP3   OH227978   1.731   0.531  11.645 -0.9132 -0.3162  0.1470
 2188TIP3    H127979   1.660   0.595  11.634  1.2613  1.7784 -2.5932
 2188TIP3    H227980   1.706   0.458  11.588 -1.5463 -0.1899  0.2580
 2189TIP3   OH227981   3.959   6.680  11.946 -0.2311  0.1534 -0.4954
 2189TIP3    H127982   3.965   6.774  11.930 -0.1241  0.0377 -1.1557
 2189TIP3    H227983   4.049   6.650  11.946 -0.2978 -0.0623 -1.0144
 2190TIP3   OH227984   2.408   0.753  16.844 -0.2903 -0.2023 -0.1548
 2190TIP3    H127985   2.358   0.755  16.926 -1.6013  1.5095 -0.9497
 2190TIP3    H227986   2.480   0.815  16.858 -1.2034  0.9961 -0.7007
 2191TIP3   OH227987   4.054   1.719   1.225 -0.0553 -0.6686 -0.4258
 2191TIP3    H127988   4.104   1.740   1.304 -1.5543  0.6272  0.2108
 2191TIP3    H227989   4.120   1.712   1.156  1.1712 -0.7915  0.7268
 2192TIP3   OH227990   6.607   2.410  13.078 -0.0457 -0.8010 -0.5709
 2192TIP3    H127991   6.542   2.449  13.136  0.5695 -1.3035  0.4669
 2192TIP3    H227992   6.558   2.346  13.026 -0.5007 -0.7077 -0.2557
 2193TIP3   OH227993   1.439   1.920   0.788  0.2153  0.1293 -0.1201
 2193TIP3    H127994   1.346   1.897   0.792  0.3691 -0.5629 -0.4096
 2193TIP3    H227995   1.471   1.905   0.877  0.5630 -1.8846 -0.5696
 2194TIP3   OH227996   2.420   2.603   5.336 -0.1346 -0.4018 -0.2153
 2194TIP3    H127997   2.458   2.569   5.417  0.0598 -0.2094 -0.2246
 2194TIP3    H227998   2.473   2.681   5.317 -0.2532 -0.3859 -0.4653
 2195TIP3   OH227999   3.234   0.151  12.426  0.0858 -0.6178 -0.3012
 2195TIP3    H128000   3.145   0.136  12.456 -0.3476  2.4517  0.0761
 2195TIP3    H228001   3.225   0.173  12.334  0.4779 -0.4210 -0.2931
 2196TIP3   OH228002   0.337   5.945   5.154  0.0540 -0.5114  0.5276
 2196TIP3    H128003   0.262   5.945   5.094 -0.6314  0.0380  1.3740
 2196TIP3    H228004   0.402   6.000   5.111 -1.0246  1.1722  1.0040
 2197TIP3   OH228005   1.866   0.752  16.192  0.2206  0.3915  0.2986
 2197TIP3    H128006   1.887   0.839  16.227 -0.0618  0.5007  0.1943
 2197TIP3    H228007   1.859   0.765  16.098  0.8811  0.1153  0.2123
 2198TIP3   OH228008   1.059   4.975   4.717 -0.3017 -0.2444 -0.5288
 2198TIP3    H128009   1.030   4.884   4.705 -0.5985  0.1474 -2.9487
 2198TIP3    H228010   1.155   4.968   4.719 -0.3018 -0.5682 -1.2451
 2199TIP3   OH228011   6.754   1.815   3.912 -0.2667 -0.6311 -0.0135
 2199TIP3    H128012   6.787   1.884   3.969 -2.1303 -0.7249  1.2002
 2199TIP3    H228013   6.831   1.787   3.861  0.9112  0.9905  0.8405
 2200TIP3   OH228014   2.829   0.302  16.922 -0.5391  0.0063  0.0034
 2200TIP3    H128015   2.785   0.249  16.856  1.5433 -0.5824 -0.9334
 2200TIP3    H228016   2.906   0.251  16.946 -0.4485  0.9425  1.7664
 2201TIP3   OH228017   1.709   3.382   4.829 -0.6349 -0.2590  0.0826
 2201TIP3    H128018   1.749   3.469   4.818  1.0502 -0.7359  2.1618
 2201TIP3    H228019   1.615   3.398   4.819 -0.1894  1.4301 -1.7203
 2202TIP3   OH228020   0.659   3.098   2.987  0.6239  0.5523 -0.4716
 2202TIP3    H128021   0.643   3.041   2.911  1.0840  1.7611 -1.5003
 2202TIP3    H228022   0.573   3.108   3.028  0.8192 -2.3124  0.7972
 2203TIP3   OH228023   4.269   1.401   4.450 -0.2017  0.3676  0.0973
 2203TIP3    H128024   4.244   1.477   4.396 -0.3227  1.9969  2.3888
 2203TIP3    H228025   4.344   1.432   4.500 -0.4495 -0.9459  1.2780
 2204TIP3   OH228026   6.390   4.428   0.992  0.3919 -0.2906 -0.4234
 2204TIP3    H128027   6.347   4.395   0.913  1.3362 -2.7775  0.0676
 2204TIP3    H228028   6.355   4.374   1.063 -1.1867  2.5403  1.0585
 2205TIP3   OH228029   0.491   0.780   2.396  0.5728 -0.3346  0.3806
 2205TIP3    H128030   0.436   0.815   2.326 -0.5166  0.4021  1.5850
 2205TIP3    H228031   0.431   0.765   2.469  1.9438  0.3342  1.6747
 2206TIP3   OH228032   0.599   4.692  14.401 -0.0315  0.1431  0.3925
 2206TIP3    H128033   0.568   4.767  14.452  0.9847  0.5413  0.4285
 2206TIP3    H228034   0.692   4.683  14.424 -0.3407 -1.6562  1.0491
 2207TIP3   OH228035   4.003   4.997  14.363  0.2502  0.1895 -0.0209
 2207TIP3    H128036   3.910   5.012  14.345  0.1480  1.7690  1.6116
 2207TIP3    H228037   4.046   5.075  14.327  1.0727 -1.0140 -1.6821
 2208TIP3   OH228038   4.479   3.167  14.059 -0.1293  0.5410  0.2015
 2208TIP3    H128039   4.443   3.162  14.148  0.1425 -1.1036  0.2297
 2208TIP3    H228040   4.538   3.242  14.062  1.0867 -0.4545  1.8666
 2209TIP3   OH228041   4.815   0.684   4.456 -0.0064  0.2007 -0.3820
 2209TIP3    H128042   4.788   0.736   4.532 -0.7528  0.4054 -0.7853
 2209TIP3    H228043   4.796   0.739   4.380 -1.4811 -0.9247 -0.8606
 2210TIP3   OH228044   3.796   2.322  13.053 -0.7485  0.1685 -0.2515
 2210TIP3    H128045   3.761   2.407  13.080 -0.2619 -0.1549  1.4351
 2210TIP3    H228046   3.860   2.300  13.120  0.9156 -0.4125 -1.9746
 2211TIP3   OH228047   1.449   6.332   6.216  0.1282  0.1075 -0.1631
 2211TIP3    H128048   1.492   6.309   6.298 -0.7500  3.5291  1.3438
 2211TIP3    H228049   1.509   6.303   6.148  2.7008  0.6559  1.8024
 2212TIP3   OH228050   3.556   2.964  16.394 -0.2319  0.1942 -0.2513
 2212TIP3    H128051   3.622   2.900  16.419  1.1756  0.8396 -2.2092
 2212TIP3    H228052   3.534   2.943  16.303 -2.9046 -0.1512  0.4350
 2213TIP3   OH228053   0.906   5.437  13.087  0.3634  0.1038  0.3577
 2213TIP3    H128054   0.976   5.467  13.144 -0.8330  2.0605  0.8719
 2213TIP3    H228055   0.870   5.518  13.049 -0.4819 -0.9832 -1.2056
 2214TIP3   OH228056   1.421   2.153  14.791 -0.4953 -0.2097 -0.2885
 2214TIP3    H128057   1.374   2.224  14.747  0.3001  0.8845  0.6013
 2214TIP3    H228058   1.391   2.158  14.882  1.3096  0.4878  0.2845
 2215TIP3   OH228059   3.154   0.815   4.322 -0.2851  0.7096  0.1304
 2215TIP3    H128060   3.203   0.898   4.319 -0.4907  0.8530  0.7764
 2215TIP3    H228061   3.188   0.765   4.247  0.5417  0.9811  0.3126
 2216TIP3   OH228062   0.387   1.553   5.265 -0.3679 -0.0618  0.0038
 2216TIP3    H128063   0.429   1.469   5.286  0.7176  1.1681  3.1123
 2216TIP3    H228064   0.428   1.581   5.183 -0.1151 -2.1353 -0.6039
 2217TIP3   OH228065   2.985   2.388  10.706 -0.0633  0.3752 -0.3059
 2217TIP3    H128066   2.897   2.361  10.680 -0.2436  1.5755 -1.0240
 2217TIP3    H228067   3.042   2.317  10.677 -0.7635 -0.2827 -0.0827
 2218TIP3   OH228068   6.205   5.519   0.771 -0.0008 -1.1404  0.4307
 2218TIP3    H128069   6.143   5.583   0.806 -1.3489 -3.3159  2.1648
 2218TIP3    H228070   6.196   5.443   0.829  2.2786 -2.5300 -0.9710
 2219TIP3   OH228071   2.866   1.378  11.363 -0.4990 -0.1414  0.1721
 2219TIP3    H128072   2.951   1.407  11.329 -0.5647  0.0533  0.1730
 2219TIP3    H228073   2.845   1.441  11.432 -0.2165 -0.7302  0.7920
 2220TIP3   OH228074   2.135   0.922   3.598 -0.4025 -0.1773 -0.3379
 2220TIP3    H128075   2.170   0.998   3.550  0.7149 -0.7424 -0.4445
 2220TIP3    H228076   2.106   0.958   3.681  0.6961  0.2835 -0.1412
 2221TIP3   OH228077   5.664   3.723  14.072 -0.2977 -0.1078  0.0318
 2221TIP3    H128078   5.594   3.742  14.134 -0.7458  0.9856 -0.7843
 2221TIP3    H228079   5.744   3.751  14.116 -0.4283 -0.9032  0.7734
 2222TIP3   OH228080   1.696   5.426   4.953 -0.0146 -0.3772  0.5372
 2222TIP3    H128081   1.744   5.360   5.003 -1.2234 -1.4672  0.2977
 2222TIP3    H228082   1.682   5.498   5.015 -0.4583 -1.2152  1.4233
 2223TIP3   OH228083   5.582   4.357  16.278 -0.1026  0.0380 -0.8458
 2223TIP3    H128084   5.592   4.449  16.254 -1.9918  0.4414 -0.1905
 2223TIP3    H228085   5.564   4.359  16.372  0.9183 -1.0834 -0.6197
 2224TIP3   OH228086   1.150   3.994   2.479  0.9988  0.7018  0.9170
 2224TIP3    H128087   1.139   4.000   2.574  1.1334  0.3280  0.9552
 2224TIP3    H228088   1.240   3.963   2.467  0.3894 -1.0030  0.7095
 2225TIP3   OH228089   6.314   0.494  16.817 -0.0511  0.2382  0.8139
 2225TIP3    H128090   6.357   0.470  16.734 -0.4944  0.9382  0.3762
 2225TIP3    H228091   6.221   0.484  16.798 -0.2086  1.6462  0.8366
 2226TIP3   OH228092   3.692   2.522  14.935  0.5950  0.5927  0.6251
 2226TIP3    H128093   3.685   2.586  15.006 -0.3882  0.0870  0.9990
 2226TIP3    H228094   3.609   2.474  14.938  0.6584  0.3836 -0.6929
 2227TIP3   OH228095   3.652   4.612  16.387 -0.1778 -0.3537  0.1942
 2227TIP3    H128096   3.587   4.604  16.457  0.4865 -1.5513  0.6859
 2227TIP3    H228097   3.735   4.590  16.429  0.5039  0.8225 -0.5159
 2228TIP3   OH228098   1.896   0.609   2.145 -0.3592 -0.5542 -0.0276
 2228TIP3    H128099   1.931   0.569   2.065  0.9736 -0.4492  0.4802
 2228TIP3    H228100   1.862   0.694   2.117  2.2002  0.4798 -0.1198
 2229TIP3   OH228101   2.460   0.890  12.491  0.0950 -0.5920 -0.0493
 2229TIP3    H128102   2.375   0.857  12.464  0.0360 -0.9092  0.5088
 2229TIP3    H228103   2.470   0.860  12.582  1.2243 -1.4198 -0.4225
 2230TIP3   OH228104   0.174   3.841   3.078  0.1449  0.1821 -0.0736
 2230TIP3    H128105   0.135   3.897   3.011 -0.7175 -0.7996 -0.4027
 2230TIP3    H228106   0.244   3.894   3.115  0.5017  0.8216 -1.6074
 2231TIP3   OH228107   6.572   1.336   6.117 -0.5210  0.0541 -0.1990
 2231TIP3    H128108   6.647   1.361   6.064  0.4128 -0.7375  0.7190
 2231TIP3    H228109   6.522   1.417   6.127  0.8923  0.9079  0.2515
 2232TIP3   OH228110   3.632   1.991  11.413  0.0587 -0.0793  0.6061
 2232TIP3    H128111   3.677   2.056  11.358 -0.0293  1.5684  2.4039
 2232TIP3    H228112   3.541   1.997  11.386  0.0272  0.6567  0.8564
 2233TIP3   OH228113   1.507   5.015  14.831  0.1580 -0.2449 -0.0109
 2233TIP3    H128114   1.542   4.938  14.875 -2.2064 -2.4680 -1.8265
 2233TIP3    H228115   1.572   5.037  14.765  0.7353 -0.8436  0.3539
 2234TIP3   OH228116   1.157   3.807  14.356 -0.0410 -0.5976 -0.7371
 2234TIP3    H128117   1.083   3.787  14.299 -0.5157 -2.0686  0.3590
 2234TIP3    H228118   1.193   3.888  14.320 -1.1334 -0.7708 -2.3093
 2235TIP3   OH228119   4.294   4.894   0.846  0.4735  0.5662 -0.1593
 2235TIP3    H128120   4.327   4.958   0.909 -0.3347  0.5333  0.3032
 2235TIP3    H228121   4.237   4.944   0.787 -0.5749  0.1927  0.5178
 2236TIP3   OH228122   0.670   1.812   5.466 -0.1124 -0.0079 -0.8809
 2236TIP3    H128123   0.676   1.908   5.462  0.1032 -0.0152 -0.7437
 2236TIP3    H228124   0.631   1.787   5.383  0.0561  0.1838 -1.0187
 2237TIP3   OH228125   1.363   2.065   3.532  0.2583  0.2569  0.3689
 2237TIP3    H128126   1.327   2.112   3.607 -0.8715 -0.2899  0.1807
 2237TIP3    H228127   1.389   1.980   3.567 -1.1166 -0.3419 -0.0270
 2238TIP3   OH228128   3.183   3.579   3.842  0.4561  0.3440  0.1900
 2238TIP3    H128129   3.177   3.669   3.809 -1.4376  0.4344  0.7162
 2238TIP3    H228130   3.159   3.525   3.767 -1.7622  0.4583  0.7692
 2239TIP3   OH228131   6.075   2.871  16.744 -0.1083  0.1570 -0.4533
 2239TIP3    H128132   6.024   2.859  16.824  0.2752  1.3142 -0.0359
 2239TIP3    H228133   6.162   2.839  16.767  0.4763  2.1496  0.1504
 2240TIP3   OH228134   3.414   6.284   5.650  0.3059  0.0903  0.2167
 2240TIP3    H128135   3.480   6.272   5.719 -0.4121 -2.0546  0.5768
 2240TIP3    H228136   3.446   6.359   5.599  0.8345  1.7345  2.8755
 2241TIP3   OH228137   0.371   2.483   5.895  0.3226 -0.0861 -0.0730
 2241TIP3    H128138   0.305   2.526   5.949  1.3427  1.1771  0.1930
 2241TIP3    H228139   0.419   2.426   5.956 -0.8464 -1.4275 -0.3717
 2242TIP3   OH228140   3.546   3.800  12.932  0.1833  0.1978  0.4395
 2242TIP3    H128141   3.540   3.741  12.857 -1.3265  1.2034 -0.2557
 2242TIP3    H228142   3.571   3.884  12.894 -1.5085  0.9380  0.9300
 2243TIP3   OH228143   1.092   5.467   2.314  0.0284 -0.1149 -0.8606
 2243TIP3    H128144   1.167   5.408   2.304 -0.1609 -0.4804 -0.1468
 2243TIP3    H228145   1.128   5.544   2.357  0.4012  0.5625 -2.3381
 2244TIP3   OH228146   5.400   0.283   1.565  0.3953 -0.1754  0.6890
 2244TIP3    H128147   5.320   0.310   1.521  0.0697  1.0618  1.9954
 2244TIP3    H228148   5.457   0.252   1.495 -0.6971  0.2661 -0.4059
 2245TIP3   OH228149   6.346   2.861  15.776  0.1930 -0.2600 -0.1429
 2245TIP3    H128150   6.259   2.821  15.786  0.1578 -0.1112  0.1361
 2245TIP3    H228151   6.336   2.949  15.810 -0.0387  0.4025 -1.8702
 2246TIP3   OH228152   4.984   0.344  13.644 -0.4180 -0.2530  0.1650
 2246TIP3    H128153   5.051   0.402  13.607 -0.1317 -0.7177 -0.0424
 2246TIP3    H228154   4.903   0.372  13.602 -0.5824  1.1909  1.3854
 2247TIP3   OH228155   6.028   4.969  14.233  0.3159 -0.1247 -0.4855
 2247TIP3    H128156   6.034   5.037  14.301 -0.5355  2.0011 -2.4620
 2247TIP3    H228157   6.116   4.933  14.227  1.0818  1.6187 -0.1728
 2248TIP3   OH228158   1.559   3.672   3.064 -0.2182 -0.7668  0.1915
 2248TIP3    H128159   1.540   3.601   3.125 -0.4241  0.4357  1.5481
 2248TIP3    H228160   1.651   3.660   3.041 -0.2144 -1.3958  0.5311
 2249TIP3   OH228161   5.850   1.509   4.702  0.1207 -0.5993  0.4531
 2249TIP3    H128162   5.788   1.486   4.771  0.8109 -1.8507  0.6858
 2249TIP3    H228163   5.912   1.569   4.743 -0.0848 -0.5092  0.6286
 2250TIP3   OH228164   6.133   0.342   3.632  0.4323 -0.1480  0.0012
 2250TIP3    H128165   6.115   0.433   3.609  1.3306 -0.4006 -1.7737
 2250TIP3    H228166   6.194   0.348   3.706 -1.2823  0.6764  1.3651
 2251TIP3   OH228167   0.715   1.085  16.037 -0.1968 -0.1823 -0.7577
 2251TIP3    H128168   0.802   1.103  16.001  0.7537 -1.7038  0.7161
 2251TIP3    H228169   0.687   1.005  15.993  0.1385 -0.9576  0.4189
 2252TIP3   OH228170   3.226   5.699  15.501 -0.5503  0.3821  0.6500
 2252TIP3    H128171   3.177   5.641  15.559 -1.3909 -1.2765 -1.6443
 2252TIP3    H228172   3.166   5.770  15.481 -1.7536 -1.1458 -1.3777
 2253TIP3   OH228173   5.922   3.152   5.960 -0.4939  0.0443 -0.5165
 2253TIP3    H128174   5.904   3.240   5.928  0.1116  0.5582  0.5395
 2253TIP3    H228175   5.836   3.112   5.969 -0.9216  1.2145  0.9086
 2254TIP3   OH228176   5.410   1.327  11.218  0.0473  0.0556  0.1136
 2254TIP3    H128177   5.396   1.269  11.293 -1.2797 -0.2322 -0.3426
 2254TIP3    H228178   5.375   1.278  11.143 -1.3608  1.5669 -0.2418
 2255TIP3   OH228179   1.519   4.472  13.716  0.3760 -0.3682 -0.7096
 2255TIP3    H128180   1.539   4.390  13.671 -1.6346 -0.1699 -2.0197
 2255TIP3    H228181   1.515   4.538  13.646 -0.4241  0.3884  0.0327
 2256TIP3   OH228182   4.910   3.216   3.363  0.1120 -0.1280  0.0852
 2256TIP3    H128183   4.885   3.220   3.271  1.9981 -0.0081 -0.4512
 2256TIP3    H228184   4.888   3.128   3.391  1.4610 -0.8669 -1.0958
 2257TIP3   OH228185   3.777   1.835   4.361 -0.3779 -0.0613  0.1528
 2257TIP3    H128186   3.726   1.907   4.398  1.4128  1.0127  0.5888
 2257TIP3    H228187   3.867   1.854   4.386  0.5938 -0.5701 -2.7509
 2258TIP3   OH228188   2.270   0.606  14.064 -0.0922  0.8105 -0.1007
 2258TIP3    H128189   2.175   0.597  14.052  0.0305  0.5584 -0.9405
 2258TIP3    H228190   2.305   0.522  14.036  0.5880  1.8036 -2.3014
 2259TIP3   OH228191   3.338   1.548   2.041 -0.4568 -0.3306  0.4182
 2259TIP3    H128192   3.332   1.456   2.015  0.6845 -0.4481  0.5550
 2259TIP3    H228193   3.414   1.582   1.994  0.4886 -0.0545  2.1238
 2260TIP3   OH228194   1.130   4.523   6.034 -0.4022  0.2752  0.2661
 2260TIP3    H128195   1.144   4.602   5.983 -0.0247  1.3639  2.0120
 2260TIP3    H228196   1.218   4.491   6.054 -0.5506 -0.1499  0.2594
 2261TIP3   OH228197   2.678   3.437  13.465  0.1476 -0.2589  0.2928
 2261TIP3    H128198   2.728   3.402  13.539  0.3292  0.9588  0.7569
 2261TIP3    H228199   2.656   3.527  13.491  0.8655  0.4375 -1.4421
 2262TIP3   OH228200   1.733   1.768   3.227 -0.3793 -0.1127  0.1371
 2262TIP3    H128201   1.736   1.685   3.180 -1.3370  0.7801 -1.5705
 2262TIP3    H228202   1.821   1.805   3.217 -0.1340 -0.6444  0.3622
 2263TIP3   OH228203   5.034   3.369   6.435  0.7854 -0.3500 -0.5195
 2263TIP3    H128204   4.959   3.397   6.488  1.7576 -1.2125  1.3700
 2263TIP3    H228205   5.068   3.449   6.397 -0.4841  0.1799 -0.5655
 2264TIP3   OH228206   5.271   5.493  10.568 -0.5452  0.4301 -0.9910
 2264TIP3    H128207   5.209   5.556  10.604 -0.9848 -0.2930 -0.4688
 2264TIP3    H228208   5.301   5.532  10.486 -1.6920  0.7782 -1.2449
 2265TIP3   OH228209   1.717   3.159  13.427  0.1717  0.0485  0.7263
 2265TIP3    H128210   1.790   3.216  13.405 -0.3257  0.0661 -0.9692
 2265TIP3    H228211   1.641   3.198  13.384 -0.4053 -1.2042  0.5649
 2266TIP3   OH228212   2.092   5.536  15.950 -0.4637  0.0517 -0.9665
 2266TIP3    H128213   2.011   5.535  16.001 -0.5818 -0.2728 -1.1638
 2266TIP3    H228214   2.157   5.573  16.010 -0.8700  0.7867 -0.9777
 2267TIP3   OH228215   4.654   6.457  10.285 -0.0597  0.1485  0.3503
 2267TIP3    H128216   4.700   6.446  10.201 -1.4802  1.6364 -0.6512
 2267TIP3    H228217   4.611   6.373  10.299  0.8144 -0.3720 -0.0275
 2268TIP3   OH228218   6.663   3.504   0.013  0.5804 -0.2711  0.0575
 2268TIP3    H128219   6.620   3.559  -0.052 -0.9034 -2.8003 -1.1938
 2268TIP3    H228220   6.626   3.531   0.097 -0.1286  0.6249 -0.5342
 2269TIP3   OH228221   3.651   6.350  13.729  0.4916  0.2928 -0.1915
 2269TIP3    H128222   3.729   6.329  13.780  1.0812  1.8982 -0.3989
 2269TIP3    H228223   3.680   6.418  13.667 -1.2363  1.4414  0.2148
 2270TIP3   OH228224   1.382   0.187  13.928  0.8470  0.0112  0.0719
 2270TIP3    H128225   1.357   0.123  13.861 -2.9299  0.3412  1.0650
 2270TIP3    H228226   1.336   0.267  13.902  1.9413  1.0583  1.3143
 2271TIP3   OH228227   2.834   4.370   2.877  0.0108  0.0051 -0.2500
 2271TIP3    H128228   2.879   4.286   2.871 -1.0582 -0.5224 -0.8841
 2271TIP3    H228229   2.741   4.348   2.882 -0.1918  1.0870  1.1252
 2272TIP3   OH228230   1.865   5.467  14.292 -0.1678 -0.2561  0.0232
 2272TIP3    H128231   1.838   5.396  14.351  0.1243  0.5502  1.1429
 2272TIP3    H228232   1.855   5.430  14.204 -0.8015 -1.4078  0.5656
 2273TIP3   OH228233   1.484   3.406  12.793 -0.2872 -0.0695 -0.0225
 2273TIP3    H128234   1.432   3.337  12.752  0.6048 -0.4698 -0.4883
 2273TIP3    H228235   1.538   3.361  12.858 -0.9403  0.4244  0.8852
 2274TIP3   OH228236   1.482   5.603  11.743 -0.0672  0.4680  0.2217
 2274TIP3    H128237   1.438   5.580  11.826 -1.6739 -2.5004 -1.3794
 2274TIP3    H228238   1.410   5.621  11.682  1.0478  0.2256 -1.1866
 2275TIP3   OH228239   3.578   3.572  11.938  0.0877 -0.8023  0.2650
 2275TIP3    H128240   3.650   3.563  12.000  0.7642  1.9818 -0.0395
 2275TIP3    H228241   3.501   3.588  11.992  0.1328 -1.3752  0.4978
 2276TIP3   OH228242   0.688   6.461  16.868 -0.0827  0.3201 -0.1046
 2276TIP3    H128243   0.678   6.436  16.776 -0.4863  0.5325 -0.1173
 2276TIP3    H228244   0.771   6.508  16.871  0.6023 -0.8503 -0.1148
 2277TIP3   OH228245   6.375   2.380   3.277 -0.3272 -0.0752 -0.9984
 2277TIP3    H128246   6.454   2.336   3.244 -0.2719 -0.2226 -0.6691
 2277TIP3    H228247   6.303   2.331   3.238 -0.2942 -1.3774  0.5053
 2278TIP3   OH228248   6.476   2.633  14.861  0.4615 -0.5662 -0.1110
 2278TIP3    H128249   6.385   2.662  14.862  0.4291 -0.6679 -0.1160
 2278TIP3    H228250   6.473   2.544  14.826  0.4098 -1.1323  1.3022
 2279TIP3   OH228251   0.783   1.612  16.401 -0.1721  0.0356 -0.4217
 2279TIP3    H128252   0.736   1.589  16.321  0.1190  0.5453 -0.7448
 2279TIP3    H228253   0.868   1.570  16.392  0.5177  1.5716 -1.2058
 2280TIP3   OH228254   0.456   6.568   0.371  0.3788  0.2505 -0.1648
 2280TIP3    H128255   0.374   6.528   0.342  0.4195  0.8079 -1.0659
 2280TIP3    H228256   0.503   6.496   0.415 -1.3939  0.4252  2.0675
 2281TIP3   OH228257   4.491   2.686  12.801 -0.2427 -0.2338  0.2227
 2281TIP3    H128258   4.443   2.728  12.730  0.1335 -0.4684 -0.1721
 2281TIP3    H228259   4.460   2.595  12.801  0.1435 -0.3660  0.0155
 2282TIP3   OH228260   6.681   6.366  14.244 -1.3537 -0.3289  0.1200
 2282TIP3    H128261   6.776   6.362  14.257 -1.3648  1.4150  0.7933
 2282TIP3    H228262   6.648   6.289  14.290 -0.2568 -1.0987 -0.3474
 2283TIP3   OH228263   5.464   0.318  12.836 -0.3089 -0.8612 -0.0088
 2283TIP3    H128264   5.410   0.247  12.872  0.9531 -1.0367  1.5913
 2283TIP3    H228265   5.540   0.274  12.799  1.7459 -0.2278  3.2800
 2284TIP3   OH228266   3.060   0.094   2.955 -0.4215 -0.0910  0.3288
 2284TIP3    H128267   3.002   0.047   2.896  0.1634 -0.0437 -0.3014
 2284TIP3    H228268   3.003   0.153   3.004 -1.0376 -0.8247  0.4918
 2285TIP3   OH228269   0.818   0.403  12.333  0.0519 -0.5168  0.2382
 2285TIP3    H128270   0.756   0.408  12.405 -0.4888  1.4806 -0.3245
 2285TIP3    H228271   0.893   0.456  12.362 -0.3046  0.5581 -0.7833
 2286TIP3   OH228272   4.422   4.740   5.644 -0.1676  0.1313 -0.1597
 2286TIP3    H128273   4.383   4.827   5.642 -1.3257 -0.3813 -1.2127
 2286TIP3    H228274   4.352   4.682   5.612  0.6493 -1.1505  0.3284
 2287TIP3   OH228275   4.580   1.652  15.130 -1.0830 -0.2616  0.2378
 2287TIP3    H128276   4.499   1.603  15.117 -2.5395  2.2388 -0.3976
 2287TIP3    H228277   4.552   1.743  15.136  1.3774  0.3584  3.2063
 2288TIP3   OH228278   5.364   2.304  11.343  0.1317  0.0743  0.2378
 2288TIP3    H128279   5.438   2.326  11.286 -0.2298  1.2190  0.1944
 2288TIP3    H228280   5.391   2.225  11.388  0.0423 -1.4360 -2.2559
 2289TIP3   OH228281   2.825   1.677  14.944 -0.6106 -0.4723  0.6811
 2289TIP3    H128282   2.824   1.743  15.013  0.4807 -0.7826  1.0066
 2289TIP3    H228283   2.917   1.652  14.935 -0.6983 -0.2679 -1.0542
 2290TIP3   OH228284   5.124   1.227  15.708  0.3505  0.0367  0.4498
 2290TIP3    H128285   5.058   1.189  15.765  1.1638  0.0964  1.4497
 2290TIP3    H228286   5.157   1.302  15.757  2.1065 -0.7773  0.5597
 2291TIP3   OH228287   1.328   5.442   4.057 -0.1403 -0.5215  0.7644
 2291TIP3    H128288   1.296   5.514   4.002  3.3490  1.6509  1.4589
 2291TIP3    H228289   1.373   5.383   3.995 -0.3933 -0.5882  0.6403
 2292TIP3   OH228290   1.331   4.053   6.057  0.3877  1.0027  0.0755
 2292TIP3    H128291   1.320   4.018   6.146 -0.0600  0.6751 -0.1075
 2292TIP3    H228292   1.358   3.977   6.005  1.5513  1.3819  0.1155
 2293TIP3   OH228293   3.399   0.454   2.853  0.0127  0.1191 -0.1867
 2293TIP3    H128294   3.395   0.540   2.894 -1.0251 -0.1356  0.2585
 2293TIP3    H228295   3.435   0.471   2.765  0.2199  0.9362  0.0538
 2294TIP3   OH228296   2.157   0.001  14.041  0.0268  0.7760 -0.1383
 2294TIP3    H128297   2.066   0.028  14.042 -0.3830 -0.5424  1.2821
 2294TIP3    H228298   2.176  -0.020  13.950 -0.4013  3.2172 -0.8092
 2295TIP3   OH228299   5.562   3.871  16.201 -0.0869 -0.2482 -0.0858
 2295TIP3    H128300   5.547   3.835  16.288  0.6101 -1.0966 -0.3242
 2295TIP3    H228301   5.476   3.867  16.159  0.0374 -1.8721 -0.2053
 2296TIP3   OH228302   5.177   6.538   6.098 -0.4542  0.4560 -0.0304
 2296TIP3    H128303   5.210   6.624   6.125  1.7445 -0.7022  1.0121
 2296TIP3    H228304   5.190   6.537   6.003  0.0320  1.0553  0.0252
 2297TIP3   OH228305   3.929   3.030  12.762  0.3155 -0.0610  0.0588
 2297TIP3    H128306   3.953   2.937  12.771  0.0615 -0.1854 -0.5063
 2297TIP3    H228307   3.833   3.030  12.765  0.2981  0.1175 -0.5502
 2298TIP3   OH228308   6.107   5.915   3.968  0.2604 -0.1036  0.0479
 2298TIP3    H128309   6.177   5.947   3.911 -1.2030 -0.1899 -1.8288
 2298TIP3    H228310   6.030   5.908   3.911 -0.6540 -2.4445  1.4703
 2299TIP3   OH228311   0.616   1.023  14.629  0.3551 -0.4071 -0.8443
 2299TIP3    H128312   0.545   1.063  14.579  0.3360 -0.3459 -0.7697
 2299TIP3    H228313   0.586   0.934  14.646 -0.7928  0.3349  1.2743
 2300TIP3   OH228314   3.607   0.061   5.642  0.2332 -0.4475 -0.3941
 2300TIP3    H128315   3.676   0.095   5.699  0.7928 -0.3830 -1.1050
 2300TIP3    H228316   3.540   0.029   5.702  1.4523 -1.7018  0.3238
 2301TIP3   OH228317   5.765   2.581  16.699 -0.0208  0.5122  0.4258
 2301TIP3    H128318   5.699   2.556  16.635  0.9644 -0.4966 -0.2051
 2301TIP3    H228319   5.824   2.640  16.651  0.0500  0.6969  0.7344
 2302TIP3   OH228320   3.944   6.665   0.185 -0.0076  0.6556 -0.1979
 2302TIP3    H128321   4.021   6.643   0.238 -0.7278 -1.5734 -0.0241
 2302TIP3    H228322   3.901   6.581   0.169 -1.1001  1.5806 -2.3275
 2303TIP3   OH228323   5.798   2.585  13.873  0.3002  0.4164  0.0512
 2303TIP3    H128324   5.853   2.654  13.836  2.0075 -1.1432 -0.4256
 2303TIP3    H228325   5.779   2.614  13.962  0.8412  1.5956 -0.2054
 2304TIP3   OH228326   4.572   5.248   4.312 -0.4494  0.1005  0.2727
 2304TIP3    H128327   4.636   5.177   4.307 -0.8964 -0.3816  1.1957
 2304TIP3    H228328   4.605   5.306   4.381 -0.3656  0.4987 -0.1019
 2305TIP3   OH228329   0.034   1.378   2.503  0.2019  0.3468 -0.0191
 2305TIP3    H128330   0.118   1.395   2.461 -0.7835 -0.5156 -2.4418
 2305TIP3    H228331  -0.026   1.363   2.430 -1.7073 -0.6200  1.7080
 2306TIP3   OH228332   1.829   6.411  15.451  0.0584 -0.4709  0.0274
 2306TIP3    H128333   1.924   6.428  15.451 -0.0283  0.0279  0.5429
 2306TIP3    H228334   1.806   6.406  15.358  0.3345  0.8961 -0.1234
 2307TIP3   OH228335   5.867   0.365   5.714 -0.1655  0.4399 -0.0067
 2307TIP3    H128336   5.785   0.414   5.721  0.2847  1.2330 -0.2316
 2307TIP3    H228337   5.902   0.362   5.803 -0.4309  0.1138  0.0870
 2308TIP3   OH228338   1.465   4.464  14.986  0.6208  0.0247  0.5714
 2308TIP3    H128339   1.469   4.379  14.942 -0.0753 -0.3167  1.1669
 2308TIP3    H228340   1.557   4.486  15.002  0.9553  0.6478 -1.9888
 2309TIP3   OH228341   4.666   3.141  12.173 -0.6366 -0.2600  0.0892
 2309TIP3    H128342   4.754   3.166  12.203 -1.2269  2.3738 -0.3113
 2309TIP3    H228343   4.634   3.217  12.124 -2.5857 -1.7395 -1.0247
 2310TIP3   OH228344   2.663   1.186  13.002 -0.3506 -0.1656 -0.0064
 2310TIP3    H128345   2.619   1.218  13.081 -0.5607  0.4996 -0.3920
 2310TIP3    H228346   2.592   1.158  12.944 -0.2356  0.2609 -0.3526
 2311TIP3   OH228347   2.956   3.431  16.886 -0.2609 -0.1579  0.0082
 2311TIP3    H128348   2.945   3.348  16.840  1.9439 -0.2908 -0.3221
 2311TIP3    H228349   2.979   3.494  16.818  1.2685  0.0160  0.6664
 2312TIP3   OH228350   3.463   3.979  15.590  0.9543 -0.7265  0.0224
 2312TIP3    H128351   3.542   3.986  15.536 -0.9243 -0.2911 -2.7821
 2312TIP3    H228352   3.410   3.914  15.545 -1.4813  1.0493  0.2540
 2313TIP3   OH228353   6.669   3.692  14.126  0.2231 -0.3842 -0.0570
 2313TIP3    H128354   6.590   3.722  14.082  1.5052  1.3666 -1.2330
 2313TIP3    H228355   6.638   3.652  14.207 -1.6932  2.5924  0.7431
 2314TIP3   OH228356   4.384   3.793   5.039  0.1330  0.9494  0.3139
 2314TIP3    H128357   4.410   3.788   5.130 -1.6486 -0.4308  0.7774
 2314TIP3    H228358   4.291   3.815   5.042 -0.1391  0.0585 -1.1499
 2315TIP3   OH228359   0.990   3.866  14.147  0.0550  0.1347 -0.1555
 2315TIP3    H128360   1.052   3.852  14.076 -0.6608 -0.3212 -0.7019
 2315TIP3    H228361   0.908   3.891  14.103  0.2832  2.4085  0.6241
 2316TIP3   OH228362   1.062   2.923   3.203  0.4582 -0.1156 -0.1897
 2316TIP3    H128363   0.972   2.893   3.218  0.7638 -1.8912 -1.6990
 2316TIP3    H228364   1.056   2.982   3.129  0.6929 -1.2933 -1.1704
 2317TIP3   OH228365   6.579   3.815   0.960 -0.0932  0.2470  0.3946
 2317TIP3    H128366   6.491   3.847   0.941 -1.2109 -2.7734  0.2067
 2317TIP3    H228367   6.607   3.771   0.880  1.7023  1.3115  0.3942
 2318TIP3   OH228368   0.810   6.603  12.761  0.1262 -0.0164  0.3732
 2318TIP3    H128369   0.807   6.527  12.818 -1.3514 -0.1247  0.1757
 2318TIP3    H228370   0.791   6.677  12.819 -1.4833 -0.1378  0.0351
 2319TIP3   OH228371   2.117   0.834  11.487 -0.1524 -0.2358  0.0920
 2319TIP3    H128372   2.164   0.808  11.566 -2.9306 -1.6732  1.3694
 2319TIP3    H228373   2.162   0.788  11.416  1.3430 -0.2734  1.0434
 2320TIP3   OH228374   6.571   2.517  12.303  0.2490 -0.4876  0.1088
 2320TIP3    H128375   6.477   2.537  12.307  0.1952 -0.2506 -2.0140
 2320TIP3    H228376   6.576   2.424  12.326 -0.6860 -0.9332 -1.4177
 2321TIP3   OH228377   2.200   3.664  16.467 -0.6410  0.1500  0.2842
 2321TIP3    H128378   2.227   3.756  16.465  0.2223 -0.1145 -0.3838
 2321TIP3    H228379   2.278   3.615  16.440 -1.4834 -0.7034 -0.6282
 2322TIP3   OH228380   5.847   4.193   0.153  0.2255  0.3865  0.5089
 2322TIP3    H128381   5.917   4.129   0.159  0.2917  0.4299  0.2302
 2322TIP3    H228382   5.781   4.152   0.097  1.0935  1.2952 -1.2452
 2323TIP3   OH228383   5.062   1.113  14.375 -0.3967 -0.2910 -0.9598
 2323TIP3    H128384   5.147   1.086  14.408 -1.3810  0.3364  2.2629
 2323TIP3    H228385   5.003   1.042  14.401 -1.5735  1.1868  0.5266
 2324TIP3   OH228386   2.298   4.391  17.125 -0.8829 -0.3046  0.1727
 2324TIP3    H128387   2.273   4.349  17.043 -0.5235  0.0230 -0.1014
 2324TIP3    H228388   2.394   4.385  17.127 -0.7139  1.7287 -0.5283
 2325TIP3   OH228389   4.694   3.660   2.352 -0.7309  0.9620 -0.4503
 2325TIP3    H128390   4.610   3.689   2.317 -1.3113 -1.9879 -1.6245
 2325TIP3    H228391   4.746   3.636   2.275  0.2053  0.2198  0.3943
 2326TIP3   OH228392   3.193   6.020  13.849 -0.5369 -0.7793 -0.2771
 2326TIP3    H128393   3.275   6.002  13.803  0.1960  0.1324  0.6548
 2326TIP3    H228394   3.127   6.022  13.780  0.0551 -2.5354 -0.9209
 2327TIP3   OH228395   0.962   1.010   2.891 -0.1182 -0.7537 -0.0627
 2327TIP3    H128396   0.886   1.041   2.941  1.1724  0.6458  1.0795
 2327TIP3    H228397   1.034   1.066   2.920  1.5407 -2.6261 -0.4942
 2328TIP3   OH228398   4.217   6.305   6.318 -0.1369 -0.0001 -0.5470
 2328TIP3    H128399   4.230   6.321   6.224  1.4928 -1.8618 -0.6664
 2328TIP3    H228400   4.286   6.356   6.361 -0.6953  0.6101 -0.3641
 2329TIP3   OH228401   6.657   1.505  11.740  0.0249 -0.0755 -0.8070
 2329TIP3    H128402   6.723   1.440  11.766  0.0425  0.1397 -0.3157
 2329TIP3    H228403   6.599   1.457  11.681 -0.3559 -0.7268  0.0852
 2330TIP3   OH228404   2.546   1.388  12.252 -0.3380 -0.2334 -0.8291
 2330TIP3    H128405   2.491   1.464  12.273 -0.1276 -0.2650 -0.1494
 2330TIP3    H228406   2.624   1.426  12.213  0.1869 -0.0253  0.3926
 2331TIP3   OH228407   4.160   3.874   5.234  0.2167  0.3009 -0.2323
 2331TIP3    H128408   4.158   3.821   5.313  1.8290  1.8786  0.9126
 2331TIP3    H228409   4.151   3.811   5.162  0.4690 -1.3334  1.1468
 2332TIP3   OH228410   5.618   4.891  15.210  0.0099 -0.1050  0.8896
 2332TIP3    H128411   5.673   4.889  15.131  1.6123  0.0524  1.9658
 2332TIP3    H228412   5.676   4.925  15.278 -1.6468  0.7265  1.9185
 2333TIP3   OH228413   5.883   0.528   5.161 -0.4082 -0.3586  0.4580
 2333TIP3    H128414   5.954   0.472   5.193  0.1213  0.3338  0.5047
 2333TIP3    H228415   5.921   0.574   5.086 -0.7780  0.0825  0.5423
 2334TIP3   OH228416   3.537   3.137  14.148 -0.2488  0.4926 -0.5789
 2334TIP3    H128417   3.525   3.131  14.242 -1.0464 -1.4512 -0.7782
 2334TIP3    H228418   3.628   3.112  14.134 -0.2993  0.1739 -0.3580
 2335TIP3   OH228419   1.078   2.217   1.357  0.3874 -0.4884 -0.2877
 2335TIP3    H128420   1.044   2.135   1.320 -0.5014 -1.3731  2.4040
 2335TIP3    H228421   1.001   2.261   1.393  1.0929  0.8238 -0.3469
 2336TIP3   OH228422   4.940   0.526  12.677 -0.1569  0.2285  0.5515
 2336TIP3    H128423   4.948   0.459  12.609  0.0403 -1.4939  2.2253
 2336TIP3    H228424   5.006   0.592  12.653  1.4923 -1.4682  0.2950
 2337TIP3   OH228425   4.170   2.130  11.425  0.2030  0.2586  0.3267
 2337TIP3    H128426   4.093   2.185  11.411 -0.0627  0.1783  1.4431
 2337TIP3    H228427   4.218   2.134  11.342  0.4785  2.6180  0.5735
 2338TIP3   OH228428   6.308   3.897  13.238 -0.5270 -0.0083 -0.7677
 2338TIP3    H128429   6.238   3.849  13.193  0.2266 -0.1655 -1.7841
 2338TIP3    H228430   6.367   3.925  13.168 -0.4452  1.5647 -0.0837
 2339TIP3   OH228431   6.546   5.211  13.355 -0.4173  0.6079 -0.1993
 2339TIP3    H128432   6.508   5.134  13.398  0.6077  1.5662  2.5109
 2339TIP3    H228433   6.630   5.179  13.321 -0.7389  0.1238 -0.5560
 2340TIP3   OH228434   2.596   1.538  16.642 -0.5387  0.0255 -0.3500
 2340TIP3    H128435   2.509   1.519  16.608  0.8519  0.7875 -4.6888
 2340TIP3    H228436   2.649   1.464  16.615  1.0326  1.5389 -1.5575
 2341TIP3   OH228437   0.657   0.754  10.558  0.8806  0.5681  0.0239
 2341TIP3    H128438   0.594   0.732  10.489 -0.1892 -2.7771  1.9352
 2341TIP3    H228439   0.740   0.720  10.527  1.1915  2.3618 -1.1937
 2342TIP3   OH228440   5.971   1.132  16.699 -0.4435  0.1949 -0.6498
 2342TIP3    H128441   5.906   1.121  16.768 -0.0370  0.3695 -0.2417
 2342TIP3    H228442   6.000   1.043  16.679  0.2492  0.2272  0.1812
 2343TIP3   OH228443   2.019   1.038  11.163 -0.2482 -0.7418 -0.2101
 2343TIP3    H128444   1.989   1.032  11.254 -0.3019 -2.6694 -0.3377
 2343TIP3    H228445   2.073   0.960  11.150  1.1412  0.3804 -1.3475
 2344TIP3   OH228446   3.049   5.304  14.009 -0.4934 -0.0373  0.8262
 2344TIP3    H128447   3.143   5.318  13.994 -0.3703 -0.9114  0.7848
 2344TIP3    H228448   3.042   5.289  14.103 -0.6517  0.4673  0.8980
 2345TIP3   OH228449   2.639   4.682   2.401  0.2311 -0.5040 -0.3297
 2345TIP3    H128450   2.591   4.606   2.434 -1.0197  0.5316  0.3428
 2345TIP3    H228451   2.723   4.680   2.447 -0.5611 -0.4176  1.1807
 2346TIP3   OH228452   1.031   4.261   5.166 -0.3594 -0.1201 -0.4257
 2346TIP3    H128453   1.091   4.188   5.174 -0.6671 -0.3150  0.0936
 2346TIP3    H228454   1.054   4.320   5.237  0.1436  0.4795 -1.0717
 2347TIP3   OH228455   2.717   3.504  12.653 -0.1709 -0.5628  0.1307
 2347TIP3    H128456   2.756   3.421  12.625  0.0102  0.3346 -2.3746
 2347TIP3    H228457   2.787   3.568  12.641 -1.5694  0.6308 -1.9293
 2348TIP3   OH228458   2.657   5.719  11.134  0.6274  0.1475  0.0453
 2348TIP3    H128459   2.678   5.626  11.144 -1.8742 -0.7544 -2.5659
 2348TIP3    H228460   2.565   5.726  11.160  0.3378  1.5794 -1.2684
 2349TIP3   OH228461   0.671   5.239  11.157  0.7265 -0.0849  0.1302
 2349TIP3    H128462   0.584   5.267  11.128  0.8137  0.1115  0.0599
 2349TIP3    H228463   0.732   5.287  11.100  0.8263 -2.3357 -1.7179
 2350TIP3   OH228464   0.239   6.725  10.645  0.1055  0.0886  0.2169
 2350TIP3    H128465   0.263   6.756  10.732  0.6892  0.6771 -0.1569
 2350TIP3    H228466   0.169   6.662  10.661 -1.9015  2.4274  0.8800
 2351TIP3   OH228467   6.298   1.821  14.113 -0.7958  0.1559 -0.3607
 2351TIP3    H128468   6.273   1.806  14.204 -1.7651  0.5237 -0.5603
 2351TIP3    H228469   6.317   1.733  14.079 -1.7627 -0.1274 -0.1842
 2352TIP3   OH228470   3.607   1.923   3.149 -0.2366 -0.0150  0.0706
 2352TIP3    H128471   3.691   1.900   3.189 -1.0308  0.7249  2.2579
 2352TIP3    H228472   3.630   1.959   3.063  1.8932  2.3991  1.5643
 2353TIP3   OH228473   3.685   0.052  15.366 -0.7109 -0.1110 -0.2639
 2353TIP3    H128474   3.619   0.037  15.298 -0.9982 -1.4460  0.2886
 2353TIP3    H228475   3.695   0.148  15.370 -2.7020  0.1190 -0.2878
 2354TIP3   OH228476   6.527   0.803   2.303  0.4298  0.1452 -0.0434
 2354TIP3    H128477   6.571   0.805   2.389 -0.1104 -0.5215  0.2491
 2354TIP3    H228478   6.469   0.879   2.304  1.3615  0.8719 -0.3205
 2355TIP3   OH228479   3.662   2.451  14.243 -0.2414  0.2161 -0.1812
 2355TIP3    H128480   3.705   2.450  14.158  2.0169 -1.6063  0.9144
 2355TIP3    H228481   3.616   2.368  14.248  0.5849 -0.2057  0.7892
 2356TIP3   OH228482   3.906   3.374  17.138 -0.0084  0.7388  0.1738
 2356TIP3    H128483   3.976   3.317  17.105  1.2774  1.1736  2.0242
 2356TIP3    H228484   3.876   3.422  17.062  1.7723  0.5799 -0.6652
 2357TIP3   OH228485   3.159   5.552   0.040  0.4192 -0.0298  0.1783
 2357TIP3    H128486   3.132   5.644   0.041 -2.2572 -0.7841  2.0212
 2357TIP3    H228487   3.078   5.504   0.022  1.5426 -2.0985  0.5597
 2358TIP3   OH228488   4.189   2.063  12.571 -0.0484  0.0794 -0.3055
 2358TIP3    H128489   4.200   1.989  12.512 -0.5337 -0.0889 -0.1909
 2358TIP3    H228490   4.251   2.048  12.642 -0.2959 -0.3291 -0.1739
 2359TIP3   OH228491   3.963   4.408   4.624 -0.2782  0.1149  0.4925
 2359TIP3    H128492   3.917   4.350   4.685 -0.0134 -1.0009 -0.3704
 2359TIP3    H228493   4.040   4.359   4.598  0.0100  0.9100 -0.1531
 2360TIP3   OH228494   2.447   6.448   0.200 -0.0164 -0.0539  0.0836
 2360TIP3    H128495   2.419   6.473   0.112 -1.1541  0.9872  0.7227
 2360TIP3    H228496   2.543   6.453   0.197 -0.1025  1.5353 -0.6461
 2361TIP3   OH228497   4.429   1.625  13.320 -0.3633  0.0128  0.5882
 2361TIP3    H128498   4.335   1.637  13.333  0.0185  0.9163  2.5666
 2361TIP3    H228499   4.436   1.541  13.275 -2.2151  0.7500 -1.1638
 2362TIP3   OH228500   2.001   4.757   1.173  0.2883  0.1393  0.1396
 2362TIP3    H128501   2.083   4.708   1.186  1.1112  1.7144  0.9716
 2362TIP3    H228502   1.978   4.788   1.260 -1.2424 -0.3366 -0.0910
 2363TIP3   OH228503   5.921   3.973  16.900 -0.1419 -0.0914 -0.2549
 2363TIP3    H128504   5.961   3.987  16.814 -0.9568 -1.5387 -0.8988
 2363TIP3    H228505   5.942   4.052  16.949  1.0286  0.4177 -1.5178
 2364TIP3   OH228506   5.267   1.776   3.621  0.0597  0.1723  0.3692
 2364TIP3    H128507   5.348   1.732   3.599  0.2671  0.5842  0.2987
 2364TIP3    H228508   5.213   1.770   3.542  0.8894  1.8493 -0.3533
 2365TIP3   OH228509   5.384   5.178  15.105 -0.2807 -0.3041 -0.4073
 2365TIP3    H128510   5.353   5.097  15.147  0.8525 -0.2741  0.5112
 2365TIP3    H228511   5.411   5.150  15.017  1.8810 -1.2998  0.5485
 2366TIP3   OH228512   2.215   4.483   4.957 -0.4586 -0.2207  0.4698
 2366TIP3    H128513   2.206   4.558   5.016 -0.0743  1.0650 -1.0744
 2366TIP3    H228514   2.296   4.500   4.909 -1.3237 -0.6928 -1.1791
 2367TIP3   OH228515   4.774   1.569   0.760 -0.1004 -1.2775 -0.1783
 2367TIP3    H128516   4.761   1.632   0.830  1.5115 -0.1992 -0.8126
 2367TIP3    H228517   4.856   1.525   0.781  0.5865 -0.6960 -1.5403
 2368TIP3   OH228518   0.738   3.098   3.950 -0.1714  0.4818 -0.2432
 2368TIP3    H128519   0.811   3.154   3.921  0.4090  0.3279  0.9246
 2368TIP3    H228520   0.745   3.096   4.045 -0.5122 -1.1617 -0.2434
 2369TIP3   OH228521   6.007   2.577  15.446 -0.0021 -0.3065 -0.0090
 2369TIP3    H128522   6.023   2.529  15.528 -0.6267 -1.9499 -0.8319
 2369TIP3    H228523   6.091   2.576  15.401  0.6247  1.5164  1.0560
 2370TIP3   OH228524   2.637   4.769  14.854 -0.0672 -0.1710  0.2158
 2370TIP3    H128525   2.617   4.851  14.898  0.4624  2.5052 -4.3094
 2370TIP3    H228526   2.552   4.733  14.829 -0.2130 -0.2692  0.8374
 2371TIP3   OH228527   5.925   4.453   4.885  0.2569  0.4584 -0.1188
 2371TIP3    H128528   5.975   4.518   4.837 -0.0689  0.9058  0.1500
 2371TIP3    H228529   5.876   4.503   4.951 -1.2590  0.1396 -0.9797
 2372TIP3   OH228530   1.068   3.690   3.557  0.5929 -0.0223 -0.2804
 2372TIP3    H128531   1.067   3.600   3.590  0.0148  0.0660 -0.0550
 2372TIP3    H228532   1.027   3.742   3.626 -1.2429  0.0709 -1.4140
 2373TIP3   OH228533   4.852   3.974   1.692 -0.5942  0.2482 -0.7207
 2373TIP3    H128534   4.938   3.936   1.671 -0.0860  0.1802  1.3950
 2373TIP3    H228535   4.789   3.919   1.646  0.4812  0.2474 -2.2299
 2374TIP3   OH228536   5.292   4.188   1.647 -0.0363  0.6170 -0.6146
 2374TIP3    H128537   5.270   4.247   1.575  0.8334  0.9953 -0.5728
 2374TIP3    H228538   5.349   4.240   1.704  1.0104 -0.3625 -0.7441
 2375TIP3   OH228539   2.196   3.799  12.965  0.0583 -0.1823  0.9425
 2375TIP3    H128540   2.189   3.840  13.051 -0.4544 -0.9384  1.2560
 2375TIP3    H228541   2.194   3.705  12.982 -1.3171 -0.3397 -0.0013
 2376TIP3   OH228542   5.983   6.331  13.452 -0.4320  0.3380 -0.2814
 2376TIP3    H128543   5.980   6.314  13.358  1.3176  1.3161 -0.5286
 2376TIP3    H228544   6.006   6.246  13.491  0.7928  0.3871 -0.8944
 2377TIP3   OH228545   4.122   0.400  17.137  0.2025 -0.1888  0.3219
 2377TIP3    H128546   4.164   0.477  17.098 -2.7677  1.6316  0.5868
 2377TIP3    H228547   4.180   0.327  17.114  1.7030  1.7307 -2.2340
 2378TIP3   OH228548   5.336   2.043   2.852 -0.6183 -0.4081 -0.9033
 2378TIP3    H128549   5.400   2.105   2.814 -1.9948  1.2613 -0.5634
 2378TIP3    H228550   5.270   2.033   2.784 -1.4832  0.1375 -0.1483
 2379TIP3   OH228551   0.279   6.189  16.272  0.3914 -0.3651 -0.0662
 2379TIP3    H128552   0.257   6.193  16.179  1.2337  0.2999 -0.2418
 2379TIP3    H228553   0.197   6.165  16.315 -0.3463  0.7063 -0.8423
 2380TIP3   OH228554   0.873   3.161   5.734 -0.8224 -0.0287 -0.4138
 2380TIP3    H128555   0.834   3.136   5.818 -1.6410 -0.7594 -0.9973
 2380TIP3    H228556   0.803   3.207   5.688  0.0281  1.5263 -0.1933
 2381TIP3   OH228557   2.701   4.169   5.712  0.2306 -0.3537 -0.0515
 2381TIP3    H128558   2.649   4.127   5.781 -1.6839  0.5590 -0.8963
 2381TIP3    H228559   2.768   4.218   5.759 -0.0684 -1.0193  1.0900
 2382TIP3   OH228560   5.407   3.738  16.567  0.2963 -0.1959 -0.0996
 2382TIP3    H128561   5.369   3.651  16.575 -0.6476  0.2083 -0.0874
 2382TIP3    H228562   5.385   3.782  16.649 -0.5137  0.5337 -0.6964
 2383TIP3   OH228563   4.543   6.029   0.373 -0.0535  0.6239 -0.2658
 2383TIP3    H128564   4.552   6.123   0.392  0.5865  0.2931  1.1761
 2383TIP3    H228565   4.452   6.019   0.344  0.0238  1.7681 -0.9324
 2384TIP3   OH228566   4.626   5.793  16.786  0.0770 -0.3593  0.2677
 2384TIP3    H128567   4.683   5.852  16.736 -0.9259 -0.9065 -1.5684
 2384TIP3    H228568   4.671   5.709  16.784  0.2742 -0.2685  0.7284
 2385TIP3   OH228569   4.445   3.699   2.202  0.3137  0.4091  0.3998
 2385TIP3    H128570   4.480   3.662   2.121  1.9926  0.1629  1.2217
 2385TIP3    H228571   4.394   3.775   2.173  1.3721  0.6635 -0.8468
 2386TIP3   OH228572   4.625   2.078   0.856 -0.0777 -0.5055  0.0126
 2386TIP3    H128573   4.685   2.008   0.880 -1.1251 -1.3436  0.2069
 2386TIP3    H228574   4.651   2.152   0.911  0.9133 -0.7954 -0.0701
 2387TIP3   OH228575   2.171   6.122   4.401  0.0417  0.8995  0.5408
 2387TIP3    H128576   2.078   6.146   4.404  0.3982  2.1720  2.3165
 2387TIP3    H228577   2.172   6.037   4.356 -1.6180  2.4996 -2.6985
 2388TIP3   OH228578   6.096   2.691   4.199 -0.4812  0.3102 -0.5321
 2388TIP3    H128579   6.113   2.646   4.281  1.2437  0.6037 -0.7056
 2388TIP3    H228580   6.111   2.625   4.131  0.5565  0.7329 -0.7178
 2389TIP3   OH228581   3.438   3.153  10.962  0.3439 -0.2269 -0.0518
 2389TIP3    H128582   3.523   3.154  11.004 -0.3654 -1.1194  1.4360
 2389TIP3    H228583   3.383   3.210  11.016 -0.2205 -0.2896 -0.5457
 2390TIP3   OH228584   3.084   0.581   2.024  0.4077  0.2016  0.0117
 2390TIP3    H128585   3.089   0.578   1.929 -0.2303 -0.3224 -0.0115
 2390TIP3    H228586   3.038   0.500   2.048 -0.2569  0.7726  0.7054
 2391TIP3   OH228587   3.608   2.287   4.808  1.2075 -0.1082  0.4434
 2391TIP3    H128588   3.668   2.345   4.853 -0.2879  1.2755  0.7011
 2391TIP3    H228589   3.607   2.318   4.718 -0.7071  1.2280  0.8993
 2392TIP3   OH228590   4.285   0.517  13.176 -0.1115 -0.1487  0.1878
 2392TIP3    H128591   4.277   0.475  13.091  3.3941 -0.2292 -0.1478
 2392TIP3    H228592   4.196   0.549  13.195 -1.0634 -0.5467 -3.2413
 2393TIP3   OH228593   2.794   6.061   6.242 -0.7263  0.5546  0.3172
 2393TIP3    H128594   2.859   5.993   6.260 -1.3513 -0.0100  0.4578
 2393TIP3    H228595   2.711   6.014   6.238 -1.0829  1.2232 -0.2169
 2394TIP3   OH228596   0.085   1.121   2.081  0.2564  0.3890 -0.2496
 2394TIP3    H128597   0.021   1.059   2.045 -1.7283  1.0208  2.0914
 2394TIP3    H228598   0.122   1.165   2.004 -0.5178 -1.5364 -1.7555
 2395TIP3   OH228599   3.648   3.760  15.434 -0.2893  0.0175 -0.1269
 2395TIP3    H128600   3.667   3.831  15.372  0.3742 -0.7039 -0.7729
 2395TIP3    H228601   3.553   3.762  15.445 -0.3286  0.6780 -0.5417
 2396TIP3   OH228602   3.746   1.358  16.415  0.5111 -0.0394  0.0234
 2396TIP3    H128603   3.682   1.389  16.480  0.1867 -1.3025  0.3234
 2396TIP3    H228604   3.720   1.267  16.397  1.4179 -0.1344 -0.8584
 2397TIP3   OH228605   0.103   6.410   3.953  0.1265  0.1095  0.3704
 2397TIP3    H128606   0.088   6.489   4.005 -0.6764 -0.0063  0.3210
 2397TIP3    H228607   0.083   6.338   4.013 -0.0499 -0.0401  0.1306
 2398TIP3   OH228608   4.378   3.611  13.798  0.7813 -0.1645  0.2808
 2398TIP3    H128609   4.437   3.620  13.723 -0.6245  0.5799 -0.7591
 2398TIP3    H228610   4.390   3.520  13.828  1.5093 -0.3993 -0.7139
 2399TIP3   OH228611   5.922   1.477   2.812  0.0896 -0.1126 -0.3642
 2399TIP3    H128612   5.909   1.532   2.889 -0.7565  0.0479 -0.6111
 2399TIP3    H228613   5.951   1.537   2.743  1.6037 -0.3811  0.0346
 2400TIP3   OH228614   0.383   3.352   2.350 -0.0564  0.8482  0.2475
 2400TIP3    H128615   0.409   3.307   2.270  1.3682  0.4085  0.9265
 2400TIP3    H228616   0.288   3.346   2.352 -0.0291 -0.0163 -0.9038
 2401TIP3   OH228617   0.654   4.690  14.722 -0.5684  0.1853 -0.2519
 2401TIP3    H128618   0.705   4.625  14.770 -0.0896  0.0708 -0.9223
 2401TIP3    H228619   0.667   4.771  14.771 -0.4813 -0.0344  0.0959
 2402TIP3   OH228620   6.753   1.621   5.672 -0.0092  0.6418 -0.0932
 2402TIP3    H128621   6.768   1.614   5.578 -1.4914 -1.8046 -0.2020
 2402TIP3    H228622   6.819   1.563   5.711 -1.6658 -1.1570  0.1176
 2403TIP3   OH228623   1.238   2.293   1.862  0.3336 -0.1135 -0.6957
 2403TIP3    H128624   1.261   2.263   1.774 -0.2694  0.7907 -1.1790
 2403TIP3    H228625   1.163   2.351   1.848  2.6355  3.2084 -0.0685
 2404TIP3   OH228626   2.238   5.212  17.126 -0.3773 -0.0217  0.8339
 2404TIP3    H128627   2.248   5.132  17.075 -0.0786 -0.4898  1.6253
 2404TIP3    H228628   2.164   5.258  17.085  0.0300 -0.2720 -0.1758
 2405TIP3   OH228629   3.416   1.029  14.656 -0.5880 -0.2210 -0.1364
 2405TIP3    H128630   3.404   1.103  14.596 -1.3907  0.7415  1.1838
 2405TIP3    H228631   3.354   1.046  14.727 -0.5615 -2.0133  0.3355
 2406TIP3   OH228632   5.847   3.189   3.978  0.1603  0.1229 -0.5123
 2406TIP3    H128633   5.932   3.196   4.021 -0.2914 -2.4801  0.9216
 2406TIP3    H228634   5.799   3.125   4.031 -2.7714  1.7224 -1.1776
 2407TIP3   OH228635   3.191   1.334   1.120  0.2014 -0.5795  0.3390
 2407TIP3    H128636   3.259   1.365   1.060  0.8948  3.1039  2.9176
 2407TIP3    H228637   3.112   1.382   1.093 -0.4184 -1.7324  0.0399
 2408TIP3   OH228638   6.212   0.574   0.444  0.4264  0.2522 -0.3606
 2408TIP3    H128639   6.200   0.631   0.368  3.5764 -0.2317 -1.2669
 2408TIP3    H228640   6.252   0.494   0.409  0.7527 -0.4929  1.6331
 2409TIP3   OH228641   5.271   6.026  15.087  0.0527 -0.4078  0.1961
 2409TIP3    H128642   5.249   6.070  15.169 -2.0281 -0.6051 -0.2273
 2409TIP3    H228643   5.367   6.032  15.081  0.0265  1.7187  1.4418
 2410TIP3   OH228644   6.461   4.960  11.806  0.4355 -0.1324 -0.7647
 2410TIP3    H128645   6.482   4.889  11.867  0.1054 -1.1650 -1.8235
 2410TIP3    H228646   6.383   5.000  11.842  0.5010 -0.4423 -0.2655
 2411TIP3   OH228647   5.480   1.433  17.065 -0.6315  0.1143  0.3001
 2411TIP3    H128648   5.420   1.360  17.053 -1.9818  1.0017  1.6184
 2411TIP3    H228649   5.528   1.412  17.145 -0.4522  0.2853  0.2374
 2412TIP3   OH228650   0.356   0.892  13.996  0.0392 -0.4561 -0.0157
 2412TIP3    H128651   0.378   0.856  14.082  0.0371 -0.4098  0.0042
 2412TIP3    H228652   0.264   0.919  14.005  0.0405 -0.4466 -0.0301
 2413TIP3   OH228653   0.477   1.836  17.096 -0.1089  0.3663 -0.1399
 2413TIP3    H128654   0.386   1.808  17.082  0.3659 -0.5752 -1.4736
 2413TIP3    H228655   0.529   1.757  17.082  0.9263  0.9304  0.4857
 2414TIP3   OH228656   2.163   5.255  15.900 -0.1519 -0.0269 -0.0030
 2414TIP3    H128657   2.076   5.243  15.937 -0.4119 -0.0452 -0.6219
 2414TIP3    H228658   2.173   5.350  15.892 -0.5953 -0.0602 -1.0613
 2415TIP3   OH228659   4.049   4.824   3.923 -0.4431 -0.3408  0.1992
 2415TIP3    H128660   4.128   4.840   3.974  0.0855 -0.1599 -0.6822
 2415TIP3    H228661   3.991   4.777   3.984  0.4159 -0.6670  0.7745
 2416TIP3   OH228662   4.926   1.101   3.859 -0.3117 -0.4258 -0.4148
 2416TIP3    H128663   4.925   1.133   3.949  0.7035 -0.3034 -0.4330
 2416TIP3    H228664   4.834   1.092   3.834 -0.6172 -2.3415  1.2975
 2417TIP3   OH228665   6.065   0.735   4.533 -0.2004  0.2724  0.4266
 2417TIP3    H128666   6.083   0.815   4.483 -1.8548  0.9629  0.8673
 2417TIP3    H228667   6.061   0.765   4.624  0.7606 -0.6094  0.7677
 2418TIP3   OH228668   0.172   3.799   2.484 -0.6030  0.3783  0.6500
 2418TIP3    H128669   0.111   3.862   2.523 -1.7532 -0.4097  0.1713
 2418TIP3    H228670   0.257   3.819   2.523 -1.3220  1.0043  1.9004
 2419TIP3   OH228671   3.802   6.178   2.868 -0.2240 -0.4214  0.3107
 2419TIP3    H128672   3.836   6.127   2.793  0.3580 -1.1997  1.0890
 2419TIP3    H228673   3.870   6.168   2.935 -0.4699  0.7695  0.7378
 2420TIP3   OH228674   4.718   5.616   1.744 -0.1374 -0.1438  0.8198
 2420TIP3    H128675   4.787   5.617   1.810 -0.4459 -0.7139  1.1514
 2420TIP3    H228676   4.649   5.561   1.781 -1.2929  1.3956  1.0081
 2421TIP3   OH228677   6.135   2.882  11.170  0.2992 -0.5385  0.1864
 2421TIP3    H128678   6.121   2.840  11.085 -0.9479  0.6353 -0.2007
 2421TIP3    H228679   6.106   2.972  11.157 -0.4294 -0.4983  2.0255
 2422TIP3   OH228680   5.359   0.335   1.197  0.2072 -0.1651  0.1447
 2422TIP3    H128681   5.388   0.247   1.173 -0.8840 -1.2374  2.5827
 2422TIP3    H228682   5.428   0.393   1.164  0.9005 -1.9045 -1.5637
 2423TIP3   OH228683   3.197   1.234   0.774 -0.5050 -0.4015  0.2288
 2423TIP3    H128684   3.137   1.226   0.700 -2.3418 -0.4432  1.7044
 2423TIP3    H228685   3.252   1.156   0.769 -0.7245 -0.4853 -0.9979
 2424TIP3   OH228686   5.007   5.269   4.305 -0.2189  0.1386  0.2563
 2424TIP3    H128687   5.033   5.303   4.220 -1.1840 -0.4413 -0.2904
 2424TIP3    H228688   5.088   5.262   4.354  0.4403 -0.1560 -0.8553
 2425TIP3   OH228689   1.185   1.733  12.555  0.2091  0.1926  0.3261
 2425TIP3    H128690   1.091   1.724  12.540  0.1355  1.5504 -0.0776
 2425TIP3    H228691   1.192   1.769  12.643  0.3318  0.5401  0.1737
 2426TIP3   OH228692   0.245   3.446   0.888 -0.0985 -0.6450 -0.2284
 2426TIP3    H128693   0.276   3.527   0.847  0.8754 -1.0905 -0.3910
 2426TIP3    H228694   0.274   3.377   0.829  0.3025 -1.2115  0.6180
 2427TIP3   OH228695   0.833   5.185   3.768 -0.1206  0.7633  0.1417
 2427TIP3    H128696   0.898   5.129   3.811 -0.2223  0.6200  0.1120
 2427TIP3    H228697   0.832   5.155   3.677 -1.3874 -0.3354  0.4936
 2428TIP3   OH228698   3.074   6.189  12.570 -0.4382 -0.0018 -0.9563
 2428TIP3    H128699   3.029   6.217  12.490  0.8802  0.5529 -1.5117
 2428TIP3    H228700   3.005   6.151  12.624 -1.6377  1.1545 -1.6553
 2429TIP3   OH228701   1.459   3.820   0.605 -0.2639  0.3032 -0.6140
 2429TIP3    H128702   1.480   3.892   0.545 -0.9403 -0.3514 -1.6676
 2429TIP3    H228703   1.537   3.810   0.659  0.0575  1.4430 -0.8511
 2430TIP3   OH228704   2.335   0.312  11.473  0.1541 -0.4021 -0.4514
 2430TIP3    H128705   2.329   0.252  11.398 -2.4784 -0.0149 -0.6251
 2430TIP3    H228706   2.279   0.385  11.448 -0.3382 -0.0267  1.6872
 2431TIP3   OH228707   6.611   5.142  14.682 -0.6508  0.1347  0.2015
 2431TIP3    H128708   6.597   5.111  14.772  1.0578 -0.9735  0.1207
 2431TIP3    H228709   6.581   5.070  14.627 -1.4996  0.7298 -0.1076
 2432TIP3   OH228710   5.493   4.211  17.209  0.5515  0.1454  0.3010
 2432TIP3    H128711   5.429   4.198  17.279  0.1217  0.6088 -0.0025
 2432TIP3    H228712   5.521   4.302  17.219  0.0500  0.3907 -0.4914
 2433TIP3   OH228713   0.878   2.640   1.566  0.1704  0.1121 -0.0869
 2433TIP3    H128714   0.901   2.724   1.605  0.1399 -1.2585  3.0908
 2433TIP3    H228715   0.803   2.610   1.617  0.4300 -2.0073 -0.9136
 2434TIP3   OH228716   5.684   3.494   1.017  0.0651  0.5289 -0.0808
 2434TIP3    H128717   5.630   3.557   0.969  0.0054  0.4260 -0.1461
 2434TIP3    H228718   5.628   3.465   1.089 -0.6856 -1.1139 -1.3188
 2435TIP3   OH228719   6.450   6.498  14.135 -0.2268 -0.5236  0.2834
 2435TIP3    H128720   6.514   6.432  14.162 -0.4031 -0.5115  0.7236
 2435TIP3    H228721   6.413   6.463  14.054 -0.4778 -1.0644  0.6290
 2436TIP3   OH228722   2.930   3.205   2.061  0.4018  0.4053 -0.1071
 2436TIP3    H128723   2.986   3.138   2.100  0.5885  1.2513  1.1339
 2436TIP3    H228724   2.970   3.288   2.089 -0.3426  1.0234 -0.8510
 2437TIP3   OH228725   1.645   5.290   1.953  0.0718  0.0602 -0.3894
 2437TIP3    H128726   1.710   5.240   2.003  0.3872  0.2634 -0.5917
 2437TIP3    H228727   1.658   5.381   1.981 -1.9293 -0.2132  1.5646
 2438TIP3   OH228728   2.027   2.563  11.940 -0.2244  0.2038 -0.1400
 2438TIP3    H128729   2.023   2.657  11.957  3.1323  1.0788 -3.6650
 2438TIP3    H228730   2.104   2.533  11.988 -0.2204 -0.4349 -0.5427
 2439TIP3   OH228731   3.852   3.233   3.320  0.4963  0.6795 -0.0742
 2439TIP3    H128732   3.904   3.179   3.261  1.5660  2.2317 -0.5608
 2439TIP3    H228733   3.771   3.250   3.272  0.4655  0.1682 -0.2128
 2440TIP3   OH228734   0.474   5.115  11.945 -0.3719  0.5620  0.4423
 2440TIP3    H128735   0.400   5.054  11.941 -0.4382  0.5716  1.4799
 2440TIP3    H228736   0.434   5.201  11.931 -0.0321  0.2345 -2.9859
 2441TIP3   OH228737   6.351   4.234  13.969  0.7286  0.3364 -0.1857
 2441TIP3    H128738   6.347   4.224  13.874  1.4075 -0.0984 -0.1750
 2441TIP3    H228739   6.296   4.164  14.003 -1.8463  2.2134 -0.2976
 2442TIP3   OH228740   5.226   3.035   2.877  0.1998 -0.1612 -0.7073
 2442TIP3    H128741   5.320   3.052   2.881  0.0943  0.3340 -0.3465
 2442TIP3    H228742   5.192   3.102   2.818 -0.0923  0.3849  0.0730
 2443TIP3   OH228743   0.030   4.213   2.362 -0.5959 -0.1650 -0.1655
 2443TIP3    H128744  -0.057   4.227   2.325  0.5591  2.1127 -2.1649
 2443TIP3    H228745   0.045   4.290   2.417  0.3293 -0.3573 -0.1460
 2444TIP3   OH228746   5.932   6.537   0.221  0.3396  0.2572 -0.7064
 2444TIP3    H128747   5.903   6.573   0.137  0.9759  0.0559 -1.0118
 2444TIP3    H228748   6.027   6.535   0.215  0.5421  2.5261  0.9381
 2445TIP3   OH228749   0.267   5.844   4.283 -0.1391 -0.3595 -1.0179
 2445TIP3    H128750   0.326   5.790   4.230 -0.4286 -0.7771 -0.9215
 2445TIP3    H228751   0.186   5.793   4.287  0.0476 -0.5597  0.2623
 2446TIP3   OH228752   4.960   3.523   5.943 -0.0654  0.1674 -0.1593
 2446TIP3    H128753   4.909   3.570   6.010  0.7786  0.7055  0.1140
 2446TIP3    H228754   5.040   3.496   5.989 -0.8073 -2.1270 -0.1305
 2447TIP3   OH228755   6.143   2.893  12.544 -0.5750  0.0742  0.3477
 2447TIP3    H128756   6.225   2.848  12.565 -0.8182 -0.8419 -0.6077
 2447TIP3    H228757   6.084   2.871  12.616  0.1366  1.0839  1.2583
 2448TIP3   OH228758   1.441   0.567   4.244  0.2059 -0.3069 -0.3865
 2448TIP3    H128759   1.536   0.573   4.256  0.3924 -2.4032 -0.7615
 2448TIP3    H228760   1.430   0.541   4.153 -0.7566  0.2005 -0.4244
 2449TIP3   OH228761   5.155   0.079  16.032  0.7545  0.4429  0.3566
 2449TIP3    H128762   5.112   0.114  16.110 -0.0958 -1.2282  0.6670
 2449TIP3    H228763   5.200  -0.000  16.063 -1.4620 -1.5163 -1.2417
 2450TIP3   OH228764   2.342   2.643  16.454  0.0417  0.3254  0.2948
 2450TIP3    H128765   2.278   2.600  16.397  1.5281 -0.9386 -0.4589
 2450TIP3    H228766   2.356   2.729  16.414  0.4022 -0.2088 -0.7417
 2451TIP3   OH228767   0.506   6.307   4.902  0.4175 -0.3244 -0.4026
 2451TIP3    H128768   0.559   6.340   4.829 -0.8532  2.1936 -0.2832
 2451TIP3    H228769   0.421   6.287   4.862 -0.0456  0.3497  0.2119
 2452TIP3   OH228770   2.732   5.641   4.560  0.3076  0.1321  0.0555
 2452TIP3    H128771   2.802   5.707   4.557 -0.2632  0.7864  0.8190
 2452TIP3    H228772   2.684   5.661   4.641  0.1543 -1.2543  0.3136
 2453TIP3   OH228773   2.528   1.644   4.834 -0.0423 -0.3090  0.4342
 2453TIP3    H128774   2.487   1.644   4.920 -1.0390 -2.3525  0.0146
 2453TIP3    H228775   2.463   1.600   4.778  1.6347 -1.2307 -0.8074
 2454TIP3   OH228776   6.456   0.765  11.752 -0.1338  0.3126  0.8009
 2454TIP3    H128777   6.385   0.726  11.702  2.0401 -1.4481 -0.9884
 2454TIP3    H228778   6.479   0.698  11.817  1.3085  0.0032 -0.0205
 2455TIP3   OH228779   2.103   1.130  15.321  0.4029 -0.2541 -0.1132
 2455TIP3    H128780   2.067   1.111  15.234 -3.0757  1.8647  0.7679
 2455TIP3    H228781   2.083   1.052  15.373  1.0281 -0.8532 -0.7625
 2456TIP3   OH228782   1.260   3.889  12.272  0.0495  0.6108  0.3916
 2456TIP3    H128783   1.323   3.955  12.301 -0.0511  0.6766  0.4653
 2456TIP3    H228784   1.209   3.933  12.204  1.5344 -0.1597 -1.2646
 2457TIP3   OH228785   0.991   2.008   1.210 -0.3595 -0.1036 -0.3342
 2457TIP3    H128786   1.024   1.924   1.178  0.6127 -0.1791  0.8033
 2457TIP3    H228787   0.904   2.017   1.172  0.0511 -1.0224 -1.4993
 2458TIP3   OH228788   2.718   3.264  16.620  0.5367 -0.3377 -0.3576
 2458TIP3    H128789   2.719   3.356  16.593  0.6228 -0.7331 -1.7491
 2458TIP3    H228790   2.783   3.259  16.690  0.0543  0.7904  0.1924
 2459TIP3   OH228791   0.643   0.679  11.990  0.3695  0.0886  0.4376
 2459TIP3    H128792   0.733   0.659  11.964 -0.0629 -2.0262  0.4419
 2459TIP3    H228793   0.648   0.698  12.084  1.1598  2.5460 -0.0634
 2460TIP3   OH228794   4.665   2.033  16.086 -0.5674 -0.0110 -0.2079
 2460TIP3    H128795   4.734   1.997  16.031 -0.5938  1.6424 -1.3735
 2460TIP3    H228796   4.708   2.052  16.169 -0.0850 -0.8250 -0.2685
 2461TIP3   OH228797   2.979   2.484   0.173  0.0384 -0.0622 -0.0624
 2461TIP3    H128798   2.979   2.506   0.266 -2.0026  0.1333 -0.0813
 2461TIP3    H228799   3.049   2.538   0.136  1.7231 -1.1095  1.5555
 2462TIP3   OH228800   2.008   3.366   1.679 -0.0612  0.2365  0.3631
 2462TIP3    H128801   2.036   3.278   1.704  0.9852  0.7887  1.1594
 2462TIP3    H228802   2.001   3.414   1.762 -2.2267  0.4544  0.0865
 2463TIP3   OH228803   0.877   1.135   4.803  0.0788 -0.6220  0.1004
 2463TIP3    H128804   0.960   1.143   4.755  1.1043  0.4252  1.9978
 2463TIP3    H228805   0.833   1.061   4.761  1.9644 -1.1899 -0.9734
 2464TIP3   OH228806   1.173   6.318  13.006 -0.2984  0.3415 -0.0120
 2464TIP3    H128807   1.166   6.374  12.930 -1.4974  0.4274  0.1607
 2464TIP3    H228808   1.159   6.229  12.972  1.1243  0.1720 -0.2080
 2465TIP3   OH228809   2.591   1.481  15.683  0.6449  0.0359 -0.2638
 2465TIP3    H128810   2.644   1.473  15.762  0.0707 -1.2620 -0.0037
 2465TIP3    H228811   2.525   1.412  15.690  0.5573 -0.0697 -1.8593
 2466TIP3   OH228812   2.757   4.436  15.661 -0.4933  0.3369  0.6367
 2466TIP3    H128813   2.784   4.439  15.753 -0.3422  5.0304  0.5856
 2466TIP3    H228814   2.833   4.400  15.615  0.0465 -0.4831  2.1394
 2467TIP3   OH228815   5.233   3.282  13.040 -0.2527  0.1239  0.2545
 2467TIP3    H128816   5.277   3.202  13.011 -0.1552  0.1766  0.2574
 2467TIP3    H228817   5.174   3.253  13.109  0.9260  0.2875  1.3541
 2468TIP3   OH228818   5.011   5.112  12.211  0.6414 -0.0299  0.1004
 2468TIP3    H128819   4.957   5.151  12.280  1.3053 -1.2146  1.3112
 2468TIP3    H228820   4.948   5.075  12.149  0.0507 -0.2429  0.8265
 2469TIP3   OH228821   1.926   6.251  16.781 -0.1275 -0.2664  0.3668
 2469TIP3    H128822   1.984   6.176  16.778 -0.6140 -0.7655  2.3543
 2469TIP3    H228823   1.983   6.325  16.802  0.0115 -0.4959  0.7975
 2470TIP3   OH228824   1.473   1.882   1.059  0.1507  0.4161  0.4290
 2470TIP3    H128825   1.520   1.929   1.127 -1.3352  0.2874  1.5704
 2470TIP3    H228826   1.388   1.925   1.055 -0.7351 -1.2725  0.5237
 2471TIP3   OH228827   4.984   4.234   1.845 -0.3157  0.0448  0.0926
 2471TIP3    H128828   5.075   4.209   1.860 -0.6838 -0.6069  1.3441
 2471TIP3    H228829   4.958   4.185   1.767 -0.5271 -2.2675  1.5561
 2472TIP3   OH228830   5.609   1.207   3.315  0.0781 -0.5343 -0.6863
 2472TIP3    H128831   5.535   1.151   3.290 -0.6975  0.2909 -0.2380
 2472TIP3    H228832   5.679   1.145   3.336 -0.1182 -1.3139 -2.1875
 2473TIP3   OH228833   6.013   6.111   4.905  0.6818 -0.0318  0.4203
 2473TIP3    H128834   5.986   6.145   4.820 -1.5139 -0.3275  0.9759
 2473TIP3    H228835   6.016   6.016   4.892  2.0035  0.0212  0.2307
 2474TIP3   OH228836   2.831   2.666   5.724 -0.5281 -0.1065  0.2182
 2474TIP3    H128837   2.850   2.577   5.755  3.1169  0.3317 -0.5137
 2474TIP3    H228838   2.855   2.722   5.797 -2.8353  0.3517  0.6830
 2475TIP3   OH228839   1.273   6.434  15.945  0.1338  0.2053 -0.7547
 2475TIP3    H128840   1.333   6.489  15.895  2.6651 -1.0194  0.7921
 2475TIP3    H228841   1.202   6.414  15.885  1.4444  1.4411 -2.7636
 2476TIP3   OH228842   5.977   3.395  16.867 -0.1525 -0.2573 -0.0545
 2476TIP3    H128843   6.071   3.396  16.885 -0.3553 -0.8925  1.1008
 2476TIP3    H228844   5.951   3.303  16.877 -0.8019 -0.1719 -0.8913
 2477TIP3   OH228845   1.686   6.485  12.766 -0.2926 -0.0244  0.0852
 2477TIP3    H128846   1.767   6.515  12.808 -0.1630 -0.9207  0.4884
 2477TIP3    H228847   1.631   6.456  12.838 -1.5934  1.9998 -0.0525
 2478TIP3   OH228848   1.269   0.831   5.581  0.2715 -0.0776  0.2236
 2478TIP3    H128849   1.227   0.745   5.591 -0.2264  0.1729  0.2939
 2478TIP3    H228850   1.362   0.811   5.579  0.1248 -0.7517 -0.9324
 2479TIP3   OH228851   3.324   6.102  16.927  0.0043 -0.0918 -0.6729
 2479TIP3    H128852   3.344   6.009  16.941  0.6136  0.1260 -0.0753
 2479TIP3    H228853   3.337   6.142  17.013  1.8183  0.9187 -1.3977
 2480TIP3   OH228854   2.990   3.069  13.808 -0.6465  0.0437 -0.3216
 2480TIP3    H128855   2.919   3.069  13.873 -1.7810 -1.4164 -1.5018
 2480TIP3    H228856   3.057   3.013  13.846 -0.4857  0.7494  0.4394
 2481TIP3   OH228857   6.185   2.587  10.141 -0.4555  0.1178  0.0655
 2481TIP3    H128858   6.189   2.540  10.224 -1.3975 -2.3929 -1.2546
 2481TIP3    H228859   6.276   2.607  10.119 -0.2977  2.3651  2.5028
 2482TIP3   OH228860   3.254   0.964  13.427 -0.3768 -0.8219  0.3381
 2482TIP3    H128861   3.307   0.892  13.391 -0.6549 -1.1043  0.4863
 2482TIP3    H228862   3.315   1.037  13.434  0.0359 -1.1865  0.6446
 2483TIP3   OH228863   2.074   1.073   3.838  0.3485 -0.0122  0.0023
 2483TIP3    H128864   1.985   1.055   3.809  0.2614 -0.0220  0.2727
 2483TIP3    H228865   2.087   1.166   3.820 -0.1876  0.2988  1.1985
 2484TIP3   OH228866   0.158   3.791  15.162 -0.3593  0.1228  0.0614
 2484TIP3    H128867   0.076   3.816  15.204 -0.3092 -0.3039  0.4189
 2484TIP3    H228868   0.223   3.794  15.232  0.1147  1.3884 -0.4223
 2485TIP3   OH228869   3.411   3.286  13.424 -0.0750 -0.3867 -0.8352
 2485TIP3    H128870   3.327   3.294  13.469  1.1116 -0.9652  1.5368
 2485TIP3    H228871   3.444   3.375  13.417 -0.2825 -0.2916 -0.6032
 2486TIP3   OH228872   0.497   1.119   2.091 -0.2907  0.1764  0.2162
 2486TIP3    H128873   0.564   1.187   2.087 -0.2063  0.0315 -0.8485
 2486TIP3    H228874   0.534   1.046   2.043 -1.0227 -0.0773  0.0323
 2487TIP3   OH228875   4.262   6.168  10.610 -0.0726 -0.4648  0.4618
 2487TIP3    H128876   4.301   6.133  10.530 -1.0397  0.1854 -0.3143
 2487TIP3    H228877   4.292   6.109  10.680  1.1589 -0.7589 -0.3074
 2488TIP3   OH228878   2.140   4.606   6.293  0.6024  0.2185 -0.1334
 2488TIP3    H128879   2.187   4.523   6.282  1.3570  0.3466  2.0393
 2488TIP3    H228880   2.194   4.670   6.248 -0.1425 -0.4839 -2.1021
 2489TIP3   OH228881   2.109   0.926  14.519 -0.4193  0.0475  0.6315
 2489TIP3    H128882   2.175   0.896  14.456  2.0403  1.8348  2.2784
 2489TIP3    H228883   2.110   0.860  14.588 -0.2383  0.1517  0.7295
 2490TIP3   OH228884   5.585   6.646   4.391 -0.6949  0.3197 -0.4132
 2490TIP3    H128885   5.499   6.684   4.402 -0.5931  1.4285 -2.9506
 2490TIP3    H228886   5.600   6.647   4.296  1.7836 -0.5487 -0.0930
 2491TIP3   OH228887   0.882   5.596  11.481  0.3589 -0.3133 -1.0722
 2491TIP3    H128888   0.851   5.530  11.543  1.2332 -0.7475 -1.1024
 2491TIP3    H228889   0.813   5.600  11.415  0.3306 -1.2353 -1.1055
 2492TIP3   OH228890   5.027   2.976  15.452 -0.1966 -0.3321 -0.0396
 2492TIP3    H128891   5.042   2.883  15.435  0.7123 -0.3213  0.6622
 2492TIP3    H228892   4.954   2.978  15.514  0.3015 -0.6185  0.5613
 2493TIP3   OH228893   2.000   1.539  10.863 -0.0922 -0.0266 -0.2401
 2493TIP3    H128894   1.977   1.608  10.925  0.5158 -0.3350  0.3453
 2493TIP3    H228895   1.998   1.582  10.777  1.7886  1.1130  0.2568
 2494TIP3   OH228896   0.531   5.778  15.588 -0.3467 -0.7598 -0.3176
 2494TIP3    H128897   0.457   5.793  15.646  0.8515 -0.5156  1.1696
 2494TIP3    H228898   0.566   5.692  15.613 -0.8329 -1.4177 -1.8120
 2495TIP3   OH228899   5.817   2.499  13.093 -0.5248  0.0738  0.3425
 2495TIP3    H128900   5.881   2.428  13.089  0.1992  0.5709  2.5202
 2495TIP3    H228901   5.870   2.578  13.108 -1.5341  0.6929  0.7074
 2496TIP3   OH228902   6.712   2.456   5.371  0.4050 -0.0242  0.0557
 2496TIP3    H128903   6.779   2.493   5.429  1.1157  0.3916 -1.0153
 2496TIP3    H228904   6.752   2.458   5.284 -0.1626 -1.8485 -0.2584
 2497TIP3   OH228905   0.271   3.231  12.341 -0.1678 -0.2005 -0.6688
 2497TIP3    H128906   0.286   3.321  12.312  0.8035  0.6175  2.2345
 2497TIP3    H228907   0.192   3.236  12.395  1.8846 -0.3748  2.4612
 2498TIP3   OH228908   1.029   2.531   4.979 -0.6689 -0.0273 -0.6954
 2498TIP3    H128909   0.985   2.615   4.988  2.2521  1.3606  1.4289
 2498TIP3    H228910   1.098   2.546   4.914  0.4617 -0.4491  0.3673
 2499TIP3   OH228911   0.178   2.919  13.183  0.2358 -0.4650  0.2081
 2499TIP3    H128912   0.133   2.844  13.220  1.9781 -0.8949  1.5090
 2499TIP3    H228913   0.255   2.932  13.239  1.5927  0.4011 -1.7661
 2500TIP3   OH228914   6.400   4.790   1.404 -0.1966  0.1820  0.1924
 2500TIP3    H128915   6.481   4.822   1.444 -0.3257  0.4225  0.2607
 2500TIP3    H228916   6.424   4.768   1.314  0.0946 -0.3441  0.3895
 2501TIP3   OH228917   4.226   2.504  10.527  0.2313  0.1923 -0.0709
 2501TIP3    H128918   4.319   2.486  10.543  0.3446 -0.1620 -1.0714
 2501TIP3    H228919   4.179   2.443  10.584  0.6197 -0.6756 -0.6696
 2502TIP3   OH228920   3.900   6.368   1.261  0.0062 -0.2493 -0.1608
 2502TIP3    H128921   3.822   6.313   1.250  0.0306  0.1472 -2.6393
 2502TIP3    H228922   3.871   6.442   1.313 -1.5248  0.3347 -1.8021
 2503TIP3   OH228923   2.783   2.827  15.558 -0.5533  0.6432 -0.1313
 2503TIP3    H128924   2.712   2.868  15.608 -0.9995 -0.8985  0.5228
 2503TIP3    H228925   2.796   2.742  15.600  0.5226  0.2080 -1.3212
 2504TIP3   OH228926   2.302   5.875   3.055 -0.1003 -0.2675  0.5830
 2504TIP3    H128927   2.230   5.926   3.018  0.3710  0.1521  0.2334
 2504TIP3    H228928   2.303   5.794   3.004 -1.4209 -1.0325  1.7229
 2505TIP3   OH228929   1.684   0.704   4.524 -0.5005  0.1944  0.2659
 2505TIP3    H128930   1.629   0.657   4.587 -3.1136  2.4737 -0.1919
 2505TIP3    H228931   1.725   0.773   4.576 -0.7445  0.5831 -0.0604
 2506TIP3   OH228932   3.651   1.969  13.251  0.1161  1.0515  0.2022
 2506TIP3    H128933   3.741   1.980  13.282 -0.4702 -0.1103  2.4426
 2506TIP3    H228934   3.659   1.918  13.171  1.3954 -0.0304  0.9999
 2507TIP3   OH228935   3.879   4.671   1.991  0.2803 -0.1414  0.0584
 2507TIP3    H128936   3.838   4.600   1.941 -0.8918 -0.1480  1.0082
 2507TIP3    H228937   3.811   4.738   1.996  0.9207  0.4848  0.3390
 2508TIP3   OH228938   5.471   5.262  12.086  0.4406 -0.3638 -0.2673
 2508TIP3    H128939   5.452   5.193  12.022  0.6826 -0.1523 -0.5652
 2508TIP3    H228940   5.388   5.277  12.130  0.3212 -0.6532 -0.3938
 2509TIP3   OH228941   3.194   2.871   4.952 -0.4961  0.0455 -0.1081
 2509TIP3    H128942   3.254   2.852   4.879  0.1904 -2.6654  1.0666
 2509TIP3    H228943   3.246   2.924   5.012  0.5052 -1.5700  0.5029
 2510TIP3   OH228944   6.433   0.619  15.801  0.0380  1.1401  0.1155
 2510TIP3    H128945   6.450   0.712  15.816  1.9216  0.8014  0.2983
 2510TIP3    H228946   6.478   0.574  15.872  2.3961 -0.0746 -2.0425
 2511TIP3   OH228947   3.002   6.339   6.174  0.4844 -0.2077 -0.8619
 2511TIP3    H128948   2.920   6.356   6.130 -0.5195 -3.7174 -0.5400
 2511TIP3    H228949   3.064   6.317   6.104  0.1546 -1.1035 -0.8828
 2512TIP3   OH228950   1.460   0.913   0.806 -0.8375  0.2008 -0.4462
 2512TIP3    H128951   1.532   0.930   0.745 -1.1278 -0.4221 -0.9661
 2512TIP3    H228952   1.504   0.896   0.890 -0.5346  3.5918  0.1641
 2513TIP3   OH228953   4.833   6.675   2.198 -0.3807 -0.2048 -0.0401
 2513TIP3    H128954   4.882   6.600   2.165  1.0179  0.7021 -0.0299
 2513TIP3    H228955   4.835   6.739   2.127 -0.3422  0.3856  0.4932
 2514TIP3   OH228956   1.942   4.833   6.195  0.8921  0.0720  0.8094
 2514TIP3    H128957   1.894   4.866   6.271 -0.8791 -0.0180 -0.2254
 2514TIP3    H228958   2.034   4.846   6.217  0.3649  1.5176  2.2987
 2515TIP3   OH228959   6.331   4.800  11.275 -0.1150 -0.3737 -0.0290
 2515TIP3    H128960   6.345   4.863  11.205  1.0086 -1.7786 -1.0899
 2515TIP3    H228961   6.242   4.767  11.261 -1.1860  1.8332  1.2684
 2516TIP3   OH228962   5.725   5.350   0.378  0.2209  0.7743 -0.0934
 2516TIP3    H128963   5.690   5.263   0.397 -0.4649  1.1520  0.3859
 2516TIP3    H228964   5.816   5.347   0.409 -0.1867  0.6442  1.1185
 2517TIP3   OH228965   3.839   3.542  16.943 -0.5354  0.1427  0.1001
 2517TIP3    H128966   3.904   3.500  16.887  0.2150  1.6134 -0.1670
 2517TIP3    H228967   3.814   3.621  16.896 -0.8201  0.7506  1.2412
 2518TIP3   OH228968   4.787   0.873   1.134 -0.4430  0.2855  0.1945
 2518TIP3    H128969   4.839   0.934   1.082  0.0933  0.0422  0.4470
 2518TIP3    H228970   4.840   0.794   1.139 -0.1498  0.5609  1.7555
 2519TIP3   OH228971   1.650   5.599   1.372  0.6189  0.3163  0.7274
 2519TIP3    H128972   1.696   5.524   1.335 -0.8073 -0.0169 -0.4023
 2519TIP3    H228973   1.664   5.670   1.310  0.5773  0.5307  0.9613
 2520TIP3   OH228974   3.886   0.407  13.947 -0.0075 -0.3189 -0.2813
 2520TIP3    H128975   3.889   0.343  13.876 -1.8013  1.1638 -1.7436
 2520TIP3    H228976   3.798   0.445  13.941  0.6737  1.5709  1.1795
 2521TIP3   OH228977   6.001   5.182  17.135  0.0682 -0.2532  0.1414
 2521TIP3    H128978   5.907   5.198  17.135 -0.3010 -2.2052  0.9866
 2521TIP3    H228979   6.036   5.246  17.197 -0.4846  1.5041 -1.3364
 2522TIP3   OH228980   2.089   0.198  16.980  0.2819  0.3276  0.3555
 2522TIP3    H128981   2.173   0.170  17.015  0.1217 -0.0436  0.4468
 2522TIP3    H228982   2.110   0.266  16.916  0.7636 -0.9244 -0.8309
 2523TIP3   OH228983   2.576   1.986   4.520 -0.3715 -0.6063 -0.4425
 2523TIP3    H128984   2.544   1.951   4.604 -1.1854  0.6438 -0.2196
 2523TIP3    H228985   2.500   1.981   4.462  0.1379 -1.2842 -1.0624
 2524TIP3   OH228986   4.815   4.141  12.359 -0.1969  0.6268  0.4410
 2524TIP3    H128987   4.836   4.150  12.452  1.6336 -0.0720  0.1217
 2524TIP3    H228988   4.788   4.049  12.349  1.5865  0.1423 -0.0654
 2525TIP3   OH228989   4.691   1.635   2.106  0.0477 -0.4627 -0.0581
 2525TIP3    H128990   4.742   1.695   2.051 -1.7709  0.9541 -0.2340
 2525TIP3    H228991   4.756   1.576   2.143  1.7077  0.7104 -1.0294
 2526TIP3   OH228992   5.903   0.504   3.587  0.0431  0.5324  0.3006
 2526TIP3    H128993   5.914   0.533   3.677 -0.3206 -0.7947  0.7797
 2526TIP3    H228994   5.961   0.560   3.536  2.2752 -0.4903  1.6861
 2527TIP3   OH228995   5.140   2.846   1.212  0.3729 -0.2669  0.2801
 2527TIP3    H128996   5.213   2.886   1.259  0.9075 -2.0350  0.9889
 2527TIP3    H228997   5.166   2.754   1.200  0.1228  0.0501 -3.2223
 2528TIP3   OH228998   1.984   5.072   0.320 -0.2022  0.3044  0.1200
 2528TIP3    H128999   2.073   5.109   0.314 -0.2726  0.7338  1.3638
 2528TIP3    H229000   1.996   4.989   0.365 -0.6055  1.1834  1.9270
 2529TIP3   OH229001   5.922   0.686  12.135 -0.0000  0.0586 -0.4442
 2529TIP3    H129002   5.894   0.773  12.110  0.1909 -0.6632 -3.2872
 2529TIP3    H229003   6.014   0.696  12.160 -0.1715  0.7793 -0.0933
 2530TIP3   OH229004   1.816   4.797  15.831  0.3701  0.5822 -0.3868
 2530TIP3    H129005   1.814   4.710  15.792 -1.4409  1.0491 -1.3726
 2530TIP3    H229006   1.849   4.854  15.762  0.1096  0.9242 -0.2307
 2531TIP3   OH229007   6.074   0.110   1.939  0.4115  0.6502  0.0247
 2531TIP3    H129008   6.157   0.106   1.986  0.5528  0.9877 -0.1944
 2531TIP3    H229009   6.098   0.115   1.846  0.1102 -1.4794 -0.1969
 2532TIP3   OH229010   4.665   3.658   3.267 -0.8011  0.0289 -0.7016
 2532TIP3    H129011   4.603   3.613   3.326  0.1947 -1.9765 -1.1302
 2532TIP3    H229012   4.695   3.589   3.208 -0.2781  1.6093 -2.2883
 2533TIP3   OH229013   0.951   3.747  15.441  0.0171  0.7769  0.7137
 2533TIP3    H129014   1.039   3.741  15.480  0.3400  0.7765 -0.0086
 2533TIP3    H229015   0.942   3.668  15.388 -0.2943  0.9343  0.5319
 2534TIP3   OH229016   4.545   0.622  12.232  0.6805 -0.2122  0.9067
 2534TIP3    H129017   4.531   0.612  12.326 -1.4530  0.1853  0.6625
 2534TIP3    H229018   4.570   0.713  12.220 -2.5235  0.6830  0.7469
 2535TIP3   OH229019   1.131   0.850  10.932  0.3668 -0.2199  0.2062
 2535TIP3    H129020   1.172   0.892  10.856  0.6786 -0.3105  0.3238
 2535TIP3    H229021   1.053   0.806  10.896 -0.0085  0.5276  0.0928
 2536TIP3   OH229022   5.384   1.013   5.253 -0.1148 -0.5543  0.4887
 2536TIP3    H129023   5.292   1.034   5.270 -0.1100  0.7592 -1.0188
 2536TIP3    H229024   5.432   1.061   5.320 -0.4637 -0.4952  0.7008
 2537TIP3   OH229025   0.828   0.592   0.843  0.1318 -0.0815  0.2033
 2537TIP3    H129026   0.822   0.668   0.785  2.6961 -0.4069 -0.5700
 2537TIP3    H229027   0.752   0.538   0.820  0.6958  0.1416 -2.3997
 2538TIP3   OH229028   1.752   5.107  13.109 -0.4330  0.5504  0.6393
 2538TIP3    H129029   1.698   5.129  13.185 -0.3333  1.6543  0.3967
 2538TIP3    H229030   1.693   5.114  13.034 -0.1480  0.9824  0.4531
 2539TIP3   OH229031   1.657   5.262  10.868  0.6910 -0.1563  0.4034
 2539TIP3    H129032   1.609   5.322  10.925  3.2496  0.8933  1.4919
 2539TIP3    H229033   1.648   5.177  10.911  0.5467  0.1800  1.0437
 2540TIP3   OH229034   5.162   6.563  14.336 -0.3649  0.2509  0.0236
 2540TIP3    H129035   5.124   6.545  14.422  0.1832 -2.0222 -0.1772
 2540TIP3    H229036   5.097   6.533  14.273 -0.2830  0.8473 -0.3557
 2541TIP3   OH229037   1.091   5.773   2.383  0.1005 -0.0845 -0.0392
 2541TIP3    H129038   1.186   5.770   2.373  0.5237  3.7636  2.1316
 2541TIP3    H229039   1.073   5.728   2.466  0.1042  0.0018  0.0081
 2542TIP3   OH229040   6.593   2.521   1.972  0.1058  0.2226 -0.1593
 2542TIP3    H129041   6.587   2.493   2.064 -1.3432  0.6525 -0.1067
 2542TIP3    H229042   6.595   2.617   1.977 -3.2184  0.3978 -0.6698
 2543TIP3   OH229043   3.291   5.782  12.838 -0.6741  0.3175  0.1536
 2543TIP3    H129044   3.258   5.714  12.896  1.0922 -0.3772  0.3697
 2543TIP3    H229045   3.229   5.854  12.849 -0.0835  0.4380  3.3667
 2544TIP3   OH229046   4.416   3.044  12.141  0.2914 -0.1442  0.8735
 2544TIP3    H129047   4.428   2.952  12.115  1.5578  0.1272  0.4810
 2544TIP3    H229048   4.504   3.081  12.138 -0.1930  1.0341  1.2435
 2545TIP3   OH229049   0.965   6.190   4.868  0.1835  0.2764  0.0599
 2545TIP3    H129050   0.909   6.206   4.792  0.7110  0.4180 -0.2975
 2545TIP3    H229051   0.993   6.277   4.896  0.7416  0.1651 -0.1480
 2546TIP3   OH229052   2.536   6.174  12.748  0.1841  0.1769 -0.0042
 2546TIP3    H129053   2.601   6.243  12.736  0.6458 -0.3370 -0.4085
 2546TIP3    H229054   2.484   6.204  12.824 -1.7416  2.6400 -2.1768
 2547TIP3   OH229055   5.115   2.148  14.328  0.4335  0.0174 -0.1849
 2547TIP3    H129056   5.161   2.204  14.390 -0.0076 -0.1267  0.2780
 2547TIP3    H229057   5.164   2.065  14.329 -0.8091 -0.7411  1.6036
 2548TIP3   OH229058   3.503   4.983   6.040 -0.2894  0.0268 -0.4444
 2548TIP3    H129059   3.535   5.073   6.041 -0.0855 -0.0303 -1.5489
 2548TIP3    H229060   3.408   4.991   6.049 -0.1444  0.2659  1.1277
 2549TIP3   OH229061   1.245   3.131  12.600 -0.5239 -0.6085  0.0098
 2549TIP3    H129062   1.239   3.213  12.551 -0.4077 -1.7897 -2.0622
 2549TIP3    H229063   1.296   3.153  12.678 -0.1200  1.1947 -0.7430
 2550TIP3   OH229064   1.263   0.360  14.483 -0.3291 -0.1158 -0.3744
 2550TIP3    H129065   1.278   0.351  14.389 -0.4945  1.8854 -0.6150
 2550TIP3    H229066   1.200   0.432  14.490 -0.9064 -0.7576  1.2287
 2551TIP3   OH229067   5.275   5.101   4.041  0.3565 -0.1995 -0.2805
 2551TIP3    H129068   5.334   5.161   3.996 -1.0292  1.5367  0.1739
 2551TIP3    H229069   5.333   5.045   4.094  1.6949  0.3363 -1.1664
 2552TIP3   OH229070   3.103   5.652   4.223 -0.2055 -0.0815  0.5457
 2552TIP3    H129071   3.100   5.676   4.316  2.1515 -0.7941  0.8150
 2552TIP3    H229072   3.085   5.558   4.222  0.2185 -0.1594  0.3184
 2553TIP3   OH229073   0.250   0.018   2.305  0.1494 -0.1867  0.4260
 2553TIP3    H129074   0.228   0.099   2.259 -0.3718 -1.9927 -2.6329
 2553TIP3    H229075   0.343   0.005   2.287 -0.1726 -1.1622 -0.5363
 2554TIP3   OH229076   5.257   6.075  13.127 -0.3771 -0.6942  0.0639
 2554TIP3    H129077   5.199   6.034  13.063 -1.6839  0.3620  0.5306
 2554TIP3    H229078   5.239   6.028  13.209  0.0691 -0.9457  0.0156
 2555TIP3   OH229079   4.015   5.388  15.565  0.3350 -0.0800  0.1221
 2555TIP3    H129080   3.946   5.409  15.628 -0.5234  1.9066 -1.4204
 2555TIP3    H229081   3.971   5.333  15.499  0.0816  1.4777 -1.0495
 2556TIP3   OH229082   0.087   6.040  11.195 -0.2006 -0.3266 -0.8268
 2556TIP3    H129083   0.099   6.079  11.282 -1.2046 -0.1149 -0.7699
 2556TIP3    H229084   0.157   5.975  11.187  0.3726  0.2087 -0.1773
 2557TIP3   OH229085   4.054   3.419   3.059  0.2702  0.4474  0.6017
 2557TIP3    H129086   4.137   3.390   3.096  0.4525  0.0658 -0.0899
 2557TIP3    H229087   4.063   3.403   2.965 -1.4571 -1.8154  0.7687
 2558TIP3   OH229088   2.192   2.334  14.335 -0.4312  0.5567  1.0300
 2558TIP3    H129089   2.097   2.341  14.336 -0.4801  0.0589  0.6078
 2558TIP3    H229090   2.223   2.420  14.308 -0.8636  0.0816 -1.1345
 2559TIP3   OH229091   6.164   6.486  15.746 -0.0250  0.3419  0.0681
 2559TIP3    H129092   6.254   6.486  15.780 -0.2506 -1.9307  0.7269
 2559TIP3    H229093   6.111   6.515  15.820 -0.0275 -0.1748  0.2719
 2560TIP3   OH229094   2.846   2.933   0.758 -0.8969 -0.4108 -0.1275
 2560TIP3    H129095   2.794   3.001   0.716  0.9736  0.8628 -0.4732
 2560TIP3    H229096   2.893   2.890   0.686 -0.0508 -0.2921  0.3406
 2561TIP3   OH229097   3.142   3.096   2.217  0.4462 -0.2980 -0.1531
 2561TIP3    H129098   3.182   3.065   2.299  0.4831  1.6046  0.5777
 2561TIP3    H229099   3.214   3.094   2.154  1.2884  1.2920  0.6922
 2562TIP3   OH229100   2.864   2.006  12.993 -0.1627  0.7518 -0.2835
 2562TIP3    H129101   2.910   1.997  12.910 -0.9981  1.1557 -0.8019
 2562TIP3    H229102   2.831   1.919  13.012 -0.0885  0.6872 -0.4503
 2563TIP3   OH229103   3.354   2.476   4.748 -0.2435 -0.0817  0.4303
 2563TIP3    H129104   3.447   2.501   4.746 -0.2739  0.0032 -0.3613
 2563TIP3    H229105   3.312   2.541   4.803  0.0297  0.3927  0.0850
 2564TIP3   OH229106   0.040   5.295  11.299 -0.2211 -0.8436 -0.8567
 2564TIP3    H129107   0.013   5.372  11.249 -0.5027 -0.7106 -0.4970
 2564TIP3    H229108   0.106   5.253  11.244  0.5802  0.1382 -0.6667
 2565TIP3   OH229109   1.605   0.345   5.599  0.1918  0.3503  0.0465
 2565TIP3    H129110   1.519   0.306   5.578 -0.0855  2.1533 -2.4439
 2565TIP3    H229111   1.667   0.274   5.584 -0.7559 -0.6823  0.8667
 2566TIP3   OH229112   0.553   1.530  10.415 -0.3113  0.1674  0.3863
 2566TIP3    H129113   0.612   1.457  10.433  0.3436  0.3791 -0.8374
 2566TIP3    H229114   0.610   1.606  10.405 -0.9526  0.7596  1.1739
 2567TIP3   OH229115   3.930   5.984  10.434 -0.8632  0.7803 -0.3285
 2567TIP3    H129116   3.853   5.927  10.436 -1.1077  1.0418 -1.6262
 2567TIP3    H229117   3.983   5.956  10.508 -1.2910 -0.6823 -0.5691
 2568TIP3   OH229118   5.170   2.620   4.600  0.1336  0.2599  0.5464
 2568TIP3    H129119   5.096   2.638   4.542  0.3528 -0.1098  0.1516
 2568TIP3    H229120   5.188   2.527   4.589  3.4447  1.1397 -2.7190
 2569TIP3   OH229121   0.289   4.490  13.950 -0.2011  0.1740  0.1788
 2569TIP3    H129122   0.364   4.549  13.961 -1.5543  1.6601  1.9219
 2569TIP3    H229123   0.290   4.435  14.028 -1.3211  0.7231  0.6013
 2570TIP3   OH229124   1.312   0.623  13.394 -0.1723  0.3249 -0.1050
 2570TIP3    H129125   1.234   0.631  13.338 -0.3731 -0.8281  0.0039
 2570TIP3    H229126   1.323   0.529  13.407 -0.4001  0.5820  2.1689
 2571TIP3   OH229127   1.411   1.632  12.924  0.1215 -0.4455 -0.0686
 2571TIP3    H129128   1.459   1.555  12.894  1.2000 -0.1936  0.9517
 2571TIP3    H229129   1.457   1.659  13.004 -0.2567  1.2235 -0.3904
 2572TIP3   OH229130   4.082   5.806   1.529 -0.2753  0.5443 -0.1715
 2572TIP3    H129131   4.011   5.863   1.560 -1.9956 -0.0650 -2.8013
 2572TIP3    H229132   4.113   5.848   1.448  0.8268 -0.4064 -0.2564
 2573TIP3   OH229133   0.532   2.397   0.193 -0.4222  0.1294 -0.1313
 2573TIP3    H129134   0.517   2.413   0.100 -1.6736 -2.1087 -0.3560
 2573TIP3    H229135   0.459   2.439   0.237 -0.9218 -0.5387 -0.3176
 2574TIP3   OH229136   4.208   1.767  15.118  0.3629  0.0404  0.2853
 2574TIP3    H129137   4.176   1.752  15.207  0.8567 -0.0480  0.4448
 2574TIP3    H229138   4.293   1.809  15.129  1.0329 -1.1880 -0.1412
 2575TIP3   OH229139   0.184   2.806   1.644 -0.4122 -0.0769 -1.0305
 2575TIP3    H129140   0.275   2.786   1.626  0.4739 -1.7878  4.4123
 2575TIP3    H229141   0.144   2.722   1.665 -2.9724  0.8303 -1.9385
 2576TIP3   OH229142   0.142   1.232   5.314  0.0944  0.3888  0.4696
 2576TIP3    H129143   0.081   1.173   5.358 -0.0739  0.4109  0.2667
 2576TIP3    H229144   0.088   1.304   5.283 -0.3487 -1.1084 -2.5025
 2577TIP3   OH229145   0.973   6.679   0.430 -0.1593  0.0387  0.2485
 2577TIP3    H129146   0.943   6.708   0.516  1.3651  1.2123  0.4178
 2577TIP3    H229147   0.899   6.696   0.372  0.0959  2.8475  0.6542
 2578TIP3   OH229148   3.094   5.269  11.404 -0.0938 -0.5663  0.1180
 2578TIP3    H129149   3.028   5.227  11.459 -0.8715  2.9884  2.0557
 2578TIP3    H229150   3.045   5.300  11.328 -0.6115  1.4771  1.2389
 2579TIP3   OH229151   2.931   1.066   1.669  1.0731  0.0869  0.3260
 2579TIP3    H129152   2.854   1.114   1.638  0.2918 -0.0783  1.9432
 2579TIP3    H229153   2.906   0.974   1.660  1.5896  0.0188 -0.3863
 2580TIP3   OH229154   3.438   5.546  13.556  0.1072 -0.1193 -0.2766
 2580TIP3    H129155   3.480   5.520  13.474  0.4842 -2.7563  0.7031
 2580TIP3    H229156   3.351   5.506  13.552 -0.6425  1.4465 -0.2522
 2581TIP3   OH229157   5.649   4.080  16.569  0.5917 -0.0385 -0.0610
 2581TIP3    H129158   5.697   4.123  16.498 -2.1200 -1.5194 -2.9566
 2581TIP3    H229159   5.584   4.145  16.597  0.8525  0.1099  0.1955
 2582TIP3   OH229160   6.631   6.151  11.508 -0.6675 -0.0348 -0.4028
 2582TIP3    H129161   6.656   6.236  11.544 -1.1841 -0.6920  1.5673
 2582TIP3    H229162   6.603   6.100  11.584 -0.4547 -1.9419 -1.5719
 2583TIP3   OH229163   1.923   1.784   1.529 -0.1226  0.9809 -0.0501
 2583TIP3    H129164   1.844   1.789   1.583 -1.0863 -1.0647 -1.2265
 2583TIP3    H229165   1.892   1.758   1.443  1.8608 -0.1552 -0.4508
 2584TIP3   OH229166   3.120   5.682   1.797  0.4836 -0.1081 -0.8297
 2584TIP3    H129167   3.095   5.771   1.822 -1.2467 -0.8540  0.2507
 2584TIP3    H229168   3.062   5.659   1.725  2.2004  0.2864 -2.3783
 2585TIP3   OH229169   0.371   6.465  12.699 -0.1725 -0.0285  0.1321
 2585TIP3    H129170   0.296   6.406  12.696  0.2795 -0.7795  2.5589
 2585TIP3    H229171   0.446   6.408  12.715  0.3515  1.0959  1.8762
 2586TIP3   OH229172   1.903   3.377  16.530 -0.3841 -0.0101 -0.1338
 2586TIP3    H129173   1.932   3.416  16.448  0.4627 -0.4660 -0.0522
 2586TIP3    H229174   1.834   3.436  16.562  2.3601  2.6159  1.0839
 2587TIP3   OH229175   0.230   4.442   5.134  0.3334  0.7759  0.4591
 2587TIP3    H129176   0.162   4.492   5.090 -1.4534 -1.3120  0.7472
 2587TIP3    H229177   0.184   4.390   5.199  1.9891 -1.7434 -0.2644
 2588TIP3   OH229178   5.315   4.056  17.045  0.3066  0.2448 -0.0521
 2588TIP3    H129179   5.391   3.999  17.034  1.7691  2.4803 -1.9083
 2588TIP3    H229180   5.337   4.109  17.121  0.4624  0.6954 -0.4147
 2589TIP3   OH229181   6.699   1.339  12.438  0.2118  0.5257 -0.1400
 2589TIP3    H129182   6.673   1.415  12.387 -0.1491  1.1963  1.0089
 2589TIP3    H229183   6.698   1.370  12.529 -0.0391 -0.8684  0.3502
 2590TIP3   OH229184   0.797   3.699  16.230 -0.5814  0.3255  0.5736
 2590TIP3    H129185   0.834   3.612  16.215  0.2301  0.5861  1.0510
 2590TIP3    H229186   0.805   3.743  16.146 -0.6625  0.0699  0.4283
 2591TIP3   OH229187   4.788   3.101  15.222  0.3836 -0.6397  0.3921
 2591TIP3    H129188   4.790   3.013  15.260 -2.7685  0.2121  2.8463
 2591TIP3    H229189   4.856   3.149  15.269  1.6033 -1.5457 -0.4227
 2592TIP3   OH229190   6.413   6.056   5.743 -0.2078  0.5987 -0.0430
 2592TIP3    H129191   6.320   6.066   5.761 -0.1005  1.1699  0.2186
 2592TIP3    H229192   6.424   6.092   5.655 -0.3745 -0.2421 -0.4098
 2593TIP3   OH229193   3.491   2.935  12.495 -0.5047 -0.0302 -0.6104
 2593TIP3    H129194   3.464   2.873  12.563 -0.8247 -1.3094 -1.8680
 2593TIP3    H229195   3.584   2.917  12.481 -1.2116 -2.2797 -2.9753
 2594TIP3   OH229196   6.416   5.453   3.776  0.0449  0.3187  0.7604
 2594TIP3    H129197   6.399   5.544   3.752 -1.0667 -0.4801 -1.6115
 2594TIP3    H229198   6.340   5.428   3.829 -1.2528 -0.1523 -1.2590
 2595TIP3   OH229199   2.501   3.167  10.810 -0.0221  0.7787  0.2082
 2595TIP3    H129200   2.572   3.175  10.746  0.3607  2.2695  0.8086
 2595TIP3    H229201   2.483   3.073  10.814  1.7197  0.4173 -0.1562
 2596TIP3   OH229202   1.670   0.437  13.557 -0.0265 -0.4941  0.3243
 2596TIP3    H129203   1.752   0.412  13.516  0.0208  0.4468 -0.1673
 2596TIP3    H229204   1.620   0.480  13.487  0.5217  2.1614  1.5124
 2597TIP3   OH229205   3.760   5.426  16.285  0.8958 -0.7174 -0.1881
 2597TIP3    H129206   3.816   5.361  16.328  1.2725  0.1453  0.6314
 2597TIP3    H229207   3.821   5.477  16.232  0.4773 -1.5887 -1.5477
 2598TIP3   OH229208   0.045   5.333   5.840 -0.7945 -0.0695  0.5110
 2598TIP3    H129209   0.037   5.243   5.810 -0.4129 -0.0297  0.2857
 2598TIP3    H229210   0.114   5.371   5.785  0.6580 -0.2845  2.1220
 2599TIP3   OH229211   1.068   2.324  12.487 -0.2629  0.2778 -1.4630
 2599TIP3    H129212   1.088   2.235  12.514 -1.3825  0.4477 -0.0484
 2599TIP3    H229213   1.149   2.373  12.502 -0.6458  0.2075  0.9333
 2600TIP3   OH229214   5.481   1.981   3.907 -0.3414 -0.3102 -0.1785
 2600TIP3    H129215   5.452   1.959   3.996 -1.4057 -1.1442 -0.7150
 2600TIP3    H229216   5.401   2.006   3.861  0.3326  1.0476 -0.6565
 2601TIP3   OH229217   2.431   5.958  16.602 -0.1437  0.9282 -0.7166
 2601TIP3    H129218   2.349   5.984  16.645  0.8815 -1.2631  2.7321
 2601TIP3    H229219   2.500   5.986  16.663  1.4274 -1.3999 -1.3739
 2602TIP3   OH229220   3.575   0.363  11.732  0.3898 -0.1151 -0.3433
 2602TIP3    H129221   3.614   0.367  11.644  1.6534 -1.0109  0.1547
 2602TIP3    H229222   3.576   0.453  11.763  0.5571  0.1096 -0.9806
 2603TIP3   OH229223   4.909   4.993  11.124  0.2616 -0.5121  0.3766
 2603TIP3    H129224   4.908   4.897  11.121 -0.7360 -0.5016  0.2330
 2603TIP3    H229225   4.861   5.014  11.205  1.3101 -0.1514  0.9156
 2604TIP3   OH229226   6.049   4.776   1.731  0.3192  0.2217  0.6121
 2604TIP3    H129227   5.979   4.716   1.706  0.0157  0.5363  0.6976
 2604TIP3    H229228   6.007   4.838   1.791  0.0760  1.9165 -1.2694
 2605TIP3   OH229229   4.110   1.632   0.394 -0.0045  0.0097  0.1141
 2605TIP3    H129230   4.152   1.712   0.363  4.2242 -2.5655 -1.1586
 2605TIP3    H229231   4.118   1.571   0.321 -3.1209 -1.6586  1.0632
 2606TIP3   OH229232   1.325   2.651  14.568  0.5103 -0.4074 -0.7708
 2606TIP3    H129233   1.266   2.656  14.494  0.2546 -1.2125 -0.6251
 2606TIP3    H229234   1.373   2.734  14.566  0.1661 -0.2223 -1.5418
 2607TIP3   OH229235   4.310   5.088   4.853  0.2091 -0.2728  0.1237
 2607TIP3    H129236   4.340   5.036   4.779  0.0640 -1.4321  0.8633
 2607TIP3    H229237   4.353   5.048   4.929  0.4244  0.9553  0.6569
 2608TIP3   OH229238   0.129   2.952   1.062 -0.0039  0.0386 -0.5010
 2608TIP3    H129239   0.049   2.938   1.012 -1.1561  0.9727  1.0331
 2608TIP3    H229240   0.107   3.021   1.124  2.1398  0.6384 -0.3558
 2609TIP3   OH229241   4.929   1.849  10.634  0.1464  0.3842  0.0412
 2609TIP3    H129242   4.893   1.867  10.721 -1.0547 -0.0116 -0.3579
 2609TIP3    H229243   4.861   1.880  10.574  0.5828 -0.1699 -0.7403
 2610TIP3   OH229244   3.763   2.729  16.884 -0.3218  0.1117  0.4894
 2610TIP3    H129245   3.729   2.818  16.892  0.8957  0.4727  1.7382
 2610TIP3    H229246   3.687   2.673  16.896 -0.9773  0.9744  0.3765
 2611TIP3   OH229247   2.197   6.483  15.049  0.5637 -0.4553 -0.1815
 2611TIP3    H129248   2.286   6.506  15.077 -0.7121  0.2906  3.6006
 2611TIP3    H229249   2.174   6.551  14.986  3.0044 -1.2286 -1.9684
 2612TIP3   OH229250   0.213   6.348   1.780 -0.2726 -0.0087  0.2284
 2612TIP3    H129251   0.276   6.360   1.709  0.4766  2.1219  1.2139
 2612TIP3    H229252   0.132   6.388   1.748 -0.3882 -0.4419 -0.0248
 2613TIP3   OH229253   1.141   4.816  16.669  0.1362  0.3098  0.4751
 2613TIP3    H129254   1.155   4.735  16.718 -0.9009  0.2343  0.6455
 2613TIP3    H229255   1.071   4.861  16.717 -0.9084  0.2288 -0.9468
 2614TIP3   OH229256   2.825   4.467   3.526 -0.5005 -0.0274  0.7559
 2614TIP3    H129257   2.767   4.515   3.467  0.5175  1.9618  1.3201
 2614TIP3    H229258   2.775   4.390   3.553 -1.6399 -0.0428 -1.2966
 2615TIP3   OH229259   2.050   5.154   0.922 -0.4161  0.1830 -0.2171
 2615TIP3    H129260   2.027   5.100   0.997 -2.2177  1.6250  0.2897
 2615TIP3    H229261   2.145   5.148   0.917 -0.5109 -2.4364  0.2602
 2616TIP3   OH229262   2.224   5.098  16.378  0.1846 -0.4643  0.2840
 2616TIP3    H129263   2.130   5.095  16.361  0.0564  0.0671  0.9215
 2616TIP3    H229264   2.245   5.010  16.411  0.0562 -0.8304 -0.6008
 2617TIP3   OH229265   1.864   4.707  13.914  0.2269  0.8136  0.5561
 2617TIP3    H129266   1.851   4.800  13.934  0.8054  0.7253  1.3712
 2617TIP3    H229267   1.843   4.699  13.821 -0.2041  1.6882  0.5754
 2618TIP3   OH229268   4.796   2.911  15.853  0.3372 -0.1467  0.0418
 2618TIP3    H129269   4.748   2.935  15.932  0.3494  3.1670 -0.8798
 2618TIP3    H229270   4.886   2.936  15.871  0.7741 -1.6018 -0.1304
 2619TIP3   OH229271   5.657   5.597   0.482  0.0480  0.5602 -0.5723
 2619TIP3    H129272   5.694   5.519   0.442 -0.9894 -1.2244  1.8285
 2619TIP3    H229273   5.718   5.621   0.551 -1.0682  0.1558  0.5800
 2620TIP3   OH229274   0.832   0.996  13.837  0.6573 -0.1346 -0.2157
 2620TIP3    H129275   0.819   1.051  13.914 -0.4850  0.8034 -1.0569
 2620TIP3    H229276   0.793   0.912  13.861 -1.2908  0.6947 -0.3900
 2621TIP3   OH229277   0.280   5.196   1.525  0.3137 -0.2014 -0.1152
 2621TIP3    H129278   0.337   5.273   1.530  0.6634 -0.5204  0.9714
 2621TIP3    H229279   0.338   5.126   1.495  0.4437 -0.4824  0.8004
 2622TIP3   OH229280   0.252   0.730   5.765 -0.3278 -0.2661 -0.6676
 2622TIP3    H129281   0.259   0.815   5.808  0.0033 -0.2220 -0.8074
 2622TIP3    H229282   0.340   0.714   5.731 -0.2312 -0.9429 -0.1131
 2623TIP3   OH229283   0.091   1.891   2.075 -0.4316  0.3652  0.4184
 2623TIP3    H129284   0.045   1.854   2.150 -3.0700 -0.4207 -1.4982
 2623TIP3    H229285   0.073   1.985   2.079 -3.4222 -0.0786 -1.0099
 2624TIP3   OH229286   0.986   1.155  13.195  0.1578  0.2884 -0.1003
 2624TIP3    H129287   0.920   1.132  13.260  0.8579 -1.3031  0.0891
 2624TIP3    H229288   0.935   1.173  13.115 -0.7301  2.6955  0.9563
 2625TIP3   OH229289   1.715   5.498  14.986 -0.1909  0.2175  0.3929
 2625TIP3    H129290   1.700   5.406  15.004  2.5861 -0.3743 -0.1479
 2625TIP3    H229291   1.783   5.524  15.048 -1.1594  1.9950  0.7544
 2626TIP3   OH229292   1.263   6.111   1.879 -0.4419  0.6354 -0.8138
 2626TIP3    H129293   1.222   6.188   1.919  0.4773 -0.0796  1.5912
 2626TIP3    H229294   1.213   6.096   1.799 -1.9104  2.5237 -0.2820
 2627TIP3   OH229295   5.881   4.997   3.290  0.2715  1.1981  0.8438
 2627TIP3    H129296   5.963   4.953   3.270 -1.6423 -2.3242  0.2988
 2627TIP3    H229297   5.878   5.003   3.386  0.6452  0.2597  0.9143
 2628TIP3   OH229298   1.372   0.860   0.523 -0.0587  0.3430 -0.2259
 2628TIP3    H129299   1.356   0.798   0.594 -1.9460  1.1535  0.0695
 2628TIP3    H229300   1.402   0.806   0.450 -1.9236 -0.9663 -0.0519
 2629TIP3   OH229301   3.762   4.443   1.908 -1.0495  0.1430 -0.6501
 2629TIP3    H129302   3.764   4.361   1.957  0.5333  0.7612  0.4011
 2629TIP3    H229303   3.723   4.421   1.824 -1.0809 -1.5855 -0.1956
 2630TIP3   OH229304   5.012   6.146   2.038 -0.0234 -0.5322 -0.2931
 2630TIP3    H129305   5.062   6.166   2.117  0.1241 -1.1266 -0.2284
 2630TIP3    H229306   5.031   6.054   2.021  0.3990 -0.2528 -1.3477
 2631TIP3   OH229307   6.488   2.525   1.198  0.4626 -0.2440  1.1154
 2631TIP3    H129308   6.552   2.588   1.165 -0.5553  0.0619 -0.3338
 2631TIP3    H229309   6.489   2.454   1.133 -0.6259 -0.2509  1.0936
 2632TIP3   OH229310   0.329   4.026   4.044  0.0736 -0.0850 -0.1138
 2632TIP3    H129311   0.250   4.016   4.096  0.5332  0.3931  0.6989
 2632TIP3    H229312   0.378   3.946   4.060 -1.2906 -1.4205 -2.4712
 2633TIP3   OH229313   2.253   1.458   4.036 -0.9313 -0.1067  0.0392
 2633TIP3    H129314   2.348   1.468   4.035 -1.0905  1.6546  0.5387
 2633TIP3    H229315   2.224   1.502   3.956 -1.2236 -2.1442 -1.0205
 2634TIP3   OH229316   0.706   3.079   2.268  0.5220 -0.2367  0.1618
 2634TIP3    H129317   0.730   3.138   2.339 -1.0985 -1.0560  1.4393
 2634TIP3    H229318   0.700   2.993   2.309 -2.6290 -0.3881 -0.4246
 2635TIP3   OH229319   4.666   6.780   0.717 -0.0273 -0.0291  0.4807
 2635TIP3    H129320   4.598   6.759   0.781 -1.2381 -1.5226 -1.2576
 2635TIP3    H229321   4.620   6.823   0.645  1.2267  1.0481  0.2912
 2636TIP3   OH229322   2.441   2.250  12.961 -0.3993  0.2747 -0.5485
 2636TIP3    H129323   2.442   2.342  12.989 -0.4589 -0.8127  3.3274
 2636TIP3    H229324   2.371   2.246  12.896 -1.0127  2.7813 -0.1237
 2637TIP3   OH229325   3.622   2.541   3.252  0.5901 -0.4608 -0.1168
 2637TIP3    H129326   3.660   2.459   3.285  1.2756 -1.2370 -2.6930
 2637TIP3    H229327   3.543   2.554   3.305  0.0365 -3.2224 -0.1953
 2638TIP3   OH229328   0.385   2.522   3.290 -0.6848  0.3096 -0.1100
 2638TIP3    H129329   0.347   2.610   3.302 -0.5826  0.8416 -3.2426
 2638TIP3    H229330   0.315   2.473   3.247 -0.0346 -0.5748 -0.1480
 2639TIP3   OH229331   3.185   5.843  11.963  1.1212 -0.1148 -0.9782
 2639TIP3    H129332   3.205   5.812  11.875  1.5407  1.7992 -1.5733
 2639TIP3    H229333   3.100   5.887  11.954  1.4712  0.6560 -0.5757
 2640TIP3   OH229334   5.811   0.324   2.838 -0.5576 -0.6464  0.4430
 2640TIP3    H129335   5.842   0.319   2.747 -1.9820 -1.1828 -0.0347
 2640TIP3    H229336   5.781   0.235   2.857 -1.1091 -0.3158  1.1321
 2641TIP3   OH229337   2.323   1.660  13.504 -0.3780  0.4908  0.2061
 2641TIP3    H129338   2.329   1.689  13.413  0.1384 -1.2524 -0.3357
 2641TIP3    H229339   2.414   1.641  13.529 -0.7471 -1.2096  0.3358
 2642TIP3   OH229340   0.043   0.190   2.903  0.3259 -0.3744 -0.6201
 2642TIP3    H129341   0.006   0.127   2.841 -1.4325  0.9616 -0.9569
 2642TIP3    H229342   0.021   0.275   2.866  0.1658  0.4492  1.3346
 2643TIP3   OH229343   2.379   3.006  12.388 -0.0770  0.4917 -0.6370
 2643TIP3    H129344   2.322   3.041  12.457 -0.1225  0.1791 -0.5179
 2643TIP3    H229345   2.408   3.084  12.340  1.4817  0.9060  0.9202
 2644TIP3   OH229346   3.580   4.798   1.723  0.4903 -0.3373 -0.4957
 2644TIP3    H129347   3.536   4.771   1.804  0.8185  0.0544 -0.1849
 2644TIP3    H229348   3.584   4.894   1.730  1.7350 -0.3928 -0.3472
 2645TIP3   OH229349   4.044   3.478  14.394  0.6798  0.1483  0.6390
 2645TIP3    H129350   3.952   3.497  14.373  0.7947  2.9575  2.3487
 2645TIP3    H229351   4.039   3.430  14.477  0.7473  0.1469  0.6423
 2646TIP3   OH229352   0.630   0.363  13.085  0.2197  0.0156  0.6634
 2646TIP3    H129353   0.537   0.354  13.065  0.2327 -0.0406  0.6281
 2646TIP3    H229354   0.666   0.411  13.010  0.9729 -3.4681 -1.3089
 2647TIP3   OH229355   3.116   2.448   1.873  0.1206 -0.2313 -0.6207
 2647TIP3    H129356   3.062   2.378   1.835 -0.3161 -0.4284  0.3509
 2647TIP3    H229357   3.108   2.436   1.967 -1.5959  2.3703 -0.3774
 2648TIP3   OH229358   3.262   4.464   5.832  0.3224  0.5710 -0.9255
 2648TIP3    H129359   3.314   4.383   5.836  0.0437  0.3394 -1.9122
 2648TIP3    H229360   3.267   4.499   5.921 -0.3123 -1.0153 -0.2288
 2649TIP3   OH229361   5.170   3.279   2.580  0.0336 -0.2498 -0.1273
 2649TIP3    H129362   5.126   3.304   2.498 -0.3117 -2.0988 -0.5271
 2649TIP3    H229363   5.101   3.284   2.646  0.3436  1.3800  0.1059
 2650TIP3   OH229364   5.611   6.380  10.771 -0.1992  0.3008  0.0022
 2650TIP3    H129365   5.550   6.454  10.764  0.3877  0.7579 -0.3024
 2650TIP3    H229366   5.578   6.316  10.707 -0.2986  0.5968 -0.2442
 2651TIP3   OH229367   2.260   0.930   4.325 -0.0256  0.1424  0.3840
 2651TIP3    H129368   2.325   0.943   4.256  0.5863 -0.6581  0.8013
 2651TIP3    H229369   2.184   0.893   4.281 -0.2015  1.0485 -0.0978
 2652TIP3   OH229370   5.051   1.635   1.067  0.2138  0.2121  0.1467
 2652TIP3    H129371   5.022   1.587   0.990  3.0555 -1.3485 -0.0308
 2652TIP3    H229372   5.062   1.725   1.038  0.9047 -0.2980 -1.2103
 2653TIP3   OH229373   4.601   0.284  11.467  0.1096 -0.3769 -0.5348
 2653TIP3    H129374   4.522   0.262  11.417 -0.6294  2.3842 -0.6697
 2653TIP3    H229375   4.591   0.377  11.488  1.2898 -0.9984  3.1594
 2654TIP3   OH229376   2.886   2.268   1.617  0.7091  0.0010 -0.5842
 2654TIP3    H129377   2.953   2.310   1.563  0.9289 -0.3050 -0.5523
 2654TIP3    H229378   2.867   2.332   1.687  0.5703  0.3125 -0.9053
 2655TIP3   OH229379   2.835   3.495  12.905  0.0075  0.5296  0.2847
 2655TIP3    H129380   2.824   3.590  12.917  1.6908  1.2252 -3.0400
 2655TIP3    H229381   2.769   3.471  12.840  0.3329 -0.3971  0.2910
 2656TIP3   OH229382   3.442   4.198  15.035 -0.0090 -1.1758 -0.3306
 2656TIP3    H129383   3.370   4.193  15.098  0.3071 -1.3793  0.0134
 2656TIP3    H229384   3.406   4.249  14.962 -0.3594 -0.8996  0.0325
 2657TIP3   OH229385   3.571   2.782  16.162 -0.1360 -0.0884  0.1756
 2657TIP3    H129386   3.660   2.793  16.127 -0.7801 -0.4951 -1.5961
 2657TIP3    H229387   3.578   2.706  16.219  0.4941 -0.5151 -0.4673
 2658TIP3   OH229388   4.995   1.714   0.505  0.0510  0.1878  0.2771
 2658TIP3    H129389   4.924   1.663   0.467  0.0199  1.2145 -1.1243
 2658TIP3    H229390   4.954   1.768   0.572  0.1140 -1.7144  1.8630
 2659TIP3   OH229391   1.364   4.616  14.679  0.2710  0.2612  0.2891
 2659TIP3    H129392   1.408   4.535  14.653  0.0034 -0.0573  0.8101
 2659TIP3    H229393   1.433   4.682  14.677  0.7578 -0.2133  1.0037
 2660TIP3   OH229394   2.347   0.673  13.253  0.1722  0.5566 -0.2600
 2660TIP3    H129395   2.274   0.696  13.309  0.3910 -0.6818  0.5561
 2660TIP3    H229396   2.404   0.619  13.308  0.9258  0.2127 -1.3457
 2661TIP3   OH229397   0.432   2.491   4.172 -0.3529 -0.1527  0.2158
 2661TIP3    H129398   0.480   2.423   4.123  0.5417  1.0667 -0.6401
 2661TIP3    H229399   0.457   2.573   4.129 -2.8191  0.5701  0.0937
 2662TIP3   OH229400   3.331   4.955  13.172  0.4007  0.0146 -0.3557
 2662TIP3    H129401   3.360   5.046  13.180 -1.2758  0.5460 -0.1377
 2662TIP3    H229402   3.333   4.921  13.262 -0.2550  0.2327 -0.2624
 2663TIP3   OH229403   1.489   3.245   0.213 -0.9005  0.3093  0.8768
 2663TIP3    H129404   1.457   3.268   0.126  2.1661  0.3261 -0.3142
 2663TIP3    H229405   1.411   3.220   0.262 -2.3062 -3.2255 -2.9472
 2664TIP3   OH229406   6.300   5.186  15.107 -0.7213 -0.5010  0.0266
 2664TIP3    H129407   6.275   5.126  15.177 -1.4659  1.2289  1.2588
 2664TIP3    H229408   6.230   5.178  15.043 -1.7490  0.3794  1.0265
 2665TIP3   OH229409   3.761   0.003  13.280  0.6692 -0.5448  0.2258
 2665TIP3    H129410   3.776  -0.092  13.279 -0.1595 -0.7536  2.6764
 2665TIP3    H229411   3.688   0.016  13.219 -0.0078 -1.6682  0.7610
 2666TIP3   OH229412   2.604   2.880   5.391  0.1788 -0.0344  0.0938
 2666TIP3    H129413   2.593   2.967   5.431  1.2864  0.2327 -0.1503
 2666TIP3    H229414   2.606   2.820   5.465 -1.4928  0.0412  0.2150
 2667TIP3   OH229415   5.935   5.197   2.506  0.3846 -0.0557  0.1183
 2667TIP3    H129416   5.877   5.231   2.574  0.1897  0.2735 -0.2125
 2667TIP3    H229417   5.977   5.121   2.546  0.6444  0.4330  0.7748
 2668TIP3   OH229418   2.420   1.664   5.086 -0.0486  0.5248 -0.2090
 2668TIP3    H129419   2.510   1.650   5.115 -0.0452  0.8699 -0.0572
 2668TIP3    H229420   2.391   1.741   5.135 -0.4300  0.4030 -0.2462
 2669TIP3   OH229421   0.425   4.516  12.927  0.1155  0.5565 -0.6384
 2669TIP3    H129422   0.386   4.569  12.996  1.2654  1.9533 -1.0436
 2669TIP3    H229423   0.350   4.489  12.872 -0.5013  1.5405 -0.2858
 2670TIP3   OH229424   1.942   1.400   3.448  0.2726 -0.6059  0.4127
 2670TIP3    H129425   1.923   1.337   3.378 -1.5982 -0.9126  1.1603
 2670TIP3    H229426   2.037   1.402   3.453  0.5196  0.4076 -3.0444
 2671TIP3   OH229427   1.340   4.255   6.790 -0.5208 -0.0318 -0.5643
 2671TIP3    H129428   1.370   4.209   6.869  0.3339  1.6586  0.1220
 2671TIP3    H229429   1.380   4.341   6.797 -2.0832  0.8049 -1.8454
 2672TIP3   OH229430   4.958   5.553  12.881 -0.3938  0.1109 -0.2721
 2672TIP3    H129431   5.029   5.490  12.893  0.1572  1.0046  1.4954
 2672TIP3    H229432   4.994   5.620  12.823 -0.5689 -0.5967 -1.1909
 2673TIP3   OH229433   5.190   6.108  10.674 -0.1242  0.0642  0.1558
 2673TIP3    H129434   5.283   6.122  10.658  0.1936 -1.3964  0.6450
 2673TIP3    H229435   5.150   6.113  10.588  0.7058 -1.4260 -0.3247
 2674TIP3   OH229436   0.080   3.700   3.493  0.0284 -0.2295  0.2952
 2674TIP3    H129437   0.005   3.749   3.458  1.0041  1.0120 -0.0581
 2674TIP3    H229438   0.130   3.765   3.542  1.4117 -0.8556 -0.2910
 2675TIP3   OH229439   2.367   1.933  14.266  0.0275 -0.4330 -0.3638
 2675TIP3    H129440   2.390   2.012  14.218  2.5050 -0.5557  0.5580
 2675TIP3    H229441   2.321   1.964  14.343  2.5280  0.2706  0.8945
 2676TIP3   OH229442   2.663   6.647   2.615 -0.1205  0.0384 -0.1190
 2676TIP3    H129443   2.737   6.702   2.641  1.2094 -1.1719 -1.2918
 2676TIP3    H229444   2.671   6.638   2.520 -2.9760  1.5873 -0.5921
 2677TIP3   OH229445   6.419   5.852   6.512 -0.4396  0.2687 -0.1173
 2677TIP3    H129446   6.350   5.855   6.578 -0.8274 -1.6815 -0.3868
 2677TIP3    H229447   6.389   5.910   6.443  0.0349  2.4392  1.4530
 2678TIP3   OH229448   4.525   1.847  13.173 -0.4154  0.0874  0.2556
 2678TIP3    H129449   4.441   1.886  13.197 -0.6260 -0.4440  0.3808
 2678TIP3    H229450   4.540   1.779  13.239  0.0460  0.0874  0.1536
 2679TIP3   OH229451   2.583   0.520  13.759 -0.2128  0.5485 -0.7592
 2679TIP3    H129452   2.662   0.476  13.727 -0.5255 -0.3568 -0.3026
 2679TIP3    H229453   2.612   0.607  13.783  0.4369  0.5763 -1.6175
 2680TIP3   OH229454   4.401   0.096   5.522 -0.0184  0.1054 -0.2060
 2680TIP3    H129455   4.357   0.167   5.569 -0.4497  1.6958 -2.9029
 2680TIP3    H229456   4.476   0.137   5.480 -0.2650 -0.9988 -1.7889
 2681TIP3   OH229457   3.751   2.088  16.994 -0.2445  0.1918  0.2193
 2681TIP3    H129458   3.716   2.146  16.927 -0.6932  1.4461  1.5147
 2681TIP3    H229459   3.676   2.068  17.050  0.6385  1.2514  1.8414
 2682TIP3   OH229460   2.743   6.023   3.072  0.0775 -0.3620  0.0594
 2682TIP3    H129461   2.824   6.034   3.021  1.3686  0.9835  2.3303
 2682TIP3    H229462   2.677   6.070   3.021  1.3129  0.8316 -0.4916
 2683TIP3   OH229463   6.257   4.322   1.510  0.7364  0.0993  0.0010
 2683TIP3    H129464   6.212   4.280   1.584  1.0740  0.2906  0.3157
 2683TIP3    H229465   6.338   4.356   1.548  1.8013 -1.4449 -0.8492
 2684TIP3   OH229466   4.255   0.859   1.089  0.7499  0.1856  0.0088
 2684TIP3    H129467   4.204   0.851   1.169  1.7507 -0.5393  0.5831
 2684TIP3    H229468   4.346   0.853   1.117  1.1035 -0.6444 -1.2490
 2685TIP3   OH229469   4.931   0.539  14.682  0.1415  0.4030  0.2854
 2685TIP3    H129470   4.862   0.521  14.619 -1.4852  2.7683  1.2891
 2685TIP3    H229471   5.001   0.579  14.630 -0.8732  1.6237 -0.1999
 2686TIP3   OH229472   4.958   5.957  16.086  0.4678 -0.3245  0.4988
 2686TIP3    H129473   4.966   5.868  16.119 -0.5160 -0.3634  0.6429
 2686TIP3    H229474   4.930   6.008  16.162  0.5003  0.0044  0.2877
 2687TIP3   OH229475   4.229   1.745   5.744 -0.5360  0.2055  0.0621
 2687TIP3    H129476   4.204   1.676   5.805 -0.7812  1.1975  1.1117
 2687TIP3    H229477   4.176   1.730   5.666 -0.4051 -0.9292  0.1846
 2688TIP3   OH229478   2.953   0.118  13.597  0.5340  0.1400  0.2856
 2688TIP3    H129479   2.989   0.198  13.558 -0.3331  1.3822  1.9892
 2688TIP3    H229480   3.025   0.084  13.650  1.8733 -1.8031 -2.6572
 2689TIP3   OH229481   3.784   6.566   3.678  0.0287  0.1242 -0.1222
 2689TIP3    H129482   3.820   6.645   3.637 -0.3193  1.1546  1.5045
 2689TIP3    H229483   3.758   6.594   3.765 -2.7228 -1.0963 -0.4739
 2690TIP3   OH229484   1.902   0.133   2.099 -0.1700 -0.2181 -0.3344
 2690TIP3    H129485   1.910   0.202   2.164 -1.1063 -2.1583  1.9381
 2690TIP3    H229486   1.962   0.065   2.129  1.3932 -0.1031 -3.0026
 2691TIP3   OH229487   2.977   1.926  16.443 -0.1273  0.7633 -0.2943
 2691TIP3    H129488   3.064   1.929  16.405  0.1372 -2.0181 -0.0246
 2691TIP3    H229489   2.975   1.843  16.491 -3.0562  0.5822 -0.6441
 2692TIP3   OH229490   1.679   0.285  16.898  0.4007 -0.4200  0.0976
 2692TIP3    H129491   1.658   0.313  16.809 -0.8969 -1.2186  0.1444
 2692TIP3    H229492   1.654   0.193  16.902  2.2701 -0.9275  0.7149
 2693TIP3   OH229493   4.542   3.310   3.839  0.0470 -0.2115  0.1253
 2693TIP3    H129494   4.620   3.300   3.785 -0.8260  0.1970 -1.2308
 2693TIP3    H229495   4.575   3.306   3.929  1.8327  1.5551 -0.4055
 2694TIP3   OH229496   0.340   2.612  13.064  0.1298 -0.4288  0.2573
 2694TIP3    H129497   0.412   2.586  13.121  0.0481 -0.9905  0.1168
 2694TIP3    H229498   0.261   2.595  13.116 -0.0181 -2.3371 -0.5189
 2695TIP3   OH229499   2.142   3.229  14.669 -0.3547  0.4275  0.3768
 2695TIP3    H129500   2.079   3.301  14.675 -0.9111  0.1786 -1.9531
 2695TIP3    H229501   2.221   3.270  14.636 -0.2387  0.2043  0.3791
 2696TIP3   OH229502   4.145   4.214  14.795 -0.2745 -0.1271 -0.4281
 2696TIP3    H129503   4.110   4.199  14.708  1.4411 -1.7748 -0.8675
 2696TIP3    H229504   4.232   4.174  14.794  0.3276  1.0202  1.6185
 2697TIP3   OH229505   0.355   0.160  15.838 -0.1445  0.6914  0.7546
 2697TIP3    H129506   0.326   0.164  15.747  0.0511  0.2518  0.6706
 2697TIP3    H229507   0.429   0.098  15.837  0.4440  1.3878  1.0510
 2698TIP3   OH229508   0.643   0.450  16.980 -1.0819  0.3987 -0.1226
 2698TIP3    H129509   0.570   0.443  16.918 -2.9210  0.3703  1.9782
 2698TIP3    H229510   0.602   0.476  17.062  0.8110 -3.1730  2.0680
 2699TIP3   OH229511   0.273   2.724  12.820  0.5332  0.7555 -0.0280
 2699TIP3    H129512   0.361   2.732  12.784  0.7120  0.8739  0.4367
 2699TIP3    H229513   0.286   2.686  12.907  0.4838  4.5996  1.7600
 2700TIP3   OH229514   6.089   1.777  15.121  0.6225  0.0072  0.2885
 2700TIP3    H129515   6.081   1.786  15.026 -0.7740 -0.3188  0.3702
 2700TIP3    H229516   6.178   1.808  15.141  0.6931  0.6781 -1.0420
 2701TIP3   OH229517   1.797   0.678   1.631 -0.3146 -0.1786 -0.5318
 2701TIP3    H129518   1.770   0.587   1.616 -0.4251 -0.0113 -1.4044
 2701TIP3    H229519   1.744   0.728   1.570  0.0278  0.4336 -0.3266
 2702TIP3   OH229520   2.970   3.261   4.062  0.0391  0.0107 -0.0345
 2702TIP3    H129521   2.899   3.200   4.041  0.2646 -0.8804  1.6953
 2702TIP3    H229522   3.039   3.239   4.000 -1.4263  1.3750 -2.2315
 2703TIP3   OH229523   3.528   1.947   5.255  0.3881 -0.1053  0.3704
 2703TIP3    H129524   3.527   1.924   5.348  0.2700  0.2318  0.4535
 2703TIP3    H229525   3.475   1.881   5.212 -1.7196  1.2142  0.8884
 2704TIP3   OH229526   6.291   2.161   2.640  0.2963 -0.4821  0.0432
 2704TIP3    H129527   6.223   2.121   2.695 -0.7482  0.0987 -0.8078
 2704TIP3    H229528   6.248   2.174   2.555  1.2266  0.6281 -0.2618
 2705TIP3   OH229529   0.247   0.968  16.232  0.5064 -0.0043 -0.0728
 2705TIP3    H129530   0.272   0.899  16.295 -0.4583  1.1767  1.6478
 2705TIP3    H229531   0.160   0.943  16.203  0.3868  0.1969  0.1153
 2706TIP3   OH229532   6.384   5.376  14.882 -0.1873 -0.2083  0.0702
 2706TIP3    H129533   6.346   5.289  14.868 -2.1755  0.9016 -1.7211
 2706TIP3    H229534   6.465   5.376  14.831  0.0096 -1.1334  0.3806
 2707TIP3   OH229535   0.411   1.466  16.245 -0.5297 -0.5870  0.3589
 2707TIP3    H129536   0.424   1.559  16.227  0.6485 -0.7176  0.5316
 2707TIP3    H229537   0.453   1.451  16.329 -3.5168 -0.6088  1.9077
 2708TIP3   OH229538   6.075   0.967  10.354  0.2398  0.0618 -0.8095
 2708TIP3    H129539   6.007   1.024  10.317  0.0626  0.8336  0.6740
 2708TIP3    H229540   6.033   0.925  10.429  0.9950 -0.5103 -0.7002
 2709TIP3   OH229541   5.003   3.961   1.437 -1.1744  0.4296  0.4658
 2709TIP3    H129542   5.074   3.943   1.498 -1.7537  0.0116  1.0179
 2709TIP3    H229543   4.963   4.041   1.469 -0.6505  0.9407 -0.1303
 2710TIP3   OH229544   1.705   2.406   2.578  0.2599  0.4784 -0.4834
 2710TIP3    H129545   1.680   2.317   2.601  1.6710  0.5315  1.4168
 2710TIP3    H229546   1.622   2.451   2.561 -0.5740 -0.7335  0.3489
 2711TIP3   OH229547   4.948   6.058  13.331  0.3115  0.3615 -0.7045
 2711TIP3    H129548   4.906   6.034  13.249  0.2199  0.0105 -0.5551
 2711TIP3    H229549   4.983   6.146  13.315  2.6441 -0.7371 -2.0359
 2712TIP3   OH229550   6.370   6.552  12.074  0.2792  0.0790 -0.0799
 2712TIP3    H129551   6.282   6.519  12.090  1.0470 -1.4205  1.3094
 2712TIP3    H229552   6.369   6.641  12.110 -1.4124  1.0939 -2.5507
 2713TIP3   OH229553   3.100   1.285  14.890 -0.3748  0.2915 -0.0280
 2713TIP3    H129554   3.080   1.302  14.983 -0.2339 -0.0167  0.0573
 2713TIP3    H229555   3.025   1.234  14.859 -0.6017  0.7141 -0.1817
 2714TIP3   OH229556   6.006   3.639  12.644  0.1695 -0.5266  0.0091
 2714TIP3    H129557   5.973   3.604  12.562 -0.1697  1.0964 -0.5765
 2714TIP3    H229558   5.965   3.726  12.651 -0.7321 -1.1050  2.4569
 2715TIP3   OH229559   3.069   1.435  17.014 -1.0865 -0.1427 -0.7607
 2715TIP3    H129560   3.146   1.477  17.052 -0.5950 -1.1572 -0.6183
 2715TIP3    H229561   3.023   1.506  16.968 -0.6968  0.7045  0.1390
 2716TIP3   OH229562   0.045   6.531  14.914 -0.6739 -0.1958 -0.0378
 2716TIP3    H129563   0.129   6.508  14.954  0.3102 -0.4343 -2.1824
 2716TIP3    H229564  -0.019   6.477  14.961  0.5207 -0.8637  0.8503
 2717TIP3   OH229565   5.880   5.742   1.048 -0.2711  0.1033  0.2919
 2717TIP3    H129566   5.861   5.711   0.960 -0.9878  2.1653 -0.3093
 2717TIP3    H229567   5.889   5.837   1.039 -0.5917  0.3784  2.4638
 2718TIP3   OH229568   1.669   0.792   1.439  0.1830  0.3089  0.1761
 2718TIP3    H129569   1.592   0.832   1.399  0.3251  0.8530  0.4453
 2718TIP3    H229570   1.725   0.770   1.365  0.2771  0.9665  0.0487
 2719TIP3   OH229571   6.645   3.603  16.069 -0.1458 -0.5555 -0.7258
 2719TIP3    H129572   6.621   3.694  16.084  0.0295 -0.2964 -1.9601
 2719TIP3    H229573   6.681   3.573  16.152 -1.7798 -0.0087  0.1997
 2720TIP3   OH229574   0.784   6.111  16.876 -0.3314 -0.0865  0.2739
 2720TIP3    H129575   0.812   6.117  16.967 -0.7482 -1.5903  0.5117
 2720TIP3    H229576   0.865   6.101  16.826 -0.0316  1.6711  0.3700
 2721TIP3   OH229577   2.382   5.227   6.384  0.4697  0.0942  0.0127
 2721TIP3    H129578   2.447   5.157   6.391 -1.1125 -1.5351 -1.0908
 2721TIP3    H229579   2.332   5.222   6.466  1.2065  0.8463  0.5238
 2722TIP3   OH229580   6.089   3.188  11.467 -0.1187  0.0218  0.0389
 2722TIP3    H129581   6.149   3.154  11.534 -0.5047  0.2415  0.5019
 2722TIP3    H229582   6.134   3.263  11.430 -2.1525  3.3293  3.8681
 2723TIP3   OH229583   0.137   0.148  16.800  0.0280 -0.0995 -0.0251
 2723TIP3    H129584   0.097   0.228  16.766 -0.1441  0.0504  0.5248
 2723TIP3    H229585   0.226   0.149  16.765  0.7255  1.4304  1.6840
 2724TIP3   OH229586   2.324   2.087   2.595 -0.1111  0.1779  0.4623
 2724TIP3    H129587   2.248   2.092   2.536  0.9791 -0.1893 -1.0036
 2724TIP3    H229588   2.288   2.057   2.678 -1.6236  0.2901 -0.1371
 2725TIP3   OH229589   5.560   2.176   1.502 -0.6736  0.4705 -0.0640
 2725TIP3    H129590   5.576   2.204   1.593 -0.4709  1.5501 -0.4221
 2725TIP3    H229591   5.648   2.167   1.465 -0.7718  0.5292 -0.3050
 2726TIP3   OH229592   6.642   5.250   4.432  0.1081  0.5970 -0.3654
 2726TIP3    H129593   6.635   5.181   4.365 -0.9054  0.5135 -0.1797
 2726TIP3    H229594   6.736   5.261   4.445  0.3748  1.6297 -2.8694
 2727TIP3   OH229595   4.030   2.671   5.270 -0.0538  0.0987  0.3524
 2727TIP3    H129596   4.005   2.681   5.362  0.5766  1.4390  0.3964
 2727TIP3    H229597   4.093   2.742   5.255  0.2001 -0.4008 -0.9856
 2728TIP3   OH229598   6.292   6.555  10.572  0.5591  0.3211  0.2946
 2728TIP3    H129599   6.249   6.587  10.492  0.1876  0.2076  0.4477
 2728TIP3    H229600   6.385   6.562  10.553  0.4802 -1.6644 -0.9276
 2729TIP3   OH229601   4.165   1.805  11.492 -0.5420  0.0553 -0.3985
 2729TIP3    H129602   4.250   1.846  11.510 -0.0863 -1.1440  0.2784
 2729TIP3    H229603   4.102   1.859  11.538 -0.0924  0.7178 -0.5526
 2730TIP3   OH229604   5.988   3.515  12.995  0.4660  0.1184 -0.0981
 2730TIP3    H129605   5.979   3.484  12.905 -0.5580  0.5962 -0.1767
 2730TIP3    H229606   5.908   3.485  13.038  1.9920 -2.0806  1.2624
 2731TIP3   OH229607   5.090   5.182   2.208 -0.1714 -0.0698 -0.5738
 2731TIP3    H129608   5.086   5.089   2.182 -0.2189  0.0425 -0.9824
 2731TIP3    H229609   5.047   5.185   2.293  1.4915 -0.7277  0.3009
 2732TIP3   OH229610   4.674   5.348   3.831  0.0833  0.1517 -0.0430
 2732TIP3    H129611   4.685   5.416   3.897  2.3014  1.6904 -1.9394
 2732TIP3    H229612   4.579   5.337   3.823 -0.3340  3.3016  0.0311
 2733TIP3   OH229613   1.934   5.763  12.858  0.0458 -0.6409  0.0715
 2733TIP3    H129614   2.014   5.798  12.820 -0.8878  1.5125  0.0130
 2733TIP3    H229615   1.927   5.806  12.943  0.2729 -2.7641  1.2040
 2734TIP3   OH229616   2.819   2.007   0.488 -0.5211 -0.0491  0.2866
 2734TIP3    H129617   2.763   2.066   0.437 -1.3953 -1.2915 -0.1928
 2734TIP3    H229618   2.866   2.066   0.548 -1.2938  1.1553 -0.2642
 2735TIP3   OH229619   4.284   3.890   2.124 -0.3650  0.2507 -0.5061
 2735TIP3    H129620   4.293   3.978   2.085  0.7163  0.5382  0.3525
 2735TIP3    H229621   4.200   3.892   2.170 -0.0385  1.0718  0.0714
 2736TIP3   OH229622   5.419   4.490   3.337  0.1173  0.7644 -0.6046
 2736TIP3    H129623   5.383   4.579   3.336 -1.2246  0.2236 -0.8841
 2736TIP3    H229624   5.363   4.441   3.277  1.9705  0.1573 -1.8604
 2737TIP3   OH229625   0.990   2.882   6.156 -0.3523 -0.1876  0.3503
 2737TIP3    H129626   0.919   2.884   6.220 -1.0028  1.0728 -0.3839
 2737TIP3    H229627   1.046   2.956   6.180  0.3334 -0.7423  0.4870
 2738TIP3   OH229628   4.411   6.461   5.038 -0.1530 -0.1523  0.6322
 2738TIP3    H129629   4.365   6.481   5.119 -0.8172 -0.3726  0.3100
 2738TIP3    H229630   4.343   6.428   4.979  0.4442 -0.6390  0.2150
 2739TIP3   OH229631   4.420   5.495   1.155 -1.0505 -0.1519 -0.4218
 2739TIP3    H129632   4.374   5.413   1.136  1.0486 -1.0790 -1.6903
 2739TIP3    H229633   4.433   5.536   1.070  1.0166 -0.2421 -0.1746
 2740TIP3   OH229634   5.328   6.740  11.888 -0.3944 -0.3833  0.0061
 2740TIP3    H129635   5.354   6.806  11.824  0.4025  0.6487  1.3654
 2740TIP3    H229636   5.317   6.788  11.970 -0.5988 -1.8035  0.8450
 2741TIP3   OH229637   5.307   4.797  14.656 -0.2625  0.2149 -0.2703
 2741TIP3    H129638   5.300   4.706  14.629  0.1916 -0.5882  2.2536
 2741TIP3    H229639   5.231   4.812  14.713 -0.1693  1.3205 -0.4140
 2742TIP3   OH229640   0.457   4.805  15.948 -0.4667  0.2530  0.1890
 2742TIP3    H129641   0.469   4.710  15.945  0.9172  0.3726  1.1548
 2742TIP3    H229642   0.383   4.822  15.891 -0.2219 -1.3288 -0.6324
 2743TIP3   OH229643   0.678   5.418  15.022  0.4152 -0.3616  0.1095
 2743TIP3    H129644   0.677   5.459  14.936 -1.2071  1.1527  0.8263
 2743TIP3    H229645   0.716   5.483  15.080  0.3311 -0.8905  0.7675
 2744TIP3   OH229646   2.504   6.060   2.929  0.1408 -0.5318  0.2091
 2744TIP3    H129647   2.460   6.008   2.996  1.0671 -0.6232  0.7647
 2744TIP3    H229648   2.434   6.097   2.876 -0.6304  0.2610  1.7694
 2745TIP3   OH229649   0.377   0.837   2.783  0.0841  0.3758 -0.1906
 2745TIP3    H129650   0.289   0.807   2.760 -1.1701  1.6214  2.7538
 2745TIP3    H229651   0.435   0.767   2.752 -1.7833  0.0852 -3.2790
 2746TIP3   OH229652   1.375   2.153   2.673 -0.1453 -0.1263 -0.0880
 2746TIP3    H129653   1.465   2.178   2.692 -0.0248 -1.3773  1.0872
 2746TIP3    H229654   1.372   2.144   2.578  0.3531  2.1597 -0.3576
 2747TIP3   OH229655   0.149   6.131   1.128 -0.1680 -0.1973 -1.1436
 2747TIP3    H129656   0.165   6.131   1.222 -0.5562 -1.8274 -1.0614
 2747TIP3    H229657   0.106   6.214   1.111 -1.0548 -0.3440  0.3039
 2748TIP3   OH229658   2.996   6.071   2.262 -0.6170 -0.5846 -0.4179
 2748TIP3    H129659   3.041   5.988   2.281 -0.1467 -0.7186 -2.0092
 2748TIP3    H229660   2.915   6.066   2.312  0.9119 -0.5405  2.1142
 2749TIP3   OH229661   2.607   5.468  13.945  0.1010  0.2008 -0.2799
 2749TIP3    H129662   2.697   5.491  13.920  0.1272  0.0107 -0.3640
 2749TIP3    H229663   2.588   5.388  13.895  0.1336 -0.1503  0.2652
 2750TIP3   OH229664   2.700   0.163  11.526 -0.2712 -0.2907 -0.5649
 2750TIP3    H129665   2.775   0.158  11.585  0.0282  0.5817 -0.8706
 2750TIP3    H229666   2.669   0.253  11.534 -2.0568 -0.9573  0.4981
 2751TIP3   OH229667   4.077   5.248  16.736 -0.2656 -0.2680 -0.2007
 2751TIP3    H129668   4.078   5.283  16.647  0.6513  0.2618  0.0123
 2751TIP3    H229669   4.061   5.154  16.725  1.5884 -0.4961 -1.0373
 2752TIP3   OH229670   5.904   2.184   4.871 -0.4004 -0.3011  0.2486
 2752TIP3    H129671   5.862   2.119   4.927 -3.0316  1.3628  0.3075
 2752TIP3    H229672   5.915   2.260   4.928 -1.3722  0.7553 -0.9397
 2753TIP3   OH229673   0.604   4.595  13.489  0.0213  0.1437 -0.6557
 2753TIP3    H129674   0.689   4.630  13.460 -0.0762 -0.1959 -1.3627
 2753TIP3    H229675   0.548   4.672  13.497  0.1687  0.2837 -0.9599
 2754TIP3   OH229676   0.425   2.416   2.022 -0.2944 -0.5251  0.2735
 2754TIP3    H129677   0.443   2.330   2.060 -1.0334 -0.2125  1.3464
 2754TIP3    H229678   0.411   2.398   1.929  1.8140 -1.2543  0.0668
 2755TIP3   OH229679   3.556   0.799   1.972  0.0659  0.3178  0.4135
 2755TIP3    H129680   3.466   0.771   1.955  0.4810  0.3934 -2.1299
 2755TIP3    H229681   3.547   0.892   1.996 -0.6867 -0.1687  2.0662
 2756TIP3   OH229682   1.698   3.588   4.404  0.1544 -0.0643 -0.6010
 2756TIP3    H129683   1.703   3.498   4.371  0.5189 -0.2777  0.0348
 2756TIP3    H229684   1.787   3.608   4.432  0.2936  0.8435 -1.6410
 2757TIP3   OH229685   5.692   2.246   4.601  0.4767  0.5933 -0.6043
 2757TIP3    H129686   5.740   2.312   4.650 -0.1878 -0.5756  1.7115
 2757TIP3    H229687   5.606   2.286   4.587 -0.5139 -0.3512  2.3065
 2758TIP3   OH229688   3.976   4.155   5.632  0.6864 -0.2477 -0.1283
 2758TIP3    H129689   3.982   4.115   5.719  1.1529  0.9964  0.4242
 2758TIP3    H229690   4.055   4.126   5.587  1.9691  1.5447  0.9197
 2759TIP3   OH229691   6.379   1.152  16.509  0.1215  0.2762 -0.0291
 2759TIP3    H129692   6.350   1.232  16.554  1.0661 -0.5485  2.1082
 2759TIP3    H229693   6.396   1.180  16.419 -2.2887  1.8711 -0.0469
 2760TIP3   OH229694   5.511   0.529   0.366 -0.3481 -0.0541 -0.0454
 2760TIP3    H129695   5.496   0.451   0.419 -0.2987 -0.5580 -0.7761
 2760TIP3    H229696   5.424   0.558   0.339 -0.2568 -0.8487 -1.2053
 2761TIP3   OH229697   4.081   2.824  12.868  0.5650 -0.0802 -0.0714
 2761TIP3    H129698   4.132   2.810  12.948 -0.5445 -0.6765  0.5436
 2761TIP3    H229699   4.037   2.741  12.853  1.1387 -0.1253 -1.5885
 2762TIP3   OH229700   3.722   4.827  14.607 -0.2094  0.1291 -0.7278
 2762TIP3    H129701   3.770   4.824  14.689  0.9061  0.2729 -1.3708
 2762TIP3    H229702   3.649   4.765  14.619  0.6462 -0.7623 -0.0771
 2763TIP3   OH229703   4.080   5.233   3.169 -0.8023 -0.1935  0.4458
 2763TIP3    H129704   4.037   5.156   3.131  1.1743 -1.0317 -0.1575
 2763TIP3    H229705   4.088   5.294   3.096 -0.4386 -0.2746  0.4176
 2764TIP3   OH229706   3.675   1.710   4.927 -0.3920 -0.5003  0.3781
 2764TIP3    H129707   3.672   1.618   4.899 -0.8368 -1.0502  2.2084
 2764TIP3    H229708   3.584   1.733   4.944 -0.0053 -0.6024  2.7198
 2765TIP3   OH229709   6.391   3.669  10.839  0.3255  0.5455  0.0577
 2765TIP3    H129710   6.437   3.660  10.755 -0.4501 -4.4719 -0.0206
 2765TIP3    H229711   6.299   3.672  10.815  0.1103 -0.7212  0.6792
 2766TIP3   OH229712   4.311   2.315   0.595  0.1438 -0.0655  0.2665
 2766TIP3    H129713   4.333   2.225   0.620  0.8011  0.5888  2.0935
 2766TIP3    H229714   4.376   2.339   0.530  1.1113 -0.2543  1.1643
 2767TIP3   OH229715   0.862   3.117  13.712 -0.1617  0.0961 -0.0845
 2767TIP3    H129716   0.798   3.181  13.744  0.2532 -1.2183  3.6752
 2767TIP3    H229717   0.947   3.155  13.733  0.1439 -0.4808 -0.2513
 2768TIP3   OH229718   5.826   2.620  11.699  0.1409  0.1754 -0.5841
 2768TIP3    H129719   5.734   2.618  11.727  0.5734 -0.9160  0.8587
 2768TIP3    H229720   5.852   2.712  11.706 -1.3307  0.7942 -2.7356
 2769TIP3   OH229721   5.589   4.809  14.232 -0.0793  0.3400  0.8508
 2769TIP3    H129722   5.601   4.754  14.309 -3.1597  0.3328  1.3971
 2769TIP3    H229723   5.566   4.895  14.267  0.8576  0.9699 -0.0453
 2770TIP3   OH229724   6.680   3.093  15.774 -0.4913 -0.7463 -0.3581
 2770TIP3    H129725   6.642   3.060  15.856  0.4997 -0.2321  0.3162
 2770TIP3    H229726   6.736   3.022  15.743  3.0924  0.8805  2.0456
 2771TIP3   OH229727   5.061   1.252   6.450  0.0136 -0.7084  0.2689
 2771TIP3    H129728   5.011   1.293   6.380 -0.0217 -2.6440 -0.8900
 2771TIP3    H229729   5.151   1.249   6.417  0.0430 -1.3908  0.4047
 2772TIP3   OH229730   4.616   5.400  14.077  0.1891 -0.3640  0.7301
 2772TIP3    H129731   4.524   5.381  14.058 -0.5194  2.4712  1.2270
 2772TIP3    H229732   4.617   5.428  14.169  0.9863  3.0129 -0.2427
 2773TIP3   OH229733   4.671   3.126   2.534  0.2314  0.4505  0.3712
 2773TIP3    H129734   4.610   3.198   2.521  0.3189  1.1851  3.5761
 2773TIP3    H229735   4.620   3.047   2.516 -0.1744  1.2354 -2.0558
 2774TIP3   OH229736   1.117   5.887  12.877 -0.0969 -0.5104  0.0331
 2774TIP3    H129737   1.117   5.983  12.884  1.2969 -0.4170 -1.0352
 2774TIP3    H229738   1.101   5.870  12.784 -0.3077 -1.3172  0.2161
 2775TIP3   OH229739   6.753   5.873  15.217 -0.0823 -0.1137  0.7160
 2775TIP3    H129740   6.847   5.855  15.217 -0.1137 -0.3442 -0.3731
 2775TIP3    H229741   6.714   5.799  15.264  0.0881 -1.2317 -0.8422
 2776TIP3   OH229742   3.959   0.194  13.790 -0.1927 -0.2081 -0.1928
 2776TIP3    H129743   3.894   0.130  13.761  0.6180 -1.3951  0.5436
 2776TIP3    H229744   3.985   0.164  13.877 -0.7320  1.8603  0.7072
 2777TIP3   OH229745   3.623   5.818  11.203  0.6258  0.0963  0.3208
 2777TIP3    H129746   3.607   5.822  11.109 -1.7762  0.8051  0.7225
 2777TIP3    H229747   3.666   5.901  11.224  1.4208 -0.1846 -0.1886
 2778TIP3   OH229748   5.143   4.558   0.947 -0.5074 -0.0381 -0.3381
 2778TIP3    H129749   5.137   4.617   0.872 -0.8536  0.5616  0.1539
 2778TIP3    H229750   5.073   4.588   1.006 -0.4998 -0.7583  0.0404
 2779TIP3   OH229751   2.594   3.561   2.151  0.1826 -0.0188 -0.6483
 2779TIP3    H129752   2.652   3.493   2.186  0.1997 -0.5651 -1.7174
 2779TIP3    H229753   2.651   3.637   2.138  0.1984  0.1631  0.3854
 2780TIP3   OH229754   0.389   1.933   3.463 -0.4154 -0.1575  0.1039
 2780TIP3    H129755   0.297   1.957   3.470 -0.5067 -0.3304 -0.4809
 2780TIP3    H229756   0.433   2.014   3.437 -0.3277  0.0506  0.8912
 2781TIP3   OH229757   3.770   0.673  11.040 -0.0763  0.1240  0.1533
 2781TIP3    H129758   3.731   0.760  11.040 -0.5838 -0.1004  0.5113
 2781TIP3    H229759   3.697   0.614  11.058  0.0508 -0.4759 -1.2316
 2782TIP3   OH229760   0.230   1.368   1.395 -0.1469  0.1489  0.3525
 2782TIP3    H129761   0.235   1.301   1.462 -2.8528  0.2036  0.6370
 2782TIP3    H229762   0.137   1.388   1.386  0.3322  1.6560 -1.9142
 2783TIP3   OH229763   2.119   3.639  11.373 -0.6308  0.0728  0.0432
 2783TIP3    H129764   2.058   3.685  11.315  0.1438  1.0654  0.0151
 2783TIP3    H229765   2.206   3.667  11.344 -0.1975 -0.4536  0.8309
 2784TIP3   OH229766   2.044   0.499   1.922 -0.1545  0.9271  0.7900
 2784TIP3    H129767   2.092   0.542   1.851  0.2880 -2.1991 -0.8753
 2784TIP3    H229768   2.112   0.458   1.975 -0.7800 -0.9661  0.1484
 2785TIP3   OH229769   0.372   1.229   5.774  0.0826  0.1568  0.0612
 2785TIP3    H129770   0.282   1.202   5.792  0.2243 -0.9420 -0.8446
 2785TIP3    H229771   0.372   1.253   5.682  1.1201 -1.5503 -0.4023
 2786TIP3   OH229772   4.867   3.364   4.567 -0.0874 -0.2693  0.1181
 2786TIP3    H129773   4.959   3.365   4.593 -0.2988  0.1312  0.8904
 2786TIP3    H229774   4.819   3.368   4.650 -0.7968  2.0392 -0.3464
 2787TIP3   OH229775   3.847   2.653  12.208  0.6549 -0.0315  0.2545
 2787TIP3    H129776   3.779   2.708  12.169 -0.9392 -2.6495 -0.7793
 2787TIP3    H229777   3.893   2.615  12.133  2.5124  0.7593  0.9598
 2788TIP3   OH229778   5.699   4.215  15.344 -0.2179 -0.0160  0.1915
 2788TIP3    H129779   5.794   4.218  15.345 -0.2635  0.8254  2.6558
 2788TIP3    H229780   5.677   4.126  15.373 -0.2109 -0.1375 -0.1639
 2789TIP3   OH229781   0.834   1.070  11.384  0.1620 -0.1022  0.4598
 2789TIP3    H129782   0.872   1.064  11.471  1.1810  1.2385  0.1198
 2789TIP3    H229783   0.837   0.981  11.349 -0.0428 -0.5982  1.6955
 2790TIP3   OH229784   1.520   3.930   2.217 -1.0132 -0.5408 -0.2805
 2790TIP3    H129785   1.597   3.895   2.260 -0.3234  0.2596 -0.8324
 2790TIP3    H229786   1.446   3.905   2.273 -0.2182 -0.1931  0.9237
 2791TIP3   OH229787   3.340   4.548   1.678  0.3350 -0.2531  0.7716
 2791TIP3    H129788   3.330   4.456   1.704 -0.9513 -0.0008  1.1752
 2791TIP3    H229789   3.295   4.597   1.747  0.7205  0.6693  0.3697
 2792TIP3   OH229790   6.705   2.898   0.054 -0.6436  0.3107 -0.1995
 2792TIP3    H129791   6.716   2.965   0.121 -0.9698 -0.0157  0.1778
 2792TIP3    H229792   6.793   2.887   0.017 -0.2038 -0.4761  1.0857
 2793TIP3   OH229793   0.265   5.526   1.405  0.1595  0.5318  0.1420
 2793TIP3    H129794   0.319   5.605   1.399 -0.8883  1.3007  0.6022
 2793TIP3    H229795   0.321   5.461   1.445  1.2638  0.8404 -0.8723
 2794TIP3   OH229796   3.071   4.684   3.408 -0.1175 -0.3252  0.8354
 2794TIP3    H129797   3.145   4.739   3.382  0.1782 -0.5797  1.1362
 2794TIP3    H229798   3.019   4.740   3.466 -0.7053  0.1985 -0.1766
 2795TIP3   OH229799   2.495   5.977  17.057 -0.2455 -0.4411 -0.3384
 2795TIP3    H129800   2.512   5.952  17.148  0.3269 -1.3036 -0.6622
 2795TIP3    H229801   2.517   5.898  17.007 -1.5234 -0.2962 -1.1373
 2796TIP3   OH229802   2.904   3.640  15.009 -0.0930 -0.2471  0.6828
 2796TIP3    H129803   2.998   3.627  14.996 -0.3355 -1.8897  0.4387
 2796TIP3    H229804   2.880   3.574  15.073 -1.2470 -0.4038  0.0923
 2797TIP3   OH229805   2.207   2.368   1.479  0.0783 -0.0159 -0.7363
 2797TIP3    H129806   2.298   2.396   1.484 -0.5948  2.1055 -0.0690
 2797TIP3    H229807   2.192   2.353   1.385  0.6175  1.3427 -1.0517
 2798TIP3   OH229808   0.271   3.561   0.181  0.0148  0.7695 -0.3492
 2798TIP3    H129809   0.220   3.516   0.248  1.3241 -1.1864 -0.6320
 2798TIP3    H229810   0.217   3.553   0.101 -0.8046  1.7290  0.0895
 2799TIP3   OH229811   4.697   3.744  11.527  0.2795 -0.1582 -0.6575
 2799TIP3    H129812   4.756   3.669  11.527 -0.0537 -0.4243 -0.0095
 2799TIP3    H229813   4.640   3.730  11.603  0.6541  1.0930 -0.1196
 2800TIP3   OH229814   1.867   5.086  14.152 -0.5107  0.0253  0.5172
 2800TIP3    H129815   1.862   5.169  14.105  0.2702  0.7579  1.7107
 2800TIP3    H229816   1.849   5.108  14.243 -1.9833 -1.3814  0.6024
 2801TIP3   OH229817   1.385   6.525  14.332  0.2267 -0.3640  0.4342
 2801TIP3    H129818   1.342   6.556  14.412 -1.4786  0.3604 -0.7309
 2801TIP3    H229819   1.374   6.597  14.269  0.5264 -1.3900 -0.8198
 2802TIP3   OH229820   4.271   1.054   0.679 -0.2643 -0.9533  0.3000
 2802TIP3    H129821   4.312   1.019   0.758 -0.8260  0.0473  1.0322
 2802TIP3    H229822   4.178   1.039   0.692 -0.3912 -0.4008  0.0071
 2803TIP3   OH229823   5.433   4.087  15.583 -0.3099 -0.0758  0.5112
 2803TIP3    H129824   5.507   4.033  15.611  0.4803  0.2549 -0.8849
 2803TIP3    H229825   5.388   4.034  15.517 -0.4789  0.3105  0.3137
 2804TIP3   OH229826   6.314   2.119   3.951  0.1340  0.4044 -0.3748
 2804TIP3    H129827   6.329   2.212   3.932  0.4464  0.0514 -1.8700
 2804TIP3    H229828   6.267   2.120   4.034 -0.3174  1.9374 -0.6243
 2805TIP3   OH229829   3.273   4.108   5.206 -0.2157 -0.1946  0.5480
 2805TIP3    H129830   3.275   4.182   5.145  1.0206  1.5246  2.6319
 2805TIP3    H229831   3.240   4.145   5.288 -0.3954 -2.1591  1.3854
 2806TIP3   OH229832   4.539   4.834  12.572  0.2498 -0.1119 -0.4197
 2806TIP3    H129833   4.610   4.770  12.566  0.0462 -0.2079 -2.2073
 2806TIP3    H229834   4.463   4.784  12.601  0.0490 -0.7369 -1.9846
 2807TIP3   OH229835   1.843   5.703   4.618 -0.3059  0.4019 -0.0017
 2807TIP3    H129836   1.904   5.639   4.583 -0.0418  1.5762 -1.7688
 2807TIP3    H229837   1.879   5.788   4.591 -3.0605  1.0962 -1.7619
 2808TIP3   OH229838   5.173   2.384   3.689  0.0949  0.5182 -0.4668
 2808TIP3    H129839   5.134   2.466   3.719  0.2655  0.6379 -0.5746
 2808TIP3    H229840   5.227   2.409   3.615  0.1061  0.2994 -0.5315
 2809TIP3   OH229841   6.494   0.936   4.187  0.2933 -0.3247  0.2999
 2809TIP3    H129842   6.470   1.028   4.197 -0.9535 -0.6831  0.6423
 2809TIP3    H229843   6.551   0.918   4.261  0.4178  0.1212  0.3159
 2810TIP3   OH229844   2.448   6.584  12.641 -0.7584  0.3560 -0.4244
 2810TIP3    H129845   2.496   6.544  12.568  0.1698  0.2214  0.2586
 2810TIP3    H229846   2.487   6.671  12.651 -0.8199  0.3368 -0.0167
 2811TIP3   OH229847   3.465   3.865   1.451  0.2564 -0.1848 -0.4424
 2811TIP3    H129848   3.405   3.935   1.425  2.4405  1.4276 -1.2015
 2811TIP3    H229849   3.447   3.794   1.388 -0.5176  0.4579 -0.9553
 2812TIP3   OH229850   3.194   1.222  14.097 -0.6668  0.0523 -0.4511
 2812TIP3    H129851   3.137   1.150  14.125  0.4149 -0.6982 -0.1230
 2812TIP3    H229852   3.282   1.187  14.107 -0.0139  2.3117  2.0564
 2813TIP3   OH229853   0.340   4.341   4.661  0.3004  0.2112 -0.2471
 2813TIP3    H129854   0.430   4.323   4.633  1.6498 -0.1198  3.9367
 2813TIP3    H229855   0.290   4.264   4.632  1.4276  0.1443 -2.1339
 2814TIP3   OH229856   4.931   2.742  12.902  0.1366  0.2973 -0.2653
 2814TIP3    H129857   4.986   2.792  12.842  0.4167  1.2745  0.7695
 2814TIP3    H229858   4.927   2.796  12.981 -3.2503  0.7830 -0.7144
 2815TIP3   OH229859   1.225   1.411   4.849 -0.3783 -0.1343  0.3317
 2815TIP3    H129860   1.150   1.470   4.848  0.5262  1.0180  0.2708
 2815TIP3    H229861   1.236   1.389   4.942 -0.5839 -0.0452  0.3788
 2816TIP3   OH229862   0.542   2.300   1.780  0.0597  0.1654 -0.0544
 2816TIP3    H129863   0.610   2.244   1.818 -0.0995 -0.4887 -0.7156
 2816TIP3    H229864   0.542   2.277   1.687 -1.1929  0.0316 -0.0315
 2817TIP3   OH229865   2.543   0.571  15.851  0.1844 -0.2595 -0.3871
 2817TIP3    H129866   2.602   0.495  15.846 -1.7665 -1.9465  1.1450
 2817TIP3    H229867   2.586   0.631  15.912  0.7688 -1.0521 -0.0064
 2818TIP3   OH229868   6.677   6.052   0.831 -0.1012  0.4349  0.4475
 2818TIP3    H129869   6.749   5.990   0.835  0.0295  0.5601  0.0296
 2818TIP3    H229870   6.613   6.012   0.773 -0.6933 -0.0125  1.3939
 2819TIP3   OH229871   3.162   0.312   1.879 -0.4587  0.4314 -0.6611
 2819TIP3    H129872   3.249   0.276   1.862 -0.5794 -0.4646  0.5891
 2819TIP3    H229873   3.110   0.286   1.802  0.0446 -0.1270 -0.8152
 2820TIP3   OH229874   6.687   5.687   2.029 -0.3698 -0.0615  0.1379
 2820TIP3    H129875   6.711   5.695   2.121 -0.5235  1.1443  0.0885
 2820TIP3    H229876   6.762   5.722   1.981 -0.4416 -0.3366 -0.1739
 2821TIP3   OH229877   4.967   0.914  13.730  0.2280  0.4052  0.2614
 2821TIP3    H129878   4.940   0.823  13.746 -0.7231  0.0218 -3.1120
 2821TIP3    H229879   5.055   0.906  13.694  0.3250  0.8629  0.3956
 2822TIP3   OH229880   5.012   4.417  11.667 -0.1130 -0.4390 -0.1761
 2822TIP3    H129881   4.921   4.410  11.641 -0.8350  2.9667  1.1127
 2822TIP3    H229882   5.056   4.460  11.593 -0.0523 -0.0731  0.0656
 2823TIP3   OH229883   5.776   0.656  16.170  0.0322  0.4478 -0.5623
 2823TIP3    H129884   5.686   0.687  16.161 -0.8707 -2.6789 -3.0546
 2823TIP3    H229885   5.821   0.689  16.092 -0.4486 -2.6022 -2.2243
 2824TIP3   OH229886   5.787   6.000  15.196  0.2129  0.0210 -0.2607
 2824TIP3    H129887   5.835   6.017  15.277  0.1564  1.0264 -0.4283
 2824TIP3    H229888   5.709   6.055  15.202 -1.5105 -2.4150  0.4933
 2825TIP3   OH229889   3.897   0.779  14.645  0.4915  0.0628 -0.3102
 2825TIP3    H129890   3.949   0.811  14.572  0.2467 -1.8173 -1.3283
 2825TIP3    H229891   3.945   0.702  14.677  1.4316  1.7259  2.5297
 2826TIP3   OH229892   3.795   4.095  12.040 -0.5590  0.0813  0.1840
 2826TIP3    H129893   3.850   4.114  12.116  1.9366 -1.7856 -1.0868
 2826TIP3    H229894   3.825   4.156  11.972  0.2551 -1.2047 -0.6375
 2827TIP3   OH229895   6.378   4.009  11.015  0.0195 -0.2878 -0.4560
 2827TIP3    H129896   6.301   4.012  10.958  0.8514 -0.5724 -1.6108
 2827TIP3    H229897   6.449   4.046  10.961  1.2176 -2.2264 -0.2692
 2828TIP3   OH229898   1.142   0.372  11.259 -0.0027 -0.2260 -0.0502
 2828TIP3    H129899   1.051   0.358  11.285  0.3783 -1.1259  0.8837
 2828TIP3    H229900   1.138   0.389  11.165 -0.9792 -2.1504 -0.3955
 2829TIP3   OH229901   5.868   6.641  16.672  0.5075 -0.4668  1.1548
 2829TIP3    H129902   5.782   6.603  16.651 -0.7095  2.1272  1.2394
 2829TIP3    H229903   5.848   6.730  16.702  3.2994  0.4575  0.4367
 2830TIP3   OH229904   5.835   1.774  17.119  0.4879 -0.9211 -0.2347
 2830TIP3    H129905   5.865   1.859  17.150  0.7828 -1.2029  0.2478
 2830TIP3    H229906   5.903   1.745  17.058  1.0493 -1.4176  0.6239
 2831TIP3   OH229907   1.349   1.123  12.029  0.3352  0.0200 -0.7243
 2831TIP3    H129908   1.400   1.046  12.004  0.0974 -0.4673  0.2429
 2831TIP3    H229909   1.354   1.124  12.125 -2.2425 -0.6002 -0.5512
 2832TIP3   OH229910   3.229   2.641   0.655 -0.2754  0.9138  0.0777
 2832TIP3    H129911   3.268   2.570   0.604  0.3674 -0.0972  1.9584
 2832TIP3    H229912   3.304   2.693   0.685 -0.4244 -0.1162  2.3457
 2833TIP3   OH229913   3.570   4.417   2.475  0.2734  0.1526  0.1637
 2833TIP3    H129914   3.599   4.503   2.506 -0.6980 -0.2152  2.2014
 2833TIP3    H229915   3.651   4.368   2.460  0.9082  1.9791 -2.8146
 2834TIP3   OH229916   4.836   4.964   0.249 -0.0002  0.2975  0.5382
 2834TIP3    H129917   4.816   4.914   0.170  0.5259 -1.9894  1.8166
 2834TIP3    H229918   4.814   5.055   0.226 -0.7347 -0.4601 -1.9047
 2835TIP3   OH229919   6.646   1.249   5.833  0.3888  0.5851  0.0605
 2835TIP3    H129920   6.718   1.255   5.896  1.5102  2.0824 -1.2911
 2835TIP3    H229921   6.581   1.311   5.865  0.0266 -0.2051  0.8718
 2836TIP3   OH229922   4.720   6.350   0.053 -0.2294  0.7718  0.1375
 2836TIP3    H129923   4.800   6.394   0.022  1.9246 -2.2090  1.3021
 2836TIP3    H229924   4.680   6.314  -0.027 -0.3089  2.0369 -0.4131
 2837TIP3   OH229925   3.387   2.019  15.261  0.2538 -0.4434  0.3117
 2837TIP3    H129926   3.325   1.969  15.208  1.9577 -1.3648 -0.8675
 2837TIP3    H229927   3.461   1.960  15.273  0.8563  0.5984  1.7949
 2838TIP3   OH229928   5.997   6.292   1.936 -0.1043  0.1735 -0.2939
 2838TIP3    H129929   6.013   6.329   1.850 -2.8891  1.6043 -0.2695
 2838TIP3    H229930   5.966   6.203   1.919  0.9679 -0.1348 -0.6631
 2839TIP3   OH229931   6.561   6.053   3.514 -0.6112  0.0196  0.5019
 2839TIP3    H129932   6.615   5.976   3.523 -0.2717  0.1863 -0.0851
 2839TIP3    H229933   6.482   6.022   3.470 -0.3231  0.0740 -0.0546
 2840TIP3   OH229934   5.285   3.854  12.888  0.4411  0.6850  0.4791
 2840TIP3    H129935   5.217   3.907  12.848 -1.0363 -2.1803 -1.0174
 2840TIP3    H229936   5.247   3.824  12.971  1.0445  1.4860  1.0488
 2841TIP3   OH229937   5.588   4.643  14.454  0.1740 -0.3055  0.4794
 2841TIP3    H129938   5.641   4.575  14.496 -1.2128 -1.0043  1.1084
 2841TIP3    H229939   5.595   4.718  14.513 -0.3166 -0.7095  1.0536
 2842TIP3   OH229940   4.472   1.853  11.510  0.6124 -0.0970  0.3188
 2842TIP3    H129941   4.478   1.948  11.516 -2.4999  0.0577  2.3053
 2842TIP3    H229942   4.512   1.821  11.591  2.1646 -0.5560 -0.6016
 2843TIP3   OH229943   3.398   3.311   2.259 -0.8018  0.0563 -0.3385
 2843TIP3    H129944   3.409   3.383   2.197 -0.0811  1.3376  1.2392
 2843TIP3    H229945   3.313   3.328   2.300 -1.1599 -0.6488 -0.7723
 2844TIP3   OH229946   6.372   2.811   6.331 -0.3327 -0.1317 -0.0313
 2844TIP3    H129947   6.463   2.831   6.351 -0.7923  0.6478  1.3617
 2844TIP3    H229948   6.333   2.896   6.308 -1.4354  0.0764  2.4327
 2845TIP3   OH229949   3.003   6.313  17.112 -0.0901  0.1867  0.1221
 2845TIP3    H129950   3.056   6.267  17.047 -2.4208  0.7669 -2.2564
 2845TIP3    H229951   2.938   6.248  17.140  0.5666  0.1077  1.5431
 2846TIP3   OH229952   3.985   0.966   2.425 -0.3826 -0.5292  0.4389
 2846TIP3    H129953   3.911   0.978   2.484 -0.2093  0.3226  0.4978
 2846TIP3    H229954   3.997   1.052   2.384  0.5073 -0.6852  0.3547
 2847TIP3   OH229955   3.864   0.050  16.145 -0.1442 -0.0626 -0.4523
 2847TIP3    H129956   3.906   0.129  16.110  0.0690  0.5853  1.1655
 2847TIP3    H229957   3.922   0.022  16.216  0.3207 -2.2999 -1.6737
 2848TIP3   OH229958   3.555   5.590   1.219 -0.4325  0.6453  0.8492
 2848TIP3    H129959   3.607   5.510   1.214 -0.8099  0.5531 -1.9632
 2848TIP3    H229960   3.470   5.562   1.252 -1.4144 -0.5791 -2.5640
 2849TIP3   OH229961   2.761   1.978   3.028 -0.4804 -0.2545 -0.0280
 2849TIP3    H129962   2.772   1.886   3.053  2.0187 -0.2388 -0.8885
 2849TIP3    H229963   2.845   2.002   2.990 -0.3145  3.0482  2.2273
 2850TIP3   OH229964   3.329   0.422  16.590  0.0982 -0.5153  0.2173
 2850TIP3    H129965   3.238   0.439  16.614 -0.0185  1.2417 -1.3231
 2850TIP3    H229966   3.335   0.452  16.499  2.0026 -1.4231  0.0278
 2851TIP3   OH229967   5.097   5.647  12.175 -0.0004  0.2665 -0.0657
 2851TIP3    H129968   5.067   5.721  12.123  1.9158  0.2246 -1.2867
 2851TIP3    H229969   5.018   5.599  12.197 -1.3092  2.8958  1.1167
 2852TIP3   OH229970   5.039   4.260   5.961 -0.8723  0.4598  0.0126
 2852TIP3    H129971   5.113   4.285   6.018 -0.6273  0.6921 -0.4010
 2852TIP3    H229972   4.997   4.187   6.007 -0.1922  0.1167  0.0972
 2853TIP3   OH229973   5.932   1.708   5.681  0.0404 -0.0404  0.0710
 2853TIP3    H129974   5.944   1.746   5.594  1.6472  1.9822  1.1076
 2853TIP3    H229975   5.844   1.735   5.707 -0.7713 -1.3623 -1.2309
 2854TIP3   OH229976   0.504   4.572   6.454  0.6187 -0.0501 -0.2413
 2854TIP3    H129977   0.474   4.551   6.366  0.5145  0.0392 -0.2274
 2854TIP3    H229978   0.440   4.636   6.486  1.1836  0.6168 -0.4492
 2855TIP3   OH229979   1.727   4.938  15.439 -0.6269  0.6050  0.2466
 2855TIP3    H129980   1.773   4.868  15.392 -0.9663  1.2458 -1.0619
 2855TIP3    H229981   1.786   4.961  15.511 -0.2133 -0.5649  0.2927
 2856TIP3   OH229982   3.257   6.039  12.452  0.2548 -0.2031  0.2298
 2856TIP3    H129983   3.281   6.103  12.385  0.0758  2.0893  2.2768
 2856TIP3    H229984   3.187   6.082  12.502 -0.3032 -2.2636  1.2478
 2857TIP3   OH229985   2.355   5.362   1.628  0.2259  0.1145  0.2519
 2857TIP3    H129986   2.372   5.444   1.673 -1.0500  1.0980 -1.0025
 2857TIP3    H229987   2.284   5.382   1.567 -0.3293 -1.9982  0.1506
 2858TIP3   OH229988   4.161   1.388   0.298  0.7409  0.0241 -0.8044
 2858TIP3    H129989   4.147   1.353   0.210 -1.1262  1.4712 -1.1177
 2858TIP3    H229990   4.101   1.338   0.354 -0.9477  1.6972 -1.0370
 2859TIP3   OH229991   0.098   5.955  13.591  0.1862  0.3666 -0.6223
 2859TIP3    H129992   0.126   5.902  13.666 -1.2441 -0.3980 -0.6089
 2859TIP3    H229993   0.126   5.904  13.515 -1.6106 -0.6866 -0.6133
 2860TIP3   OH229994   2.696   1.128  14.473  0.0720 -0.3901 -0.0216
 2860TIP3    H129995   2.615   1.153  14.427 -0.8377 -1.7554  0.7857
 2860TIP3    H229996   2.665   1.088  14.554  1.5397 -2.0149 -0.2472
 2861TIP3   OH229997   5.878   4.977   1.331 -0.2990 -0.7835  0.0170
 2861TIP3    H129998   5.807   4.969   1.267 -1.7043  0.1697  1.4251
 2861TIP3    H229999   5.852   4.918   1.402  0.3604 -0.4697  0.5172
 2862TIP3   OH230000   5.841   3.676   4.126  0.4371  0.0549 -0.2732
 2862TIP3    H130001   5.805   3.592   4.098  2.5432 -0.9393 -0.0645
 2862TIP3    H230002   5.933   3.673   4.100  1.1095  1.3526  1.8242
 2863TIP3   OH230003   4.883   1.514  11.542 -0.3168  0.6318 -0.2091
 2863TIP3    H130004   4.843   1.507  11.455  0.2373  0.9431 -0.4926
 2863TIP3    H230005   4.871   1.605  11.567 -2.9260 -0.0571  1.2512
 2864TIP3   OH230006   5.923   3.654   5.123  0.1445 -0.4057  0.2945
 2864TIP3    H130007   5.850   3.606   5.163 -0.5830  0.4446  0.0076
 2864TIP3    H230008   5.937   3.729   5.180 -0.6839  0.6363 -0.8457
 2865TIP3   OH230009   1.465   1.747  11.887  0.1778 -0.1628 -0.1196
 2865TIP3    H130010   1.402   1.760  11.958 -1.7446 -1.3777 -1.5517
 2865TIP3    H230011   1.550   1.761  11.928 -0.9869  1.1163  1.9588
 2866TIP3   OH230012   3.580   3.570   1.514 -0.4762  0.2336 -0.0708
 2866TIP3    H130013   3.495   3.579   1.470 -0.6942  2.4776  0.7259
 2866TIP3    H230014   3.571   3.622   1.594  1.8720  1.1010 -0.3210
 2867TIP3   OH230015   0.253   0.200   1.775  0.2743  0.0076  0.1030
 2867TIP3    H130016   0.263   0.293   1.793  1.1230  0.2720 -1.6351
 2867TIP3    H230017   0.221   0.196   1.685 -1.1561 -1.3454  0.6412
 2868TIP3   OH230018   6.406   4.047   5.807 -0.3623 -0.2792 -0.4003
 2868TIP3    H130019   6.445   4.051   5.894  0.4864  4.4772 -0.8507
 2868TIP3    H230020   6.478   4.021   5.749  0.5690  2.1509 -0.3782
 2869TIP3   OH230021   4.412   1.593   4.124 -0.3065 -0.0110 -0.2348
 2869TIP3    H130022   4.445   1.683   4.130 -0.1809 -0.0902  0.3212
 2869TIP3    H230023   4.332   1.600   4.072  0.2082  0.2858 -0.9919
 2870TIP3   OH230024   5.086   2.754  16.189 -0.1953 -0.0186  0.4714
 2870TIP3    H130025   5.007   2.723  16.233  0.4078  0.2306  1.7766
 2870TIP3    H230026   5.158   2.718  16.242  0.5558 -0.2587 -0.7107
 2871TIP3   OH230027   5.006   1.451   5.890  0.3790 -0.6199  0.0361
 2871TIP3    H130028   5.068   1.485   5.955 -0.0456 -1.7571  1.0510
 2871TIP3    H230029   4.927   1.504   5.903 -0.2784 -1.9296  1.6096
 2872TIP3   OH230030   3.143   4.658  12.801 -0.1784 -0.5106  0.2856
 2872TIP3    H130031   3.065   4.670  12.855 -0.3706  0.7173 -0.2428
 2872TIP3    H230032   3.215   4.650  12.863 -0.3261  1.3600  0.7352
 2873TIP3   OH230033   6.530   1.108   4.548 -0.2053 -0.1628 -0.6270
 2873TIP3    H130034   6.581   1.161   4.610 -1.3819  0.1288  0.1011
 2873TIP3    H230035   6.505   1.031   4.599 -1.0201 -0.0095 -0.7949
 2874TIP3   OH230036   0.665   5.759   5.032 -0.6709 -0.1565 -0.4048
 2874TIP3    H130037   0.682   5.665   5.031 -0.5793 -0.1508  0.6128
 2874TIP3    H230038   0.732   5.795   5.090 -1.2080  0.4428 -0.1503
 2875TIP3   OH230039   1.446   5.159   4.972  0.0009  0.1135  0.4033
 2875TIP3    H130040   1.539   5.156   4.997 -0.1172 -1.0800  0.7215
 2875TIP3    H230041   1.443   5.220   4.898  1.1385 -0.3236 -0.0105
 2876TIP3   OH230042   1.492   5.480   5.573  0.0673 -0.3795 -0.3335
 2876TIP3    H130043   1.467   5.500   5.663  0.6577  0.0698 -0.2660
 2876TIP3    H230044   1.461   5.391   5.558  0.8402 -0.8163  0.6367
 2877TIP3   OH230045   4.045   0.545   0.425 -0.2146 -0.3062  0.2005
 2877TIP3    H130046   4.010   0.530   0.338  2.4538  0.6942 -1.1109
 2877TIP3    H230047   4.077   0.635   0.424  3.4431 -1.5005  0.8439
 2878TIP3   OH230048   3.662   6.616   3.370 -0.0334  0.2725 -0.4160
 2878TIP3    H130049   3.602   6.614   3.445  0.2863 -0.0828 -0.1705
 2878TIP3    H230050   3.743   6.651   3.405  0.0252  0.3887 -0.6661
 2879TIP3   OH230051   4.651   2.306   3.568  0.7559 -0.2010  0.1882
 2879TIP3    H130052   4.599   2.344   3.497  0.0006 -0.9556  0.3301
 2879TIP3    H230053   4.663   2.377   3.631  2.1452  0.7227 -1.0782
 2880TIP3   OH230054   0.003   0.426   2.815  0.0684  1.0621 -0.4796
 2880TIP3    H130055  -0.002   0.509   2.768 -2.4438  0.7881 -0.7763
 2880TIP3    H230056   0.010   0.450   2.907 -1.2041  1.6237 -0.5189
 2881TIP3   OH230057   5.477   5.208  10.822 -0.2107  0.2271  0.5005
 2881TIP3    H130058   5.395   5.183  10.781  0.7774 -1.3947 -0.5311
 2881TIP3    H230059   5.451   5.257  10.900 -2.1697 -1.9242  1.2385
 2882TIP3   OH230060   0.886   1.364  11.597  0.1467  0.4493  0.1785
 2882TIP3    H130061   0.849   1.423  11.532 -0.9164 -0.8746 -0.4454
 2882TIP3    H230062   0.969   1.404  11.622  0.6919  0.8348 -2.1801
 2883TIP3   OH230063   6.446   5.954   3.086  0.5671  0.1048  0.2232
 2883TIP3    H130064   6.457   6.049   3.094 -2.0752  0.4064  0.8127
 2883TIP3    H230065   6.362   5.936   3.128 -1.0107 -1.9051 -3.4819
 2884TIP3   OH230066   4.818   1.938  16.811 -0.5057 -0.3133 -0.3710
 2884TIP3    H130067   4.839   1.920  16.902 -3.6126  1.5583  0.7643
 2884TIP3    H230068   4.779   1.857  16.778 -0.6771 -0.5222  0.3580
 2885TIP3   OH230069   5.750   6.523   4.037 -0.5674  0.8015  0.0798
 2885TIP3    H130070   5.668   6.483   4.065  0.2016  0.1142  1.3967
 2885TIP3    H230071   5.725   6.612   4.012 -2.2127 -0.3013 -2.4465
 2886TIP3   OH230072   4.449   5.216  14.363 -0.0518 -0.0885  0.2820
 2886TIP3    H130073   4.461   5.214  14.458  1.5663  2.2030  0.1757
 2886TIP3    H230074   4.486   5.133  14.332  0.1027 -0.5173  1.6002
 2887TIP3   OH230075   0.360   2.634   3.869 -0.0572 -0.3429  0.5368
 2887TIP3    H130076   0.401   2.690   3.935 -0.4750 -0.5679  0.9951
 2887TIP3    H230077   0.355   2.688   3.791 -0.8457  0.4020  1.1034
 2888TIP3   OH230078   4.425   5.319  15.711  0.9443 -0.0108 -0.0099
 2888TIP3    H130079   4.403   5.412  15.703  1.4738 -0.0436 -2.3987
 2888TIP3    H230080   4.342   5.274  15.701  0.5135  0.2301  2.3406
 2889TIP3   OH230081   4.732   3.108   2.822  0.1659  0.4811  0.6096
 2889TIP3    H130082   4.640   3.099   2.849  0.0720 -2.2733 -0.4569
 2889TIP3    H230083   4.727   3.120   2.727  0.9351 -1.4350  0.2957
 2890TIP3   OH230084   4.038   2.299   2.844 -0.3416 -0.1650 -0.1584
 2890TIP3    H130085   3.999   2.377   2.805  0.4253  1.2769  1.8767
 2890TIP3    H230086   4.132   2.318   2.846 -0.4232  0.1446  3.0481
 2891TIP3   OH230087   4.160   6.143   1.728 -0.4379 -0.3313  0.4418
 2891TIP3    H130088   4.242   6.138   1.678 -1.2932 -0.7251 -0.9790
 2891TIP3    H230089   4.185   6.177   1.813  1.1636 -0.1631 -0.0808
 2892TIP3   OH230090   2.621   3.636   1.641  0.2406 -0.5486  0.9351
 2892TIP3    H130091   2.618   3.728   1.615 -2.5329 -0.6829  0.6432
 2892TIP3    H230092   2.614   3.588   1.558 -1.4932 -0.9891  1.3200
 2893TIP3   OH230093   5.117   4.025   0.509  0.1278 -0.4746 -0.3799
 2893TIP3    H130094   5.061   3.957   0.471  0.5057  0.0364 -1.8822
 2893TIP3    H230095   5.056   4.089   0.547 -0.2576 -0.8611 -0.3451
 2894TIP3   OH230096   0.005   3.113  16.357  0.5784  1.2287 -0.0966
 2894TIP3    H130097  -0.014   3.201  16.391 -0.1551  1.1049 -0.1788
 2894TIP3    H230098  -0.075   3.064  16.373 -0.3478  1.5650 -3.3330
 2895TIP3   OH230099   6.496   0.499   1.450 -0.0047 -0.1504 -0.3510
 2895TIP3    H130100   6.401   0.487   1.449 -0.2322  1.6523 -1.0325
 2895TIP3    H230101   6.509   0.593   1.442  1.8710 -0.5341 -2.3413
 2896TIP3   OH230102   2.204   5.678  12.161 -0.2682 -1.2905  0.2201
 2896TIP3    H130103   2.245   5.763  12.142  1.4233 -2.2843 -0.6657
 2896TIP3    H230104   2.114   5.700  12.184 -0.0551  0.7043 -0.7228
 2897TIP3   OH230105   5.850   6.388   0.756 -0.6394  0.3570  0.7707
 2897TIP3    H130106   5.784   6.457   0.756 -0.9508  0.1061 -1.7447
 2897TIP3    H230107   5.827   6.332   0.682  0.9930 -1.1136  1.3244
 2898TIP3   OH230108   2.135   3.999   3.728  0.7347  0.5689 -0.0142
 2898TIP3    H130109   2.048   3.963   3.747  0.4881  0.5600 -1.0844
 2898TIP3    H230110   2.126   4.037   3.640  1.1702  2.6174  0.7878
 2899TIP3   OH230111   0.028   3.483  10.886 -0.3426 -0.3094 -0.4935
 2899TIP3    H130112   0.050   3.482  10.793  2.1849  0.9475  0.0309
 2899TIP3    H230113   0.053   3.397  10.918 -0.7459 -0.5706 -0.8825
 2900TIP3   OH230114   0.880   2.075  17.073 -0.1415  0.2490 -0.4855
 2900TIP3    H130115   0.966   2.033  17.066  0.0124  0.6300 -0.9338
 2900TIP3    H230116   0.899   2.169  17.072 -0.3324  0.3633  2.3778
 2901TIP3   OH230117   4.127   3.365   4.212  0.3781  0.2156 -0.1887
 2901TIP3    H130118   4.084   3.286   4.179 -0.4638  0.2402  0.8322
 2901TIP3    H230119   4.117   3.359   4.308  0.7917  1.2862 -0.0779
 2902TIP3   OH230120   4.252   2.776   0.423 -0.2762 -0.3362 -0.2203
 2902TIP3    H130121   4.158   2.782   0.411 -0.3164 -0.6770 -0.0985
 2902TIP3    H230122   4.263   2.710   0.492 -0.0055  0.8788  0.9164
 2903TIP3   OH230123   2.444   3.265  15.277 -0.1014 -0.5611 -0.3134
 2903TIP3    H130124   2.526   3.246  15.232  0.5229 -1.5125  1.1848
 2903TIP3    H230125   2.376   3.224  15.222  0.3837  0.3295 -1.6126
 2904TIP3   OH230126   2.504   1.267   3.951  0.4951 -0.7234  0.5688
 2904TIP3    H130127   2.448   1.227   3.884 -1.4079  0.6954  1.2590
 2904TIP3    H230128   2.486   1.216   4.030  1.4286 -1.2937  0.4210
 2905TIP3   OH230129   6.355   6.475   0.173 -0.0741  0.3808  0.1633
 2905TIP3    H130130   6.324   6.386   0.159 -0.3890  0.7735 -1.7763
 2905TIP3    H230131   6.283   6.520   0.217  0.0372 -0.2783  1.0235
 2906TIP3   OH230132   3.400   0.070  12.152 -0.5802  0.4054  0.0612
 2906TIP3    H130133   3.417   0.130  12.224 -0.4854 -1.4205  1.5859
 2906TIP3    H230134   3.406  -0.017  12.190  1.0130 -0.6666 -2.4804
 2907TIP3   OH230135   0.706   2.872   4.800  0.0709  0.0627 -0.2634
 2907TIP3    H130136   0.759   2.916   4.733 -0.2515  1.8486  0.6157
 2907TIP3    H230137   0.620   2.861   4.760  0.4459 -0.7472 -0.8647
 2908TIP3   OH230138   3.169   1.321   3.185 -0.2934  0.0144 -0.0427
 2908TIP3    H130139   3.246   1.352   3.138 -0.6674 -0.8737 -1.2569
 2908TIP3    H230140   3.104   1.390   3.174 -0.9663 -0.9385 -2.3390
 2909TIP3   OH230141   1.948   2.115  11.194 -0.1378  0.3586  0.8053
 2909TIP3    H130142   1.903   2.083  11.116 -1.3702 -0.6105  1.8993
 2909TIP3    H230143   1.924   2.053  11.263  1.8533  0.5552  1.7014
 2910TIP3   OH230144   0.167   4.102   5.327 -0.4069  0.5332 -0.0991
 2910TIP3    H130145   0.223   4.154   5.385  1.6126  0.2595 -1.7424
 2910TIP3    H230146   0.123   4.041   5.386 -0.4408  2.0180  1.4741
 2911TIP3   OH230147   4.801   4.635   4.786 -0.3022 -1.0125 -0.4388
 2911TIP3    H130148   4.746   4.634   4.864  2.4563  1.0981  1.6781
 2911TIP3    H230149   4.874   4.576   4.807  1.6116  1.2712 -0.4659
 2912TIP3   OH230150   6.314   5.058  11.577  0.1335  0.0613 -0.1254
 2912TIP3    H130151   6.287   4.998  11.508  0.6424 -0.0558 -0.2272
 2912TIP3    H230152   6.319   5.003  11.656  1.5920 -0.2678 -0.4197
 2913TIP3   OH230153   4.021   5.465  14.745  0.4828  0.4186  0.4211
 2913TIP3    H130154   4.083   5.485  14.675  0.6295  2.0566  1.0108
 2913TIP3    H230155   3.935   5.486  14.708  0.1351 -2.6415 -0.6951
 2914TIP3   OH230156   2.474   0.836  16.062  0.0458  0.6529  0.2148
 2914TIP3    H130157   2.497   0.882  15.981 -0.0853 -1.0347 -0.8009
 2914TIP3    H230158   2.558   0.806  16.097 -0.0247  0.1192 -0.0692
 2915TIP3   OH230159   6.758   3.246   1.803  0.2067 -0.3079 -0.3825
 2915TIP3    H130160   6.838   3.284   1.768 -0.3898  0.1612 -1.2463
 2915TIP3    H230161   6.689   3.275   1.743 -0.4762 -1.4798 -0.1825
 2916TIP3   OH230162   5.976   4.120   2.466  0.5512 -0.1274 -0.0619
 2916TIP3    H130163   6.027   4.051   2.508  0.9379  0.4445  0.3963
 2916TIP3    H230164   5.987   4.103   2.372 -0.2328 -1.3368  0.0480
 2917TIP3   OH230165   5.567   2.276  15.959  0.3634  0.7397 -1.0003
 2917TIP3    H130166   5.626   2.244  15.891  0.2074  1.8262 -1.6456
 2917TIP3    H230167   5.532   2.358  15.925 -0.7430  0.6220 -0.1811
 2918TIP3   OH230168   4.233   6.715  13.721 -0.7680 -0.1654 -0.6562
 2918TIP3    H130169   4.321   6.678  13.707 -0.5676 -0.1093  0.3975
 2918TIP3    H230170   4.189   6.705  13.637 -0.2819 -1.6463 -0.7524
 2919TIP3   OH230171   1.332   2.282  16.087 -0.3545  0.0682 -0.2139
 2919TIP3    H130172   1.272   2.337  16.036  0.2791  0.2593 -0.7601
 2919TIP3    H230173   1.361   2.215  16.025 -2.6842 -2.0962  1.0024
 2920TIP3   OH230174   1.371   6.784   4.620 -0.7663 -0.2042  0.2743
 2920TIP3    H130175   1.278   6.774   4.639 -0.6908 -1.0197  0.2466
 2920TIP3    H230176   1.415   6.748   4.698 -0.4720  0.4246  0.4065
 2921TIP3   OH230177   5.099   2.934   4.509  0.2668 -0.2122 -0.2726
 2921TIP3    H130178   5.043   2.883   4.568 -0.9474 -0.7309 -1.8450
 2921TIP3    H230179   5.112   3.017   4.555  0.3789 -1.0793  1.2908
 2922TIP3   OH230180   5.243   3.232  14.463 -0.1178 -0.2258  0.0928
 2922TIP3    H130181   5.166   3.280  14.495 -0.8189  0.2740 -2.2352
 2922TIP3    H230182   5.299   3.224  14.539 -1.7565  0.8577  1.4604
 2923TIP3   OH230183   5.272   3.403   3.581  0.2647  0.2002  0.1842
 2923TIP3    H130184   5.321   3.324   3.602  2.2667  2.2720  3.7151
 2923TIP3    H230185   5.188   3.392   3.625 -0.2326 -0.7465 -0.9531
 2924TIP3   OH230186   3.211   3.902   0.157  0.4020  0.3073  0.1775
 2924TIP3    H130187   3.201   3.932   0.248 -0.4032 -0.6193  0.4126
 2924TIP3    H230188   3.121   3.881   0.129  0.8326 -1.0716 -0.2374
 2925TIP3   OH230189   5.575   5.973   5.286 -1.0807 -0.9534  0.0459
 2925TIP3    H130190   5.515   5.957   5.359 -0.1798 -1.6589  0.6317
 2925TIP3    H230191   5.521   6.020   5.221 -1.5200  0.8835  1.7022
 2926TIP3   OH230192   2.121   2.898   4.816 -0.1244  0.3097 -0.5653
 2926TIP3    H130193   2.179   2.968   4.786 -0.0101 -0.2396 -1.6403
 2926TIP3    H230194   2.085   2.931   4.898 -0.1401  1.6724 -1.1062
 2927TIP3   OH230195   1.912   4.999   5.102  0.2286  0.0010 -0.1318
 2927TIP3    H130196   1.933   4.971   5.191  0.1510  1.0619  0.2236
 2927TIP3    H230197   1.818   5.019   5.105 -0.1414 -1.5873 -0.8814
 2928TIP3   OH230198   6.344   0.588  17.224 -0.2614  0.1070  0.0632
 2928TIP3    H130199   6.336   0.512  17.166 -0.6080 -0.1417  0.4305
 2928TIP3    H230200   6.430   0.624  17.205  0.0142 -0.5387  0.0725
 2929TIP3   OH230201   1.499   4.213   2.069 -0.0967  0.2804 -0.8557
 2929TIP3    H130202   1.408   4.223   2.041 -0.5774 -0.6245  0.3591
 2929TIP3    H230203   1.494   4.169   2.154  1.3944  1.8609  0.0941
 2930TIP3   OH230204   2.029   5.945  16.876  0.8899 -0.5563  1.0705
 2930TIP3    H130205   1.957   5.973  16.931 -1.4662 -1.3721 -1.4770
 2930TIP3    H230206   1.991   5.878  16.819  3.1043  0.4485 -1.7196
 2931TIP3   OH230207   0.851   0.300   1.221  0.0600  0.3173  0.2594
 2931TIP3    H130208   0.769   0.340   1.249  0.2872  1.3620 -0.5293
 2931TIP3    H230209   0.918   0.347   1.270  0.1938 -0.6114  0.9873
 2932TIP3   OH230210   1.464   3.221   1.147 -0.4930  0.0010  0.2743
 2932TIP3    H130211   1.420   3.138   1.127 -1.3493  0.8946 -1.6762
 2932TIP3    H230212   1.413   3.259   1.218 -1.6135  0.0373 -0.5471
 2933TIP3   OH230213   2.669   2.128   1.497 -0.0956 -0.6690  0.2653
 2933TIP3    H130214   2.738   2.166   1.551  1.0589  0.3821 -1.8770
 2933TIP3    H230215   2.713   2.103   1.415 -1.9961 -1.1601 -0.6484
 2934TIP3   OH230216   6.672   6.246  16.198  0.3048 -0.5200  0.1166
 2934TIP3    H130217   6.727   6.173  16.228 -1.2292 -1.1199  1.5307
 2934TIP3    H230218   6.649   6.223  16.108 -0.5629 -2.0526  0.7032
 2935TIP3   OH230219   0.553   2.586  14.080 -0.0785 -0.2471  0.5236
 2935TIP3    H130220   0.645   2.574  14.057  0.2520  2.4343  0.2943
 2935TIP3    H230221   0.553   2.655  14.147 -2.0026  0.8938 -0.5773
 2936TIP3   OH230222   6.002   1.420   1.628 -0.4413  0.0380 -0.4311
 2936TIP3    H130223   5.959   1.403   1.545  0.6094  1.4073 -1.2661
 2936TIP3    H230224   6.079   1.364   1.627 -1.8638 -2.0259  0.8436
 2937TIP3   OH230225   1.642   5.489  11.963  0.4239 -0.6376  0.2451
 2937TIP3    H130226   1.683   5.532  12.038 -1.0348  2.3385 -0.5888
 2937TIP3    H230227   1.548   5.499  11.978  0.1012 -0.6890 -1.6174
 2938TIP3   OH230228   4.390   6.782   3.601  0.0687  0.0078 -0.8905
 2938TIP3    H130229   4.442   6.723   3.546  1.2241  0.1897 -0.0243
 2938TIP3    H230230   4.453   6.847   3.632  0.0698 -1.6735  2.8783
 2939TIP3   OH230231   2.829   2.864  16.955  0.6237  0.1610  0.2678
 2939TIP3    H130232   2.832   2.845  17.049  0.5344  2.2282  0.7121
 2939TIP3    H230233   2.823   2.778  16.913  2.0107 -0.8480  2.0931
 2940TIP3   OH230234   2.528   1.345   4.997 -0.6128  0.0070 -0.3446
 2940TIP3    H130235   2.563   1.430   5.025 -3.4632  1.4756 -0.9777
 2940TIP3    H230236   2.578   1.323   4.919 -0.5649  1.6590 -0.7919
 2941TIP3   OH230237   2.994   5.299   4.856  0.1944 -0.0277 -0.4731
 2941TIP3    H130238   3.076   5.260   4.823  0.9497  0.3076  0.9610
 2941TIP3    H230239   2.971   5.364   4.790  1.6246  0.5550 -0.4252
 2942TIP3   OH230240   6.761   3.963  12.219  0.1460 -0.3694 -0.2491
 2942TIP3    H130241   6.711   4.016  12.281  1.0607 -0.0611  0.2261
 2942TIP3    H230242   6.810   3.902  12.274 -0.2831 -1.1703 -0.7547
 2943TIP3   OH230243   3.663   2.515   0.764 -0.1364  0.8010 -0.8247
 2943TIP3    H130244   3.572   2.492   0.745 -0.4115  0.7723  0.4636
 2943TIP3    H230245   3.698   2.438   0.809  0.1630  1.2809 -0.2264
 2944TIP3   OH230246   0.969   3.104  13.047  0.1433 -0.0734 -1.0140
 2944TIP3    H130247   1.048   3.120  13.098 -0.3285 -0.1544 -0.2517
 2944TIP3    H230248   1.000   3.062  12.967  1.0603  1.6283 -1.5747
 2945TIP3   OH230249   5.818   2.218   2.667 -0.4311  0.7618  0.3954
 2945TIP3    H130250   5.862   2.195   2.585  1.3081  1.1492  1.1804
 2945TIP3    H230251   5.747   2.154   2.675 -0.4962  0.5992 -1.3008
 2946TIP3   OH230252   4.695   4.209   2.804 -0.0127  0.3333  0.5692
 2946TIP3    H130253   4.640   4.193   2.881 -0.8536  0.8198  0.0848
 2946TIP3    H230254   4.643   4.174   2.731  0.4362  0.5819  0.1317
 2947TIP3   OH230255   5.850   4.470   5.706  0.0543 -0.0313  0.0324
 2947TIP3    H130256   5.942   4.493   5.719 -0.5370  1.8179  1.2489
 2947TIP3    H230257   5.813   4.545   5.659 -0.3643 -1.7428 -2.4772
 2948TIP3   OH230258   6.725   5.417  11.060  0.4868  0.1612  0.0544
 2948TIP3    H130259   6.817   5.390  11.053  1.4208  2.8809  1.0939
 2948TIP3    H230260   6.707   5.463  10.978  0.2322  0.1209  0.0876
 2949TIP3   OH230261   6.215   3.833   6.152  0.6226 -0.1126  0.6533
 2949TIP3    H130262   6.304   3.829   6.116  0.7864 -0.0549  1.0493
 2949TIP3    H230263   6.221   3.789   6.237  0.3391  0.1561  0.8141
 2950TIP3   OH230264   0.563   0.348  14.876 -0.4615  0.1390  0.2844
 2950TIP3    H130265   0.485   0.296  14.856  0.9772 -1.3549 -1.6169
 2950TIP3    H230266   0.636   0.292  14.851  1.1714  2.6057 -0.6607
 2951TIP3   OH230267   4.363   6.449  13.661  0.1519 -0.0357 -0.4935
 2951TIP3    H130268   4.412   6.387  13.606  0.2244 -0.7163  0.3324
 2951TIP3    H230269   4.387   6.426  13.751 -1.8244 -0.4943 -0.0640
 2952TIP3   OH230270   0.714   4.176   1.145 -0.4373 -0.5224  0.0278
 2952TIP3    H130271   0.750   4.103   1.196 -2.3403 -0.6240  1.3043
 2952TIP3    H230272   0.769   4.251   1.169  1.9221 -1.6231 -1.7719
 2953TIP3   OH230273   1.074   0.456  12.144  0.0297 -0.0205  0.5716
 2953TIP3    H130274   1.081   0.400  12.066  0.8359  0.2509  0.4448
 2953TIP3    H230275   1.019   0.529  12.117  0.5280  0.2092  0.1763
 2954TIP3   OH230276   0.996   0.104   2.278 -0.1954  1.0370 -0.1145
 2954TIP3    H130277   1.032   0.023   2.242  0.9110  1.9356 -1.0807
 2954TIP3    H230278   1.045   0.118   2.359  1.5999  2.1582 -1.3303
 2955TIP3   OH230279   5.209   4.293   6.162  0.0233 -0.0620  0.7116
 2955TIP3    H130280   5.285   4.269   6.215  0.6423  2.4443  1.0115
 2955TIP3    H230281   5.209   4.388   6.162 -0.6299 -0.0141 -2.8735
 2956TIP3   OH230282   3.096   1.693   1.976 -0.0104  0.2896 -0.6392
 2956TIP3    H130283   3.023   1.633   1.989 -0.9789  1.9385  2.0885
 2956TIP3    H230284   3.171   1.648   2.014 -0.5828  0.4473  0.7240
 2957TIP3   OH230285   3.559   0.723  15.142  0.1266 -0.3817  0.4632
 2957TIP3    H130286   3.602   0.735  15.058 -1.9733 -1.1327 -0.7440
 2957TIP3    H230287   3.630   0.705  15.203  1.4404 -2.5553 -1.6509
 2958TIP3   OH230288   3.860   5.847  17.066 -0.0993  0.4742  0.6946
 2958TIP3    H130289   3.891   5.824  16.978  1.0143 -2.2093  1.7382
 2958TIP3    H230290   3.771   5.880  17.052  0.1735  0.3715 -1.4605
 2959TIP3   OH230291   2.906   4.776  11.371 -0.3451  0.3794 -0.0263
 2959TIP3    H130292   2.832   4.833  11.393 -0.3333  0.0573  0.8669
 2959TIP3    H230293   2.950   4.821  11.298 -0.1024  1.7232  0.9154
 2960TIP3   OH230294   4.803   0.919   4.300  0.4862  0.0928 -0.0111
 2960TIP3    H130295   4.814   0.962   4.384 -2.5145  0.1515  0.3831
 2960TIP3    H230296   4.731   0.965   4.258  0.4611 -1.3948 -1.6685
 2961TIP3   OH230297   3.731   1.477  13.960 -0.6383 -0.0134 -0.0899
 2961TIP3    H130298   3.807   1.454  14.013  0.6869  0.0575 -1.9142
 2961TIP3    H230299   3.670   1.518  14.022  1.0860  0.5656  1.2626
 2962TIP3   OH230300   2.434   3.146  16.717  0.1473  0.3310  0.3276
 2962TIP3    H130301   2.389   3.171  16.798 -0.2190  0.6072  0.0458
 2962TIP3    H230302   2.527   3.147  16.739  0.0580  0.6038  0.6913
 2963TIP3   OH230303   2.755   1.488  10.615 -0.6589 -0.5875 -0.1171
 2963TIP3    H130304   2.743   1.567  10.561  0.6783 -0.5316 -0.3474
 2963TIP3    H230305   2.712   1.419  10.565  0.7354 -0.5722 -1.3643
 2964TIP3   OH230306   3.501   4.796   2.415  0.0469  0.2111 -0.3623
 2964TIP3    H130307   3.524   4.775   2.505 -0.8345 -0.9891 -0.4011
 2964TIP3    H230308   3.406   4.807   2.416  0.1555  1.3250 -0.9356
 2965TIP3   OH230309   5.748   1.307   5.341 -0.4486  0.3471 -0.6570
 2965TIP3    H130310   5.795   1.332   5.421  0.4154 -1.4606 -0.5691
 2965TIP3    H230311   5.722   1.390   5.302  1.0243  1.3301  0.3820
 2966TIP3   OH230312   1.137   6.226   1.242  0.1936 -0.5131  0.0227
 2966TIP3    H130313   1.195   6.197   1.313 -0.2578 -1.2299  0.1106
 2966TIP3    H230314   1.195   6.268   1.179  0.8342 -1.3246  0.0605
 2967TIP3   OH230315   2.987   6.071  12.134  0.4908 -0.5354  0.8139
 2967TIP3    H130316   2.991   6.053  12.040  1.0453 -1.4683  1.0116
 2967TIP3    H230317   3.013   6.163  12.142  3.8172 -1.3702  0.3511
 2968TIP3   OH230318   4.658   0.358  14.871  0.6457 -0.2299 -0.2744
 2968TIP3    H130319   4.604   0.292  14.828  0.2060 -0.1663  0.1709
 2968TIP3    H230320   4.628   0.441  14.836 -0.6200 -0.0786  1.1017
 2969TIP3   OH230321   6.654   6.687   0.394  0.0954  0.7411  0.0836
 2969TIP3    H130322   6.696   6.756   0.343  1.4598  1.1904  1.7747
 2969TIP3    H230323   6.702   6.685   0.476 -0.9782 -1.1324  0.6960
 2970TIP3   OH230324   6.250   3.708  12.479 -0.4353  0.4369  0.0205
 2970TIP3    H130325   6.165   3.706  12.522 -0.4123 -0.1612  0.0279
 2970TIP3    H230326   6.251   3.632  12.422  0.1647  0.3416  0.1543
 2971TIP3   OH230327   2.135   6.229  17.039 -0.0722  0.1779 -0.3986
 2971TIP3    H130328   2.140   6.324  17.053  1.0717  0.2007 -0.8506
 2971TIP3    H230329   2.225   6.204  17.019 -0.4134 -0.9738 -0.5006
 2972TIP3   OH230330   6.438   0.617  12.310  0.8069  0.1740 -0.3153
 2972TIP3    H130331   6.346   0.635  12.330  0.4191 -2.4774  0.3984
 2972TIP3    H230332   6.483   0.634  12.393  0.0870 -4.3029  1.1572
 2973TIP3   OH230333   0.151   0.900  10.565  0.0606 -0.0405  0.4167
 2973TIP3    H130334   0.222   0.900  10.629 -0.0104  4.2808  0.6590
 2973TIP3    H230335   0.167   0.977  10.511 -3.0536 -0.4096 -1.1561
 2974TIP3   OH230336   3.288   3.341   2.604 -0.2453  0.1063  0.0868
 2974TIP3    H130337   3.240   3.275   2.654  1.8269 -1.1754  0.4222
 2974TIP3    H230338   3.267   3.423   2.648 -1.4611 -0.5163  0.7283
 2975TIP3   OH230339   1.824   2.612   4.920 -0.2280  0.4871  0.1563
 2975TIP3    H130340   1.804   2.641   5.009 -0.8317  1.6269 -0.3337
 2975TIP3    H230341   1.893   2.546   4.930 -1.1475 -0.2683  1.5477
 2976TIP3   OH230342   1.373   6.428   2.069  0.4656  0.2010  0.0528
 2976TIP3    H130343   1.395   6.399   1.980  0.6289 -0.1247  0.1989
 2976TIP3    H230344   1.331   6.353   2.109  1.7042 -0.1425  0.7313
 2977TIP3   OH230345   0.719   4.383   0.292 -0.9889 -0.3583 -0.3718
 2977TIP3    H130346   0.638   4.407   0.336 -0.5378 -0.0245  0.2770
 2977TIP3    H230347   0.779   4.455   0.311 -0.9472  0.0441 -1.9603
 2978TIP3   OH230348   0.894   4.080  16.106 -0.0382  0.4517  0.5370
 2978TIP3    H130349   0.848   4.054  16.027  3.2240 -0.8933 -0.9961
 2978TIP3    H230350   0.849   4.032  16.176 -2.4025  0.9987 -0.5426
 2979TIP3   OH230351   2.378   1.889  12.498 -0.3807  0.4322 -0.0051
 2979TIP3    H130352   2.370   1.802  12.538 -0.8245  1.2834  1.7840
 2979TIP3    H230353   2.409   1.945  12.569  2.8646  1.1579 -1.8840
 2980TIP3   OH230354   3.278   6.734   3.688  0.5175 -0.1707 -0.4666
 2980TIP3    H130355   3.200   6.737   3.632  0.1658 -1.0623 -0.0268
 2980TIP3    H230356   3.315   6.647   3.673  0.6074 -0.2905  0.4394
 2981TIP3   OH230357   4.305   2.579  15.299 -0.6253 -0.3550 -0.2594
 2981TIP3    H130358   4.400   2.580  15.291 -0.5026  0.0305  1.1545
 2981TIP3    H230359   4.289   2.546  15.387 -1.7984 -0.2884 -0.4434
 2982TIP3   OH230360   6.464   2.563   4.211  0.0654 -0.0323 -0.1139
 2982TIP3    H130361   6.496   2.547   4.299 -0.2898 -1.9632 -0.3140
 2982TIP3    H230362   6.431   2.478   4.181 -1.6061  1.0176 -1.3740
 2983TIP3   OH230363   1.431   5.919  13.696 -0.2290  0.3254 -0.0024
 2983TIP3    H130364   1.491   5.874  13.636 -0.3662  0.6429 -0.3857
 2983TIP3    H230365   1.355   5.862  13.702 -1.5739  1.7358 -2.6358
 2984TIP3   OH230366   5.668   4.606  13.478 -0.4786 -0.1268  0.1588
 2984TIP3    H130367   5.739   4.611  13.542 -0.4577 -0.2011  0.1413
 2984TIP3    H230368   5.706   4.559  13.404 -0.9227 -1.3218  0.6600
 2985TIP3   OH230369   6.489   0.220  16.136  0.5488  0.0310  0.7717
 2985TIP3    H130370   6.502   0.304  16.093  0.0468 -0.6213 -0.6902
 2985TIP3    H230371   6.445   0.242  16.218  0.6536  1.2107  0.5249
 2986TIP3   OH230372   2.760   3.953  17.139 -0.4894 -0.1286  0.0121
 2986TIP3    H130373   2.799   3.866  17.140  0.9896  0.4883 -1.4956
 2986TIP3    H230374   2.835   4.013  17.137 -1.4694  1.1975  1.6104
 2987TIP3   OH230375   5.074   2.290  12.608 -0.6172  0.0330  0.2332
 2987TIP3    H130376   5.031   2.320  12.689 -0.5562  1.1501 -0.1361
 2987TIP3    H230377   5.002   2.276  12.547 -0.5708  0.4599  0.0781
 2988TIP3   OH230378   6.139   5.823  15.539  0.4797 -0.3232 -0.5065
 2988TIP3    H130379   6.074   5.758  15.565  0.2816 -0.1497 -0.5584
 2988TIP3    H230380   6.223   5.786  15.565  0.2971 -0.2054  0.2744
 2989TIP3   OH230381   6.523   6.336  14.637  0.4630 -0.4796 -0.2488
 2989TIP3    H130382   6.574   6.402  14.588 -0.2103  0.3761  0.1877
 2989TIP3    H230383   6.458   6.305  14.574  0.1180  0.0328 -0.1519
 2990TIP3   OH230384   5.454   0.765   2.624 -0.1675 -0.3405  0.1075
 2990TIP3    H130385   5.519   0.694   2.625  0.0553 -0.1402  0.0110
 2990TIP3    H230386   5.436   0.780   2.531 -1.1067 -1.0803  0.1703
 2991TIP3   OH230387   3.430   5.374   6.799 -0.3816  0.5851  0.6361
 2991TIP3    H130388   3.522   5.352   6.787 -0.7818  0.0551 -1.7432
 2991TIP3    H230389   3.422   5.462   6.763 -1.2229 -0.2564 -1.3363
 2992TIP3   OH230390   4.827   5.569  11.283 -0.1780  0.3491  0.1678
 2992TIP3    H130391   4.792   5.530  11.203 -2.6591  0.3217  1.2290
 2992TIP3    H230392   4.822   5.663  11.268  0.2832  0.3348 -0.0883
 2993TIP3   OH230393   6.599   6.505  15.694  0.1112 -0.2523  0.1764
 2993TIP3    H130394   6.519   6.511  15.745 -0.1687  1.1587 -0.3932
 2993TIP3    H230395   6.603   6.414  15.665 -0.7848 -0.5551  0.9956
 2994TIP3   OH230396   5.395   6.247   4.356 -0.2233 -0.4798 -0.0285
 2994TIP3    H130397   5.308   6.207   4.354 -0.9198  0.9627  0.2234
 2994TIP3    H230398   5.450   6.189   4.304 -1.6178 -0.7900 -1.1889
 2995TIP3   OH230399   3.893   3.490  14.886  0.4531  0.1920 -0.4115
 2995TIP3    H130400   3.801   3.511  14.905  0.5618  0.0717  0.2560
 2995TIP3    H230401   3.894   3.469  14.793 -0.2351 -0.0228 -0.3719
 2996TIP3   OH230402   0.754   3.206   2.490 -0.2592 -0.1251 -0.1428
 2996TIP3    H130403   0.836   3.180   2.532 -0.0213  0.1094 -0.4547
 2996TIP3    H230404   0.692   3.215   2.562 -0.3740 -1.6350 -0.0383
 2997TIP3   OH230405   0.228   5.957  12.802  0.2059  0.6475 -0.0265
 2997TIP3    H130406   0.185   6.015  12.865 -0.3692 -1.0266  1.1540
 2997TIP3    H230407   0.159   5.932  12.741  0.2264  0.4270  0.0411
 2998TIP3   OH230408   5.793   0.492   3.056 -0.2891 -0.6674 -0.1919
 2998TIP3    H130409   5.824   0.447   2.977  1.5105 -0.6092  0.4426
 2998TIP3    H230410   5.771   0.422   3.117 -1.9552 -0.7163 -0.8257
 2999TIP3   OH230411   5.864   1.464   3.923 -0.1400 -0.9629 -0.1905
 2999TIP3    H130412   5.835   1.386   3.970 -0.9049  1.4942  3.6572
 2999TIP3    H230413   5.934   1.500   3.978  0.7822  0.5907 -2.3344
 3000TIP3   OH230414   1.883   1.231  17.124 -0.1434 -0.0658  0.4324
 3000TIP3    H130415   1.869   1.137  17.129 -0.1715 -0.1542 -1.0997
 3000TIP3    H230416   1.959   1.247  17.181  0.5263 -1.1545 -0.1367
 3001TIP3   OH230417   2.076   3.207  15.565 -0.7429  0.3654 -0.2533
 3001TIP3    H130418   2.119   3.183  15.483  0.3652 -1.3862  0.8025
 3001TIP3    H230419   2.078   3.303  15.566  2.9969  0.3972 -0.3902
 3002TIP3   OH230420   1.316   2.555   4.491  0.2103  0.2632  0.0144
 3002TIP3    H130421   1.292   2.577   4.401  0.1480  1.7500  0.3722
 3002TIP3    H230422   1.403   2.594   4.504 -0.1893  0.9120  0.8773
 3003TIP3   OH230423   5.896   4.353  11.099  0.1355 -0.3445  0.2986
 3003TIP3    H130424   5.837   4.370  11.172  0.9279 -1.1092  1.1390
 3003TIP3    H230425   5.908   4.258  11.099 -2.6303 -0.7641 -3.0536
 3004TIP3   OH230426   1.668   4.537  14.445  0.3254  0.4910  0.6964
 3004TIP3    H130427   1.609   4.464  14.431 -0.3495  1.4082 -1.4906
 3004TIP3    H230428   1.747   4.515  14.396 -0.6888  2.1514 -1.7462
 3005TIP3   OH230429   2.377   4.861   4.870 -0.0395  0.3416 -0.5409
 3005TIP3    H130430   2.468   4.846   4.896 -0.3829 -1.7295 -0.5122
 3005TIP3    H230431   2.367   4.956   4.872  1.2629  0.4422  2.3266
 3006TIP3   OH230432   1.583   4.496  11.589  0.3084 -0.2309 -0.0081
 3006TIP3    H130433   1.546   4.524  11.505  0.1319 -2.7461 -0.8075
 3006TIP3    H230434   1.664   4.546  11.596  0.1554  0.2840 -1.5139
 3007TIP3   OH230435   3.750   1.096  16.768  0.3067 -0.2365 -0.3255
 3007TIP3    H130436   3.810   1.163  16.801  1.8469 -1.3470 -0.8037
 3007TIP3    H230437   3.750   1.108  16.673  0.6684 -0.9517 -0.4244
 3008TIP3   OH230438   0.096   6.781   6.101  0.3433 -0.3138  0.3659
 3008TIP3    H130439   0.080   6.852   6.039 -0.2056 -0.3095  0.5045
 3008TIP3    H230440   0.181   6.802   6.140  1.2400 -0.9318 -1.2116
 3009TIP3   OH230441   2.155   4.731   5.047 -0.0890 -0.5668  0.8139
 3009TIP3    H130442   2.200   4.786   4.983  0.0093 -1.2799  0.2550
 3009TIP3    H230443   2.151   4.784   5.126  0.4372  0.0530  0.4316
 3010TIP3   OH230444   5.757   6.640  15.284 -0.0020  1.0240 -0.0037
 3010TIP3    H130445   5.822   6.583  15.326  0.4219  2.0532  0.7515
 3010TIP3    H230446   5.795   6.727  15.287 -1.1939  1.5602 -0.0298
 3011TIP3   OH230447   4.278   4.487  13.046  0.1527 -0.3567 -0.3297
 3011TIP3    H130448   4.340   4.465  12.976  0.1653 -1.1950 -0.0658
 3011TIP3    H230449   4.198   4.512  13.000  0.5607  0.3712 -0.6670
 3012TIP3   OH230450   0.512   5.236  15.128 -0.4169  0.6581 -0.0757
 3012TIP3    H130451   0.573   5.273  15.065 -0.4736 -0.5093 -0.8304
 3012TIP3    H230452   0.568   5.203  15.199 -0.2795  0.9541 -0.0461
 3013TIP3   OH230453   2.971   1.746   2.867  0.2614 -0.0909  0.0826
 3013TIP3    H130454   2.980   1.841   2.879 -0.4539 -0.0493  0.2983
 3013TIP3    H230455   3.030   1.726   2.794  2.5822  0.0740  1.8571
 3014TIP3   OH230456   3.498   4.538   5.417 -0.1909 -0.1021 -0.1600
 3014TIP3    H130457   3.479   4.564   5.507  0.8653  1.8646 -0.4779
 3014TIP3    H230458   3.593   4.528   5.414 -0.1982 -0.0097 -1.0948
 3015TIP3   OH230459   3.520   2.881   1.993 -0.0724 -0.3620 -0.3971
 3015TIP3    H130460   3.553   2.880   2.083 -2.3327  0.3418  0.4848
 3015TIP3    H230461   3.597   2.903   1.939  1.1357  0.0129  1.4362
 3016TIP3   OH230462   4.674   1.099   0.981 -0.3271  0.0784 -0.2649
 3016TIP3    H130463   4.678   1.107   0.886 -0.9879  2.0890 -0.1501
 3016TIP3    H230464   4.603   1.037   0.997  1.4908 -2.2826 -1.1222
 3017TIP3   OH230465   0.328   1.147  15.412  0.2396  0.6419  0.0921
 3017TIP3    H130466   0.362   1.085  15.349  0.2454 -0.5704  1.2746
 3017TIP3    H230467   0.395   1.216  15.417  1.3269 -0.4295  0.5067
 3018TIP3   OH230468   1.832   0.852  11.833 -0.0578 -0.3401 -0.7961
 3018TIP3    H130469   1.856   0.792  11.904  0.9193 -0.7942 -1.5020
 3018TIP3    H230470   1.873   0.814  11.755 -2.6859 -0.8983 -1.9733
 3019TIP3   OH230471   1.507   5.422  11.034  0.2048 -0.3054 -0.1734
 3019TIP3    H130472   1.450   5.372  11.093  0.3522 -0.7075 -0.3749
 3019TIP3    H230473   1.567   5.468  11.092  0.7107 -1.1383 -0.0328
 3020TIP3   OH230474   5.177   2.422   1.997 -0.2610  0.0050  0.0677
 3020TIP3    H130475   5.115   2.451   1.930 -0.9313 -0.3686  0.5155
 3020TIP3    H230476   5.133   2.347   2.038 -0.2067  0.7219  1.4581
 3021TIP3   OH230477   3.850   3.040   0.403 -0.2006  0.3866  0.3958
 3021TIP3    H130478   3.850   3.015   0.311 -0.0400 -1.3781  0.8652
 3021TIP3    H230479   3.780   3.105   0.409  0.0841  0.8554 -1.0538
 3022TIP3   OH230480   5.536   0.246   2.300  0.3754 -0.5598 -0.4647
 3022TIP3    H130481   5.476   0.316   2.273  0.1229  0.0123  1.5390
 3022TIP3    H230482   5.621   0.290   2.308 -0.0141 -0.2143  1.9382
 3023TIP3   OH230483   4.896   6.372  12.375  0.2099 -0.2122 -0.2264
 3023TIP3    H130484   4.894   6.465  12.400  1.1307 -0.1928 -0.2200
 3023TIP3    H230485   4.829   6.332  12.430  1.4687  0.0227  1.5383
 3024TIP3   OH230486   0.145   3.931   5.535 -0.1507 -0.1066 -0.9633
 3024TIP3    H130487   0.117   3.855   5.587 -0.9052 -0.0722 -1.3123
 3024TIP3    H230488   0.235   3.912   5.511 -0.1909 -0.6886 -0.6631
 3025TIP3   OH230489   3.502   1.270  11.368  0.8240 -0.1083  0.4807
 3025TIP3    H130490   3.585   1.316  11.361  0.1035  1.5609  2.3143
 3025TIP3    H230491   3.478   1.277  11.461 -2.2489  1.0804 -0.3387
 3026TIP3   OH230492   1.260   5.831  11.971  0.2327  0.0143 -0.4855
 3026TIP3    H130493   1.207   5.905  12.002  0.5091 -0.5353  1.4076
 3026TIP3    H230494   1.207   5.790  11.903 -2.3920 -1.2486  2.1899
 3027TIP3   OH230495   3.455   6.078  16.567 -0.5396  0.4726 -0.1347
 3027TIP3    H130496   3.421   6.161  16.603  0.7947  0.9831 -0.0398
 3027TIP3    H230497   3.502   6.104  16.488  0.4155 -0.1310  0.2370
 3028TIP3   OH230498   6.157   3.066  17.046 -0.0604  0.1338  0.2686
 3028TIP3    H130499   6.066   3.052  17.022  0.0748 -2.4563  1.0752
 3028TIP3    H230500   6.153   3.127  17.120 -0.9725  1.7187 -1.0576
 3029TIP3   OH230501   5.264   4.280  12.338  0.2781 -0.2458 -0.0453
 3029TIP3    H130502   5.311   4.357  12.309  1.5471 -0.9368  0.1371
 3029TIP3    H230503   5.242   4.233  12.258 -1.3489  0.7816 -0.2147
 3030TIP3   OH230504   5.902   2.773   4.498 -0.1398 -0.0749  0.6144
 3030TIP3    H130505   5.966   2.786   4.568  0.7011  0.5993 -0.2584
 3030TIP3    H230506   5.851   2.697   4.525  1.9975 -1.5532  0.6255
 3031TIP3   OH230507   1.921   6.212  10.773 -0.3490  0.7750 -1.2555
 3031TIP3    H130508   1.946   6.169  10.855  1.7597  2.4721 -0.9533
 3031TIP3    H230509   1.855   6.155  10.734 -1.7929  0.1926  1.8893
 3032TIP3   OH230510   0.897   3.040  17.136  0.5135 -0.2681  0.6644
 3032TIP3    H130511   0.905   3.014  17.227 -2.1611 -1.5353  0.5843
 3032TIP3    H230512   0.804   3.057  17.124  0.8285 -0.1273 -1.8397
 3033TIP3   OH230513   0.338   3.872   0.646 -0.9854 -0.2154 -0.1370
 3033TIP3    H130514   0.326   3.782   0.618 -1.1475 -0.5359  0.9663
 3033TIP3    H230515   0.275   3.922   0.594 -2.8390 -1.1018  1.2290
 3034TIP3   OH230516   6.058   0.637  14.027  0.4185 -0.4592 -0.3786
 3034TIP3    H130517   6.022   0.715  14.069 -2.0262 -2.6770  1.8402
 3034TIP3    H230518   6.081   0.580  14.100  0.6152 -2.4687 -1.9877
 3035TIP3   OH230519   3.676   3.415   0.107 -0.0050  0.2596 -0.1734
 3035TIP3    H130520   3.733   3.375   0.041  1.9704  0.1051  1.5943
 3035TIP3    H230521   3.716   3.392   0.191 -2.5929  0.2916  1.1205
 3036TIP3   OH230522   5.363   2.906  13.772  0.2858 -0.1428  0.2681
 3036TIP3    H130523   5.435   2.969  13.763  0.8375 -0.6951  0.8060
 3036TIP3    H230524   5.405   2.824  13.796 -0.3020 -1.0923 -1.8247
 3037TIP3   OH230525   0.191   4.980  16.483 -0.2011  0.1127  0.1690
 3037TIP3    H130526   0.163   4.951  16.570 -0.7759 -0.3365 -0.1667
 3037TIP3    H230527   0.266   4.925  16.462 -0.1846  0.0848  0.3025
 3038TIP3   OH230528   3.323   4.870   1.321  0.1014 -0.0232 -0.0505
 3038TIP3    H130529   3.369   4.949   1.349  0.0524  0.1506 -0.4496
 3038TIP3    H230530   3.357   4.854   1.232  0.3006 -0.5922  0.1289
 3039TIP3   OH230531   4.823   0.001   2.627  0.0835  0.3982 -0.5157
 3039TIP3    H130532   4.818   0.039   2.540 -0.0048  0.6501 -0.4011
 3039TIP3    H230533   4.752  -0.064   2.630  0.6467 -0.2489 -0.9374
 3040TIP3   OH230534   5.269   6.509  15.342  0.0379  0.1004 -0.1522
 3040TIP3    H130535   5.262   6.604  15.344 -1.4052 -0.0161  0.8059
 3040TIP3    H230536   5.264   6.486  15.249 -1.3205  0.8380 -0.2627
 3041TIP3   OH230537   3.724   3.435   6.357  0.6763 -0.3073 -0.7859
 3041TIP3    H130538   3.669   3.387   6.296  0.6225 -1.7488  0.3599
 3041TIP3    H230539   3.675   3.514   6.377  1.2994  0.8204 -3.6104
 3042TIP3   OH230540   6.680   0.113  15.337 -0.0006  0.2326  0.0769
 3042TIP3    H130541   6.599   0.068  15.315 -0.2224  0.0753  1.1553
 3042TIP3    H230542   6.749   0.054  15.308 -0.2904 -0.7969  1.4132
 3043TIP3   OH230543   4.335   1.384   2.142  0.1276  0.3471  0.1634
 3043TIP3    H130544   4.423   1.346   2.152 -0.0567  0.0328  0.6253
 3043TIP3    H230545   4.323   1.393   2.048  0.8172  0.7662  0.1112
 3044TIP3   OH230546   2.541   2.744  12.234  0.5167 -0.1133  0.5324
 3044TIP3    H130547   2.608   2.779  12.174  0.9360  2.4672  2.4001
 3044TIP3    H230548   2.584   2.671  12.278  0.8701 -0.7672 -0.8689
 3045TIP3   OH230549   5.188   6.527  13.858  0.5248 -0.1626 -0.2283
 3045TIP3    H130550   5.096   6.552  13.866 -0.2435 -2.1867 -2.2184
 3045TIP3    H230551   5.224   6.538  13.946 -2.0376 -0.9611  0.9513
 3046TIP3   OH230552   0.499   1.414   1.299  0.2936 -0.3536 -0.2706
 3046TIP3    H130553   0.515   1.400   1.205 -1.7231 -0.2797 -0.6356
 3046TIP3    H230554   0.412   1.378   1.314 -0.5774  2.2182  1.0051
 3047TIP3   OH230555   6.733   2.134  10.544 -0.4870  0.3213  0.5065
 3047TIP3    H130556   6.793   2.202  10.512 -0.9608  0.2518 -0.5450
 3047TIP3    H230557   6.727   2.072  10.472 -1.7953  0.3077  0.6162
 3048TIP3   OH230558   3.878   5.085   2.951  0.2296  0.5558 -0.4543
 3048TIP3    H130559   3.804   5.129   2.994 -0.3458 -1.3208  0.5257
 3048TIP3    H230560   3.845   5.061   2.865  0.1931  1.0704 -0.5859
 3049TIP3   OH230561   1.181   4.125  16.084 -0.3592 -0.1878 -0.8582
 3049TIP3    H130562   1.187   4.036  16.050 -1.5537  0.3226 -2.4559
 3049TIP3    H230563   1.087   4.141  16.093 -0.1378  0.7201 -0.0823
 3050TIP3   OH230564   1.624   2.823  14.346  0.1664 -0.5891  0.4232
 3050TIP3    H130565   1.631   2.919  14.349  0.6588 -0.6376  0.9042
 3050TIP3    H230566   1.544   2.807  14.296  0.0927  0.0729  0.3161
 3051TIP3   OH230567   2.627   3.041  10.518  0.3640 -0.2569 -0.0168
 3051TIP3    H130568   2.720   3.039  10.493  0.0780 -3.2040 -1.1302
 3051TIP3    H230569   2.581   3.067  10.438  0.3256  3.7596  1.1976
 3052TIP3   OH230570   4.856   1.913  15.920  0.2487  0.5967  0.0202
 3052TIP3    H130571   4.867   1.953  15.834  0.5848  1.0556  0.2710
 3052TIP3    H230572   4.906   1.831  15.915 -2.1148 -0.7960 -1.1461
 3053TIP3   OH230573   2.018   4.667   0.046 -0.5761 -0.0658 -1.0071
 3053TIP3    H130574   2.055   4.703  -0.035  0.3937 -1.4979 -1.2019
 3053TIP3    H230575   2.054   4.579   0.053 -0.5052  0.0934  1.0797
 3054TIP3   OH230576   2.642   0.556   0.845 -1.0005  0.3863  0.0891
 3054TIP3    H130577   2.570   0.530   0.787 -0.9743  2.2752 -0.8235
 3054TIP3    H230578   2.673   0.639   0.809  3.4279 -1.6612 -1.1089
 3055TIP3   OH230579   5.798   5.131  12.156 -0.4479  0.7626  0.4288
 3055TIP3    H130580   5.751   5.098  12.079  0.7337  1.9896 -0.8477
 3055TIP3    H230581   5.806   5.055  12.213 -0.9394 -0.2878 -0.8490
 3056TIP3   OH230582   3.467   2.791  16.984 -0.2929 -0.4306  0.1525
 3056TIP3    H130583   3.530   2.862  16.979  0.7863 -1.4873 -1.6836
 3056TIP3    H230584   3.381   2.834  16.976  0.2224  0.8554  1.2827
 3057TIP3   OH230585   3.756   1.452  14.640  0.0139  0.4876  0.1680
 3057TIP3    H130586   3.788   1.453  14.730  1.6321 -0.1035 -0.3924
 3057TIP3    H230587   3.825   1.408  14.590 -1.9230 -1.3688 -0.9663
 3058TIP3   OH230588   4.292   5.482   5.608 -0.0204  0.0786  0.5005
 3058TIP3    H130589   4.324   5.392   5.612  3.5484  1.2082 -1.3207
 3058TIP3    H230590   4.263   5.500   5.698 -0.7374 -2.8225  0.9081
 3059TIP3   OH230591   2.231   2.434  10.407  0.4831 -0.2671 -0.1605
 3059TIP3    H130592   2.138   2.453  10.399  0.0083 -1.6187  1.6760
 3059TIP3    H230593   2.274   2.519  10.401 -0.8907  0.4053 -0.6634
 3060TIP3   OH230594   5.532   2.869   6.102  0.0762  0.0573  0.3602
 3060TIP3    H130595   5.595   2.849   6.032  1.7846  2.1982  1.2379
 3060TIP3    H230596   5.452   2.894   6.056  0.6020 -0.3334 -0.7973
 3061TIP3   OH230597   5.426   3.252  12.821 -0.0318  0.0092  0.4487
 3061TIP3    H130598   5.347   3.197  12.824 -1.0597  1.3491 -1.2089
 3061TIP3    H230599   5.422   3.304  12.901 -0.5907 -0.2809  0.6165
 3062TIP3   OH230600   4.419   1.453   5.169 -0.4723 -0.0768  0.1186
 3062TIP3    H130601   4.504   1.461   5.213 -0.0885  1.2240 -0.8127
 3062TIP3    H230602   4.415   1.362   5.141  0.6362 -0.1429  0.1389
 3063TIP3   OH230603   6.646   5.927  13.224  0.0204  0.0363  0.4583
 3063TIP3    H130604   6.605   5.980  13.156  0.3935  0.4671  0.5656
 3063TIP3    H230605   6.590   5.850  13.232 -0.8391  0.6832  0.7027
 3064TIP3   OH230606   5.276   1.307   3.725 -0.3052 -0.3000 -0.0866
 3064TIP3    H130607   5.304   1.216   3.714 -2.0631 -0.8645 -0.1241
 3064TIP3    H230608   5.357   1.356   3.732  0.7158 -1.6402 -1.9047
 3065TIP3   OH230609   6.455   5.727  13.298 -0.2544  0.1075  0.0505
 3065TIP3    H130610   6.375   5.778  13.309  0.8159  2.3365 -1.9740
 3065TIP3    H230611   6.425   5.640  13.272 -2.0962 -0.0899  2.6821
 3066TIP3   OH230612   1.178   6.485   4.263 -0.5862 -0.0142 -0.7050
 3066TIP3    H130613   1.158   6.413   4.323  0.5814 -2.3200 -2.9780
 3066TIP3    H230614   1.098   6.495   4.211 -1.1398  1.1003  0.3506
 3067TIP3   OH230615   3.221   3.010  17.173  0.1935  0.3596 -0.3549
 3067TIP3    H130616   3.286   3.072  17.140 -0.0873  1.0717  0.4260
 3067TIP3    H230617   3.219   2.941  17.107 -1.1052  2.2486 -2.3958
 3068TIP3   OH230618   5.177   5.387  14.597  0.3285 -0.1474  0.1869
 3068TIP3    H130619   5.130   5.418  14.520 -0.3421 -0.3955  0.4967
 3068TIP3    H230620   5.268   5.414  14.582 -0.0586  1.0722 -0.0187
 3069TIP3   OH230621   2.668   5.663   0.273  0.6727 -0.5765 -0.1315
 3069TIP3    H130622   2.578   5.640   0.299  0.5613  1.7579  1.6893
 3069TIP3    H230623   2.723   5.628   0.343  1.1149 -1.0599 -0.7120
 3070TIP3   OH230624   4.356   1.954   1.646  0.2648  0.4578  0.2500
 3070TIP3    H130625   4.437   1.907   1.630  0.0231 -0.6062  2.0725
 3070TIP3    H230626   4.383   2.039   1.680  0.6215  0.4661 -0.0523
 3071TIP3   OH230627   0.743   2.864   1.206 -0.9528  0.3997  0.2480
 3071TIP3    H130628   0.816   2.870   1.145 -0.1590  1.1615  1.2532
 3071TIP3    H230629   0.689   2.941   1.187  0.5516  1.9770  2.0639
 3072TIP3   OH230630   3.278   4.008   5.591 -0.3648  0.5120  0.1046
 3072TIP3    H130631   3.218   4.039   5.659  0.4736 -2.0979  2.1277
 3072TIP3    H230632   3.364   4.038   5.619  0.1838 -1.7881  1.0451
 3073TIP3   OH230633   0.913   1.330   5.222  0.1128  0.3113  0.0939
 3073TIP3    H130634   0.822   1.349   5.244 -0.3230  0.5382 -1.8058
 3073TIP3    H230635   0.922   1.236   5.241 -1.0038 -0.0868 -1.2780
 3074TIP3   OH230636   3.115   4.385  11.728  0.4047  0.1797  0.5119
 3074TIP3    H130637   3.102   4.323  11.657  2.3795  1.2457 -0.8274
 3074TIP3    H230638   3.138   4.330  11.803  0.9766 -0.7864 -0.3556
 3075TIP3   OH230639   1.151   3.180   3.877  0.3145  0.0933 -0.0723
 3075TIP3    H130640   1.129   3.101   3.827  1.3372 -0.6090  0.5834
 3075TIP3    H230641   1.094   3.176   3.954 -0.8900  0.9075 -0.9102
 3076TIP3   OH230642   3.940   2.224  11.251  0.4088 -0.1078 -0.2333
 3076TIP3    H130643   3.934   2.132  11.225  0.0024 -0.6254  1.5798
 3076TIP3    H230644   3.853   2.245  11.285  1.2014  0.1949  1.6699
 3077TIP3   OH230645   2.413   4.392   2.214  0.3784  0.5760  0.0959
 3077TIP3    H130646   2.330   4.438   2.202  1.3516  2.3486  0.0101
 3077TIP3    H230647   2.447   4.426   2.297  0.3267 -1.2492  0.8924
 3078TIP3   OH230648   0.566   4.169   1.410 -0.6734 -0.5787  0.4379
 3078TIP3    H130649   0.569   4.089   1.462 -0.3123 -0.1120  1.1391
 3078TIP3    H230650   0.602   4.143   1.325 -0.5705 -1.1599  0.6569
 3079TIP3   OH230651   2.905   1.580  13.996 -0.4215  0.1694 -0.2721
 3079TIP3    H130652   2.814   1.600  13.975 -0.2183 -1.5416 -3.1723
 3079TIP3    H230653   2.955   1.619  13.923  0.8625 -1.5529 -0.3499
 3080TIP3   OH230654   1.019   4.635  13.563  0.0762  0.1057 -0.1087
 3080TIP3    H130655   1.111   4.640  13.591  0.1868  2.9906 -0.8111
 3080TIP3    H230656   1.000   4.542  13.560  2.6608 -0.5184  1.1241
 3081TIP3   OH230657   4.918   3.846  11.185  0.4765 -0.2462 -0.4783
 3081TIP3    H130658   4.968   3.904  11.128  1.9557 -2.2294 -1.2595
 3081TIP3    H230659   4.857   3.802  11.126 -0.4985  0.3475  0.0770
 3082TIP3   OH230660   1.250   4.548   0.021 -0.4288 -0.1790 -0.4871
 3082TIP3    H130661   1.335   4.590   0.032 -0.7823  0.7276 -1.1894
 3082TIP3    H230662   1.270   4.454   0.019  0.4303 -0.0239  0.4433
 3083TIP3   OH230663   2.910   6.415  15.791  0.5968 -0.3762 -0.4468
 3083TIP3    H130664   2.883   6.409  15.883 -0.3467 -0.4677 -0.7264
 3083TIP3    H230665   2.986   6.357  15.784 -0.8257 -2.3106 -0.2864
 3084TIP3   OH230666   2.739   2.040   4.295 -0.3132 -0.3822 -0.8881
 3084TIP3    H130667   2.666   2.053   4.355 -0.6347  1.8616 -1.6943
 3084TIP3    H230668   2.805   1.994   4.346 -0.4849  1.6755  1.2818
 3085TIP3   OH230669   6.651   4.997   3.533  0.6601 -0.4074 -0.6012
 3085TIP3    H130670   6.740   4.973   3.504  0.7602 -0.0949 -0.5573
 3085TIP3    H230671   6.662   5.083   3.573  0.0987  0.2846 -1.8963
 3086TIP3   OH230672   3.706   4.333   0.197  1.1157  0.7211 -0.5571
 3086TIP3    H130673   3.682   4.257   0.144 -3.7703  0.8419  1.2106
 3086TIP3    H230674   3.698   4.303   0.287 -0.1686  3.0956  0.1634
 3087TIP3   OH230675   2.335   0.886   0.653 -0.1335 -0.4663  0.5518
 3087TIP3    H130676   2.255   0.936   0.638 -0.3008 -0.6486  0.8409
 3087TIP3    H230677   2.320   0.803   0.609 -0.7123 -1.0887  1.9026
 3088TIP3   OH230678   6.457   5.122   3.782  0.3932  0.1416  0.2718
 3088TIP3    H130679   6.536   5.175   3.787  0.7887 -0.4803  0.6875
 3088TIP3    H230680   6.457   5.070   3.862 -1.5519  1.6640  1.2943
 3089TIP3   OH230681   3.374   6.092   0.213 -0.3818 -0.2812  0.0563
 3089TIP3    H130682   3.369   6.098   0.308  0.1470 -0.3408  0.0841
 3089TIP3    H230683   3.297   6.039   0.188 -0.4066 -0.4320  0.4606
 3090TIP3   OH230684   1.249   2.372   2.721 -0.0189 -0.1155  0.0448
 3090TIP3    H130685   1.321   2.404   2.666 -1.2633  2.1318 -0.3329
 3090TIP3    H230686   1.259   2.277   2.720  0.8407 -0.0625 -2.9485
 3091TIP3   OH230687   1.530   1.102  14.177 -0.2741 -0.3617 -0.0046
 3091TIP3    H130688   1.500   1.011  14.181 -1.9066  0.2035  1.2300
 3091TIP3    H230689   1.461   1.149  14.130 -0.3125  0.5585  0.9380
 3092TIP3   OH230690   6.163   6.252   5.085  0.4188 -0.0306  0.2930
 3092TIP3    H130691   6.115   6.197   5.022  0.3328  1.6158 -1.1197
 3092TIP3    H230692   6.217   6.190   5.134  0.2097 -1.4087 -1.1609
 3093TIP3   OH230693   1.498   4.958   2.010  0.1954  0.4073  0.1066
 3093TIP3    H130694   1.577   4.958   1.955 -2.0750 -0.0445 -3.3573
 3093TIP3    H230695   1.513   4.889   2.074  3.1738  1.2992  0.4456
 3094TIP3   OH230696   1.589   4.004   4.666 -0.2034 -0.2672 -0.5664
 3094TIP3    H130697   1.655   3.973   4.603  0.2326  1.7744 -1.1333
 3094TIP3    H230698   1.637   4.012   4.749 -0.1267 -0.3591 -0.6018
 3095TIP3   OH230699   0.712   1.853  14.135 -0.2205 -0.0682 -0.3991
 3095TIP3    H130700   0.801   1.828  14.162 -0.9326 -1.9236  0.2724
 3095TIP3    H230701   0.710   1.948  14.147  1.2928 -0.1508  0.7456
 3096TIP3   OH230702   0.831   5.074  15.942 -0.4312  0.1506 -0.1888
 3096TIP3    H130703   0.903   5.094  15.882 -0.2822  0.5535  0.1193
 3096TIP3    H230704   0.873   5.070  16.029 -1.0183  1.8715  0.1943
 3097TIP3   OH230705   1.384   1.412  12.280 -0.2968 -0.4305 -0.0373
 3097TIP3    H130706   1.424   1.338  12.324 -0.1405 -0.2811  0.0744
 3097TIP3    H230707   1.458   1.461  12.243 -0.2678  0.5631  1.2912
 3098TIP3   OH230708   1.048   3.973  11.680 -0.3813 -0.2068 -0.3931
 3098TIP3    H130709   1.089   4.054  11.710  0.3404 -1.5918  2.4419
 3098TIP3    H230710   0.998   3.999  11.602  1.9754  2.4269 -1.0900
 3099TIP3   OH230711   2.447   2.779   2.834  0.2322  0.3754 -0.3681
 3099TIP3    H130712   2.423   2.687   2.819 -0.0997  0.5280 -0.8029
 3099TIP3    H230713   2.469   2.812   2.747  0.3877  0.6967 -0.2058
 3100TIP3   OH230714   5.206   1.789  13.465 -0.3783  0.3235  0.4188
 3100TIP3    H130715   5.214   1.880  13.438 -0.6210 -0.1731 -1.4233
 3100TIP3    H230716   5.159   1.747  13.393  2.4722 -1.9087 -0.2364
 3101TIP3   OH230717   4.217   1.900  10.430 -0.3066 -0.2427  0.4245
 3101TIP3    H130718   4.195   1.926  10.520  0.3212  1.5428  0.0732
 3101TIP3    H230719   4.174   1.965  10.375  0.6513 -0.3920 -0.5048
 3102TIP3   OH230720   3.674   0.110   1.255  0.1806 -0.1367 -0.3521
 3102TIP3    H130721   3.684   0.182   1.318 -0.0399  0.4739 -1.0076
 3102TIP3    H230722   3.656   0.034   1.309  2.0230 -0.0335  0.4721
 3103TIP3   OH230723   0.603   4.799  15.351  0.6456 -0.5795 -0.5516
 3103TIP3    H130724   0.561   4.883  15.333  2.1467  0.0064 -1.4000
 3103TIP3    H230725   0.671   4.820  15.416 -0.1051 -1.4448  0.5234
 3104TIP3   OH230726   4.980   2.503  13.865 -0.4610  0.2541  0.6061
 3104TIP3    H130727   5.043   2.499  13.937 -1.1826  0.6109  1.2691
 3104TIP3    H230728   4.984   2.594  13.834 -2.8843  1.1242  2.7023
 3105TIP3   OH230729   4.770   1.388   4.827  0.0750 -0.5153 -0.3783
 3105TIP3    H130730   4.675   1.374   4.825  0.0217 -0.0800 -0.8721
 3105TIP3    H230731   4.804   1.311   4.873 -0.4052 -1.3261 -1.3600
 3106TIP3   OH230732   4.493   3.942   0.213  0.6819 -0.6167 -0.2139
 3106TIP3    H130733   4.483   3.992   0.132 -0.6300 -0.3271  0.1146
 3106TIP3    H230734   4.533   4.003   0.275 -0.7511 -0.0194  0.1339
 3107TIP3   OH230735   0.694   6.502  16.039  0.6110 -0.2700 -0.7445
 3107TIP3    H130736   0.741   6.580  16.009  0.8826 -0.5184 -0.9726
 3107TIP3    H230737   0.736   6.477  16.121 -0.6699  0.8923  0.2845
 3108TIP3   OH230738   3.766   0.524  15.551 -0.2998 -0.4405 -0.4660
 3108TIP3    H130739   3.700   0.560  15.610 -1.1523 -0.4169 -1.4219
 3108TIP3    H230740   3.828   0.480  15.609 -0.1805  1.0559  0.5747
 3109TIP3   OH230741   4.245   2.906   2.443 -0.2750 -0.5749  0.1086
 3109TIP3    H130742   4.283   2.948   2.366 -0.9264  0.8671  0.5501
 3109TIP3    H230743   4.151   2.903   2.426 -0.0170 -4.3591 -1.0920
 3110TIP3   OH230744   2.065   2.609  17.107 -0.0758  0.5743  0.1462
 3110TIP3    H130745   2.127   2.650  17.168 -0.2719  1.4315 -0.2185
 3110TIP3    H230746   1.985   2.662  17.115  0.2364  1.3559 -1.6328
 3111TIP3   OH230747   1.512   2.171   4.009  0.4974 -0.3304  0.2881
 3111TIP3    H130748   1.435   2.228   4.005 -0.4147 -1.5096  0.7529
 3111TIP3    H230749   1.582   2.224   3.973 -0.8058  0.3126 -1.3783
 3112TIP3   OH230750   3.485   6.645  14.625  0.5922  0.6104  0.0806
 3112TIP3    H130751   3.474   6.588  14.701  0.6399 -0.5598 -0.7898
 3112TIP3    H230752   3.406   6.699  14.625  1.5082  1.9955  2.1050
 3113TIP3   OH230753   2.456   3.768  12.069 -0.2092  0.0829  0.1404
 3113TIP3    H130754   2.401   3.805  11.999  2.6954  1.9926 -1.2402
 3113TIP3    H230755   2.450   3.832  12.140  2.1322  1.6128 -0.9703
 3114TIP3   OH230756   1.262   3.600  16.180  0.2747  0.0559  0.4246
 3114TIP3    H130757   1.247   3.646  16.262  2.1660 -0.4200  1.0684
 3114TIP3    H230758   1.281   3.669  16.116  0.5391  0.3199  0.7880
 3115TIP3   OH230759   4.248   2.158  14.404 -0.1760 -0.0322  0.3236
 3115TIP3    H130760   4.276   2.066  14.400 -0.6472 -0.1284 -1.1213
 3115TIP3    H230761   4.153   2.154  14.393 -0.2458  0.6032  0.6937
 3116TIP3   OH230762   0.736   2.651  16.543  0.3383 -0.1829 -0.2865
 3116TIP3    H130763   0.770   2.571  16.504  0.1767 -0.4456  0.1145
 3116TIP3    H230764   0.696   2.623  16.626  1.1999  0.4491  0.3576
 3117TIP3   OH230765   1.071   3.779   4.515 -0.0260  0.6148 -0.6068
 3117TIP3    H130766   1.004   3.732   4.465  0.6329 -0.0666 -0.8631
 3117TIP3    H230767   1.022   3.827   4.582 -0.5625 -2.0792  0.9749
 3118TIP3   OH230768   0.416   5.796  12.329  0.2319  0.6859 -0.2042
 3118TIP3    H130769   0.400   5.722  12.271 -0.7055  1.3503 -0.8207
 3118TIP3    H230770   0.512   5.802  12.335  0.3447  0.4666 -1.5238
 3119TIP3   OH230771   4.476   5.618  13.937  0.5260 -0.5175 -0.1616
 3119TIP3    H130772   4.541   5.638  14.004  0.4799  3.0492 -1.0814
 3119TIP3    H230773   4.500   5.674  13.863 -1.9354 -1.2177 -1.5410
 3120TIP3   OH230774   6.512   5.479   4.667  0.2372 -0.0196 -0.4660
 3120TIP3    H130775   6.428   5.452   4.630 -0.0331  1.4458 -0.9429
 3120TIP3    H230776   6.490   5.550   4.727  1.0916  0.0901 -0.2740
 3121TIP3   OH230777   5.328   4.990  16.468  0.2094  0.2276 -0.2325
 3121TIP3    H130778   5.353   4.940  16.390  0.6725  1.5131 -0.9194
 3121TIP3    H230779   5.325   4.924  16.538  1.3808 -0.6692 -1.0015
 3122TIP3   OH230780   0.884   2.333  16.975  0.3980 -0.6009  0.1473
 3122TIP3    H130781   0.927   2.320  16.891  0.1544 -0.0958 -0.0581
 3122TIP3    H230782   0.923   2.413  17.010  2.5841 -2.3219  1.8304
 3123TIP3   OH230783   2.060   3.879  15.813  0.2641 -0.7898  0.0986
 3123TIP3    H130784   2.114   3.848  15.886  0.9641 -0.9438 -0.4868
 3123TIP3    H230785   2.121   3.893  15.741 -0.2240  0.6870 -0.0479
 3124TIP3   OH230786   2.442   3.471  12.558  0.1365 -0.3588 -0.5982
 3124TIP3    H130787   2.425   3.535  12.489  0.0792 -0.1604 -0.3990
 3124TIP3    H230788   2.527   3.496  12.594  0.0574 -0.3192 -0.4371
 3125TIP3   OH230789   0.652   3.149   4.498  0.3317 -0.8662 -0.0341
 3125TIP3    H130790   0.639   3.241   4.474  2.7644 -0.5493 -0.2913
 3125TIP3    H230791   0.713   3.152   4.571 -1.6635 -2.1878  1.7384
 3126TIP3   OH230792   3.022   1.471  14.415  0.3857 -0.0666  0.2180
 3126TIP3    H130793   2.997   1.564  14.409 -2.0703 -0.7067  0.2986
 3126TIP3    H230794   3.085   1.459  14.343 -2.3993  0.6937 -2.4413
 3127TIP3   OH230795   0.144   5.238  13.012 -0.6447 -0.2223  0.3749
 3127TIP3    H130796   0.087   5.230  12.935  0.8311 -1.4062 -0.6114
 3127TIP3    H230797   0.188   5.323  13.000  0.0481 -0.6895 -0.4165
 3128TIP3   OH230798   5.970   4.908  16.204  0.0210 -0.0194 -0.3460
 3128TIP3    H130799   6.053   4.936  16.243 -0.0491  0.2335 -0.3710
 3128TIP3    H230800   5.991   4.828  16.157  0.0755 -0.4066  0.3378
 3129TIP3   OH230801   4.774   1.757   4.422 -0.2118 -0.2862 -0.0709
 3129TIP3    H130802   4.713   1.701   4.375 -0.8524  0.9508 -0.7453
 3129TIP3    H230803   4.848   1.700   4.442 -0.1995 -1.0032 -2.0503
 3130TIP3   OH230804   2.787   5.350  11.962 -0.5605  0.1631  0.0756
 3130TIP3    H130805   2.833   5.266  11.958 -2.1877 -0.7066 -0.8064
 3130TIP3    H230806   2.846   5.412  11.919 -0.1337 -0.9003 -0.8925
 3131TIP3   OH230807   4.894   2.947   4.807 -0.1377 -0.2869 -0.3046
 3131TIP3    H130808   4.862   2.858   4.824 -0.1076 -0.1733  0.3623
 3131TIP3    H230809   4.938   2.972   4.888 -0.3280  0.4224 -0.4202
 3132TIP3   OH230810   0.448   6.124   2.340  0.0344 -0.0315  0.0244
 3132TIP3    H130811   0.366   6.122   2.291 -0.1567 -0.5809  0.3581
 3132TIP3    H230812   0.470   6.217   2.348 -1.2494  0.1927  1.0736
 3133TIP3   OH230813   1.863   2.380   0.187  0.5063  0.2894  0.2272
 3133TIP3    H130814   1.795   2.351   0.127  0.6176  0.2921  0.0993
 3133TIP3    H230815   1.938   2.324   0.168 -0.1052 -1.0961  1.7888
 3134TIP3   OH230816   2.716   6.220  11.285  0.3003  0.4332 -0.1972
 3134TIP3    H130817   2.633   6.264  11.303 -0.0860 -0.1275 -0.5745
 3134TIP3    H230818   2.706   6.132  11.323  0.5031  0.1700 -0.7451
 3135TIP3   OH230819   0.912   2.659  11.965  0.0597  0.7225 -0.1532
 3135TIP3    H130820   0.818   2.677  11.969  0.1137  1.6385 -2.1096
 3135TIP3    H230821   0.953   2.744  11.979  0.6035  0.3152  0.7393
 3136TIP3   OH230822   0.631   3.817   3.275  0.4937 -0.1916 -0.3331
 3136TIP3    H130823   0.589   3.735   3.251 -0.4656  0.2426 -0.1724
 3136TIP3    H230824   0.603   3.833   3.366  0.9905  0.1107 -0.2289
 3137TIP3   OH230825   4.177   5.543   0.658 -0.1677 -0.1878  0.2664
 3137TIP3    H130826   4.136   5.622   0.622 -1.4376 -1.2250 -0.6309
 3137TIP3    H230827   4.144   5.537   0.748 -0.0988  0.2786  0.3232
 3138TIP3   OH230828   4.235   6.330  16.209 -0.4140 -0.5149  0.5827
 3138TIP3    H130829   4.313   6.357  16.258 -0.1117  0.6535 -0.5051
 3138TIP3    H230830   4.195   6.412  16.180  0.0224 -1.1707 -2.0430
 3139TIP3   OH230831   5.337   4.222   4.672  0.5502 -0.0406 -0.4169
 3139TIP3    H130832   5.299   4.141   4.706  1.0866 -0.0371  0.1928
 3139TIP3    H230833   5.264   4.284   4.673  1.0704  0.5798  2.7955
 3140TIP3   OH230834   3.975   6.353  14.534  0.2984 -0.1426  0.1494
 3140TIP3    H130835   3.959   6.314  14.620 -0.8771 -1.7261 -0.7739
 3140TIP3    H230836   3.921   6.432  14.533 -0.9030 -0.9495  0.2820
 3141TIP3   OH230837   1.621   6.025   2.983 -0.0342  0.1518  0.2829
 3141TIP3    H130838   1.580   6.051   2.901 -1.2837  2.4496  1.5849
 3141TIP3    H230839   1.679   6.098   3.005 -0.0050 -0.2683  1.6310
 3142TIP3   OH230840   1.471   1.864  14.896 -0.2898 -0.3047  0.2635
 3142TIP3    H130841   1.431   1.951  14.898 -0.4363 -0.3787  0.5097
 3142TIP3    H230842   1.549   1.872  14.950 -0.6325 -0.4905  0.7880
 3143TIP3   OH230843   6.047   6.670   2.591 -0.4799 -0.8371 -0.2081
 3143TIP3    H130844   6.116   6.699   2.532  0.7474 -0.2415  1.4993
 3143TIP3    H230845   6.044   6.575   2.580 -0.7837 -0.6658 -1.7591
 3144TIP3   OH230846   4.562   6.057  15.975  0.5977 -0.2046 -0.7817
 3144TIP3    H130847   4.613   6.104  15.909  0.7079 -0.4860 -0.8966
 3144TIP3    H230848   4.493   6.118  16.000  1.9608  0.8195  0.5850
 3145TIP3   OH230849   2.177   1.224  15.734 -0.7128  0.1802 -0.2036
 3145TIP3    H130850   2.212   1.305  15.771  0.9941 -0.7186  0.2220
 3145TIP3    H230851   2.111   1.252  15.671 -0.2194  1.8901  0.0272
 3146TIP3   OH230852   0.959   2.571   0.137  0.0286  0.6273  0.1922
 3146TIP3    H130853   0.881   2.582   0.192  0.5413  0.1748  1.0246
 3146TIP3    H230854   1.031   2.602   0.191  0.4413  0.9698 -0.5457
 3147TIP3   OH230855   1.186   5.692  11.739 -0.1636  0.7493 -0.5826
 3147TIP3    H130856   1.178   5.667  11.647 -1.5464 -1.9138  0.2036
 3147TIP3    H230857   1.134   5.627  11.786  0.4624  2.1092  2.0837
 3148TIP3   OH230858   1.537   0.245  14.858 -0.4455 -0.0574 -0.3021
 3148TIP3    H130859   1.587   0.298  14.920 -1.6045 -0.2587  0.8387
 3148TIP3    H230860   1.595   0.172  14.837  0.1830  0.3187  0.1232
 3149TIP3   OH230861   3.899   2.451  14.659 -0.0968 -0.0507 -0.0887
 3149TIP3    H130862   3.843   2.440  14.736 -1.5505 -0.4228 -1.1749
 3149TIP3    H230863   3.850   2.509  14.602  1.1463  0.5259 -0.5790
 3150TIP3   OH230864   6.229   5.563  16.749  0.1135 -0.4534  0.0233
 3150TIP3    H130865   6.157   5.604  16.701 -0.7409 -0.9990  0.8363
 3150TIP3    H230866   6.274   5.636  16.792 -0.5533 -0.2208  0.3260
 3151TIP3   OH230867   0.918   2.881   5.312  0.1869  0.3431  0.4236
 3151TIP3    H130868   0.921   2.894   5.407  0.0070 -0.2586  0.5172
 3151TIP3    H230869   0.865   2.953   5.279 -0.8210 -0.1552  0.9234
 3152TIP3   OH230870   1.638   3.915   6.300  0.2305 -0.2912  0.5754
 3152TIP3    H130871   1.655   3.843   6.240 -1.0723  0.0853 -0.2653
 3152TIP3    H230872   1.560   3.888   6.348  0.4062  0.0644  1.0619
 3153TIP3   OH230873   2.405   5.766  14.615 -0.0253  0.2599 -0.2252
 3153TIP3    H130874   2.361   5.702  14.559 -0.2181 -0.7198  1.0245
 3153TIP3    H230875   2.435   5.834  14.555 -2.4613  0.5174 -1.2355
 3154TIP3   OH230876   1.328   4.662  14.301  0.3289  0.7210  0.1732
 3154TIP3    H130877   1.296   4.619  14.380  2.7123  0.4879  1.0432
 3154TIP3    H230878   1.340   4.591  14.238 -0.2091  0.7313  0.0535
 3155TIP3   OH230879   2.960   4.736  13.936  0.5078  0.3719 -0.1647
 3155TIP3    H130880   2.973   4.781  14.020 -2.8265 -0.2507  0.7760
 3155TIP3    H230881   3.028   4.668  13.935  1.5788  1.3835  1.3115
 3156TIP3   OH230882   2.606   4.258   0.071  0.1334 -0.2741  0.4755
 3156TIP3    H130883   2.549   4.332   0.090  2.0236  0.6736  2.6962
 3156TIP3    H230884   2.555   4.203   0.012 -2.6166  1.1121  1.4690
 3157TIP3   OH230885   0.581   4.472   2.804 -0.4487 -0.1643 -0.2296
 3157TIP3    H130886   0.586   4.469   2.709 -0.9280  1.6591 -0.3097
 3157TIP3    H230887   0.636   4.546   2.829 -1.5174  0.2895  0.8231
 3158TIP3   OH230888   1.746   0.592   5.673  0.2058  0.5514 -0.5677
 3158TIP3    H130889   1.811   0.601   5.604  1.0470  1.9595  0.3875
 3158TIP3    H230890   1.705   0.508   5.656  1.6774  0.0377 -1.7001
 3159TIP3   OH230891   1.434   3.015  16.948  0.1242 -0.4204  0.9493
 3159TIP3    H130892   1.511   2.999  17.003  0.4239 -2.1738  0.0784
 3159TIP3    H230893   1.361   3.022  17.010  0.7994  0.0228  1.7034
 3160TIP3   OH230894   0.666   3.856  12.464 -0.0634  0.0885  0.2422
 3160TIP3    H130895   0.747   3.907  12.468 -0.7908  1.2351  0.5079
 3160TIP3    H230896   0.596   3.921  12.459 -0.9629 -0.8892 -0.2788
 3161TIP3   OH230897   1.991   4.598  15.067 -0.0880 -0.3870  0.2697
 3161TIP3    H130898   2.076   4.639  15.078  0.1568 -1.0459  0.8351
 3161TIP3    H230899   2.005   4.505  15.088 -0.8594 -0.5736  0.0090
 3162TIP3   OH230900   0.702   5.056   1.425  0.4885 -0.5782 -0.4165
 3162TIP3    H130901   0.695   5.011   1.509 -2.0505 -0.0323 -0.2864
 3162TIP3    H230902   0.787   5.099   1.427  1.0996 -1.8208  1.2238
 3163TIP3   OH230903   0.350   4.881  14.870 -0.5217 -0.3446  0.0761
 3163TIP3    H130904   0.390   4.965  14.848  0.9551 -0.8141  0.9135
 3163TIP3    H230905   0.272   4.904  14.920 -1.4637  0.5896 -1.7421
 3164TIP3   OH230906   5.584   0.715   4.295 -0.3181  0.1897  0.3027
 3164TIP3    H130907   5.524   0.741   4.365 -1.7694  1.1593 -1.2480
 3164TIP3    H230908   5.586   0.790   4.236  0.4153 -0.8099 -0.9809
 3165TIP3   OH230909   0.415   5.855   4.517  0.2634  0.7962 -0.4326
 3165TIP3    H130910   0.485   5.797   4.485  0.5664  0.3811  0.9682
 3165TIP3    H230911   0.358   5.867   4.441  0.3045 -1.1835 -0.8194
 3166TIP3   OH230912   0.080   6.780   3.436 -0.0318 -0.2649  0.0995
 3166TIP3    H130913   0.165   6.813   3.466  0.3923  0.4632 -1.8312
 3166TIP3    H230914   0.100   6.693   3.400 -0.4713 -0.9693  1.5192
 3167TIP3   OH230915   5.973   5.016  14.966 -0.0362  0.5064 -0.2898
 3167TIP3    H130916   5.948   5.108  14.977 -0.5780  0.3668 -0.3264
 3167TIP3    H230917   5.957   4.998  14.874 -0.5688  0.1876 -0.1354
 3168TIP3   OH230918   6.517   6.037  16.532  0.0930 -0.1498  0.4622
 3168TIP3    H130919   6.542   6.129  16.526  0.5430 -0.3646 -1.1110
 3168TIP3    H230920   6.594   5.989  16.502 -1.3365 -0.9029 -2.2211
 3169TIP3   OH230921   1.608   2.990   0.179 -0.2671 -0.7734  0.1484
 3169TIP3    H130922   1.592   3.071   0.228  0.0249 -0.9301  0.5048
 3169TIP3    H230923   1.636   3.020   0.093 -0.1052 -0.4958  0.2968
 3170TIP3   OH230924   0.199   5.403  12.686  0.3587  0.0400 -0.2108
 3170TIP3    H130925   0.173   5.316  12.656 -0.0095  0.0153  0.1662
 3170TIP3    H230926   0.117   5.453  12.689  0.5976  0.4516 -0.6001
 3171TIP3   OH230927   2.148   2.779   1.467  0.0456  0.9421 -0.3515
 3171TIP3    H130928   2.156   2.734   1.551  3.2506  3.4611  0.7770
 3171TIP3    H230929   2.164   2.711   1.402  0.0411 -0.5144  1.1269
 3172TIP3   OH230930   5.304   0.743  15.883 -0.5508 -0.1163 -0.2248
 3172TIP3    H130931   5.278   0.651  15.889  0.0211 -0.4771 -2.7913
 3172TIP3    H230932   5.222   0.792  15.891 -0.8985 -0.8528  0.7919
 3173TIP3   OH230933   4.432   1.167   4.496 -0.5673 -0.2694  0.6879
 3173TIP3    H130934   4.465   1.120   4.420  0.1778 -0.2493  0.9938
 3173TIP3    H230935   4.371   1.232   4.460 -0.2529 -0.2865  0.1208
 3174TIP3   OH230936   6.199   1.737   1.070 -0.4260 -0.5206  0.3858
 3174TIP3    H130937   6.145   1.777   1.003 -1.3928 -1.1715  0.7573
 3174TIP3    H230938   6.163   1.648   1.080  1.2471 -1.2541  0.0381
 3175TIP3   OH230939   3.620   5.798   2.089  0.3218 -0.3676 -0.0864
 3175TIP3    H130940   3.700   5.746   2.093  1.0406  0.7840  0.9172
 3175TIP3    H230941   3.573   5.765   2.012  2.0317 -0.6458 -1.0155
 3176TIP3   OH230942   2.775   1.104  15.441 -0.0915 -0.4297 -0.3679
 3176TIP3    H130943   2.690   1.059  15.446  0.9256 -2.2141  1.9641
 3176TIP3    H230944   2.786   1.144  15.527  1.1946  0.2335 -0.8321
 3177TIP3   OH230945   5.635   0.215  11.247 -0.0283  0.0292  0.0789
 3177TIP3    H130946   5.564   0.269  11.281  0.8795  1.3978 -0.1723
 3177TIP3    H230947   5.604   0.187  11.161 -0.2454  0.6755 -0.0603
 3178TIP3   OH230948   6.123   0.273  11.566 -0.1928  0.1044 -0.0533
 3178TIP3    H130949   6.127   0.369  11.564 -1.4185  0.1417 -1.7681
 3178TIP3    H230950   6.031   0.254  11.586  0.0399 -0.7241  0.2450
 3179TIP3   OH230951   1.600   3.679  13.941  0.0494  0.1550  0.2827
 3179TIP3    H130952   1.664   3.669  13.870  1.7650  1.8899  1.5067
 3179TIP3    H230953   1.630   3.618  14.009 -0.1129  0.3112  0.4958
 3180TIP3   OH230954   4.300   6.275  10.943  0.0505 -0.0706 -0.8978
 3180TIP3    H130955   4.348   6.203  10.904 -0.1795 -0.1445 -1.0446
 3180TIP3    H230956   4.237   6.302  10.875 -0.5157 -0.3600 -0.4877
 3181TIP3   OH230957   0.807   2.191  13.704 -0.0039  0.0826 -0.5988
 3181TIP3    H130958   0.858   2.112  13.687  0.4461  0.5632 -1.5256
 3181TIP3    H230959   0.776   2.219  13.617  0.0023  1.0296 -0.3061
 3182TIP3   OH230960   6.495   4.331   2.984 -0.6498 -0.0770  0.1918
 3182TIP3    H130961   6.517   4.372   2.900 -0.2349  1.2279  0.9114
 3182TIP3    H230962   6.545   4.249   2.984 -0.2627  0.1495 -0.6284
 3183TIP3   OH230963   4.129   4.904   0.348  0.4720 -0.0524  0.3943
 3183TIP3    H130964   4.062   4.946   0.403  0.7175  0.7976  0.0328
 3183TIP3    H230965   4.134   4.958   0.270  2.0519  0.2489  0.6964
 3184TIP3   OH230966   6.755   2.352   3.479  0.4367  0.5577  0.5468
 3184TIP3    H130967   6.720   2.402   3.553  1.5117 -1.2592  2.3377
 3184TIP3    H230968   6.696   2.277   3.471  0.4866  0.6036 -0.2735
 3185TIP3   OH230969   2.029   3.983   2.976 -0.9361 -0.0977  0.2962
 3185TIP3    H130970   2.028   4.037   2.897 -1.3551 -0.4045  0.0842
 3185TIP3    H230971   1.975   4.032   3.038 -0.2894  0.3328  0.5269
 3186TIP3   OH230972   5.520   5.335   1.100 -0.3018  0.0641  0.3129
 3186TIP3    H130973   5.534   5.353   1.193  1.2538 -1.9261  0.4962
 3186TIP3    H230974   5.488   5.245   1.098 -0.9660  0.3181 -1.0528
 3187TIP3   OH230975   5.265   1.571   4.217  0.0272  0.1235 -0.2604
 3187TIP3    H130976   5.337   1.572   4.154  1.5970 -0.1384  1.5036
 3187TIP3    H230977   5.213   1.649   4.194  1.6656  1.1392 -0.6367
 3188TIP3   OH230978   5.678   5.545   5.506  0.1423 -0.6484 -0.4510
 3188TIP3    H130979   5.758   5.503   5.473 -0.0022 -0.1446 -1.4515
 3188TIP3    H230980   5.640   5.588   5.429  0.0449  0.9286  0.4635
 3189TIP3   OH230981   2.293   2.906  12.051  0.3410 -0.0211  0.3678
 3189TIP3    H130982   2.355   2.979  12.041  1.3774 -0.8943  0.2195
 3189TIP3    H230983   2.346   2.835  12.087 -0.9231 -0.3474  1.6048
 3190TIP3   OH230984   1.187   2.921   4.064  0.1795  0.2726 -0.2047
 3190TIP3    H130985   1.169   2.858   4.134  1.6209  0.5102  0.3976
 3190TIP3    H230986   1.152   3.004   4.096  0.2797  0.2464 -0.0271
 3191TIP3   OH230987   0.668   1.330  11.739  0.0328  0.9808 -0.2298
 3191TIP3    H130988   0.752   1.370  11.713  0.1049  0.6616 -0.4877
 3191TIP3    H230989   0.649   1.267  11.670 -0.5232  1.1920 -0.2755
 3192TIP3   OH230990   6.182   5.328  14.026 -0.7648 -0.3799 -0.3163
 3192TIP3    H130991   6.154   5.400  13.969 -1.7874 -0.1299  0.4924
 3192TIP3    H230992   6.193   5.368  14.112  1.7619 -0.5464 -0.5280
 3193TIP3   OH230993   1.292   0.274  14.199 -0.0674 -0.0941 -0.9840
 3193TIP3    H130994   1.308   0.230  14.115 -1.4268 -0.5835 -0.9970
 3193TIP3    H230995   1.198   0.267  14.212 -0.3021  2.6966 -0.9173
 3194TIP3   OH230996   5.179   0.216  12.505  0.6032  0.3487 -0.2837
 3194TIP3    H130997   5.235   0.161  12.561  0.8282  0.0218 -0.8239
 3194TIP3    H230998   5.156   0.159  12.431 -0.2670  0.5527 -0.1762
 3195TIP3   OH230999   4.304   1.205   1.349  0.3361 -0.3988 -0.2916
 3195TIP3    H131000   4.212   1.187   1.332  0.6948 -1.2112 -1.4355
 3195TIP3    H231001   4.349   1.123   1.327  1.1993 -0.3971  1.4115
 3196TIP3   OH231002   0.957   0.127  11.919 -0.1260  0.4148 -0.0826
 3196TIP3    H131003   0.922   0.172  11.995  2.1194 -0.1141  1.3032
 3196TIP3    H231004   0.922   0.038  11.925  2.2336 -0.4395  1.9175
 3197TIP3   OH231005   4.009   3.389   3.462  0.6108  0.2246  0.0378
 3197TIP3    H131006   3.949   3.429   3.525  2.2757  0.4258  1.5363
 3197TIP3    H231007   3.956   3.325   3.416 -0.6149 -0.0761  1.8104
 3198TIP3   OH231008   2.072   5.313  14.801 -0.0851  0.3787 -0.1106
 3198TIP3    H131009   2.112   5.242  14.850 -0.2564 -0.3911 -1.0726
 3198TIP3    H231010   2.070   5.282  14.710  0.0793  1.7010 -0.5933
 3199TIP3   OH231011   4.120   0.094   1.240  0.2020  0.7141 -0.3211
 3199TIP3    H131012   4.090   0.004   1.232 -0.5047  0.8608  0.6827
 3199TIP3    H231013   4.068   0.143   1.177  0.7524  0.3895 -1.0368
 3200TIP3   OH231014   6.701   0.947  14.375 -0.3037  0.5248 -0.3374
 3200TIP3    H131015   6.774   1.002  14.404 -0.1201  0.3791 -0.5270
 3200TIP3    H231016   6.627   1.008  14.368 -0.2313  0.6476 -0.0237
 3201TIP3   OH231017   0.694   2.730  15.043  0.4656  0.2383 -0.2766
 3201TIP3    H131018   0.635   2.671  15.088 -0.2231 -0.3758 -1.9334
 3201TIP3    H231019   0.768   2.741  15.103 -0.0147 -1.2311  0.6095
 3202TIP3   OH231020   2.859   5.390   0.411 -0.2766 -0.0865  0.6013
 3202TIP3    H131021   2.821   5.462   0.461 -0.4978  1.4323 -1.6506
 3202TIP3    H231022   2.850   5.313   0.467 -0.2487  1.5926  2.9714
 3203TIP3   OH231023   0.730   0.607   4.676 -0.4856 -0.3613  0.2953
 3203TIP3    H131024   0.813   0.563   4.658 -0.5356 -0.2678 -0.1924
 3203TIP3    H231025   0.696   0.565   4.755  0.1075 -0.2809  0.5914
 3204TIP3   OH231026   5.065   5.766  13.046  0.5949 -0.3238 -0.6627
 3204TIP3    H131027   5.149   5.724  13.061 -0.5782 -2.2849  0.5623
 3204TIP3    H231028   5.014   5.702  12.996 -1.2244 -0.3948  1.2315
 3205TIP3   OH231029   4.057   5.973  14.412  0.1992  0.1142 -0.0301
 3205TIP3    H131030   3.983   5.971  14.352  1.8798 -2.3291 -2.1076
 3205TIP3    H231031   4.028   5.925  14.489 -0.7957  0.3142 -0.2756
 3206TIP3   OH231032   2.318   1.535  15.023  1.0283  0.0858  0.4730
 3206TIP3    H131033   2.267   1.506  14.947  0.1029 -3.3298  2.3219
 3206TIP3    H231034   2.257   1.587  15.074  1.8167  2.8983 -1.3115
 3207TIP3   OH231035   0.107   0.222  12.656  0.5577 -0.3643 -0.1558
 3207TIP3    H131036   0.177   0.206  12.593  0.3864 -0.4971 -0.3081
 3207TIP3    H231037   0.067   0.304  12.628  0.2414 -0.6152 -0.4318
 3208TIP3   OH231038   3.754   4.783   0.234 -0.5570 -0.4064 -0.4690
 3208TIP3    H131039   3.704   4.720   0.285 -1.1834  0.7423  0.3654
 3208TIP3    H231040   3.842   4.782   0.272 -0.7852 -0.1940  0.0639
 3209TIP3   OH231041   6.777   2.364  12.566 -0.6060  0.1226  0.4326
 3209TIP3    H131042   6.867   2.377  12.533 -0.3592  0.2833  1.1588
 3209TIP3    H231043   6.777   2.406  12.652 -1.5680  0.6996  0.1569
 3210TIP3   OH231044   4.750   5.900   1.998 -0.0857 -0.2070 -0.1487
 3210TIP3    H131045   4.807   5.911   1.922 -0.2097  1.2011 -0.0461
 3210TIP3    H231046   4.661   5.910   1.963 -0.1062  1.3018  0.3210
 3211TIP3   OH231047   3.434   0.588   2.616  0.1373  0.4003  0.2590
 3211TIP3    H131048   3.520   0.553   2.593  0.4799  1.9838 -0.9471
 3211TIP3    H231049   3.374   0.550   2.551  0.0350 -0.1153  0.6480
 3212TIP3   OH231050   5.362   5.284  10.348 -0.0047 -1.0604  0.3730
 3212TIP3    H131051   5.368   5.379  10.360  4.2126 -1.2206  0.4167
 3212TIP3    H231052   5.328   5.252  10.431 -2.7915  0.4446 -0.1045
 3213TIP3   OH231053   4.293   5.669   1.644 -0.2055 -0.9464  0.0042
 3213TIP3    H131054   4.222   5.704   1.590 -0.5279 -1.3620  0.1549
 3213TIP3    H231055   4.256   5.666   1.732 -0.0117 -1.2037  0.0747
 3214TIP3   OH231056   0.263   4.737  16.200  0.1514  1.0357 -0.3855
 3214TIP3    H131057   0.334   4.673  16.195  0.4633  1.2918  0.7164
 3214TIP3    H231058   0.295   4.813  16.151 -0.6752 -0.0466 -2.6965
 3215TIP3   OH231059   5.456   2.175  11.027 -0.7223  0.2178  0.7567
 3215TIP3    H131060   5.430   2.216  10.944 -2.0310  0.0122  1.0600
 3215TIP3    H231061   5.498   2.245  11.076 -0.2931  0.4430  0.0830
 3216TIP3   OH231062   3.981   2.635   2.342 -0.2000 -0.3658 -0.3427
 3216TIP3    H131063   3.939   2.662   2.260 -0.2605  1.7979  0.3779
 3216TIP3    H231064   4.075   2.652   2.327  0.0140 -1.7964 -0.6542
 3217TIP3   OH231065   6.120   4.972   0.658  0.1336  0.4846  0.4661
 3217TIP3    H131066   6.090   4.881   0.652  2.3802 -0.3388  1.2284
 3217TIP3    H231067   6.042   5.024   0.640 -1.4334 -1.5866  1.0701
 3218TIP3   OH231068   3.286   3.776   5.423 -0.0509  0.4740 -0.1887
 3218TIP3    H131069   3.323   3.711   5.483  2.9751  0.6908 -1.7640
 3218TIP3    H231070   3.308   3.860   5.462 -1.2779  0.6202  0.2335
 3219TIP3   OH231071   5.756   6.496  13.846 -0.2913  0.0671  0.0123
 3219TIP3    H131072   5.663   6.488  13.827 -0.4060 -1.2430  1.0860
 3219TIP3    H231073   5.780   6.413  13.886  1.1335  0.7292  0.5746
 3220TIP3   OH231074   6.097   0.130  16.649 -0.7684 -0.4957  0.0664
 3220TIP3    H131075   6.189   0.118  16.623 -0.3564  0.6496  0.9523
 3220TIP3    H231076   6.047   0.113  16.569  0.2173 -0.9537 -0.4655
 3221TIP3   OH231077   6.692   6.119   3.260  0.4254  0.1693  0.0651
 3221TIP3    H131078   6.722   6.069   3.336 -0.1192  3.5199  2.6074
 3221TIP3    H231079   6.612   6.161   3.289 -1.7862 -1.2717 -3.6025
 3222TIP3   OH231080   6.407   3.096   4.106  0.5159 -0.6613  0.1961
 3222TIP3    H131081   6.386   3.006   4.132  2.8605 -0.6075  2.4326
 3222TIP3    H231082   6.462   3.087   4.029 -0.0686 -1.0923 -0.1767
 3223TIP3   OH231083   5.774   0.229  16.520  0.1649  0.1244 -0.0422
 3223TIP3    H131084   5.785   0.194  16.609 -2.0651 -0.4067  0.0344
 3223TIP3    H231085   5.731   0.159  16.471  0.1981  0.8992 -1.2055
 3224TIP3   OH231086   4.617   0.499  16.504 -0.2478 -0.2103  0.2517
 3224TIP3    H131087   4.669   0.490  16.425 -0.1008 -0.5271  0.3879
 3224TIP3    H231088   4.676   0.473  16.575 -0.7023 -0.9158  0.3708
 3225TIP3   OH231089   1.757   3.830   2.294  0.5912 -0.0992 -0.3549
 3225TIP3    H131090   1.810   3.768   2.245  0.9808  0.9216 -1.2632
 3225TIP3    H231091   1.787   3.822   2.384  0.9677 -0.8749 -0.5445
 3226TIP3   OH231092   4.390   2.713   5.866 -0.8850 -0.2514  0.5829
 3226TIP3    H131093   4.455   2.654   5.905  1.7011  2.2352  0.2169
 3226TIP3    H231094   4.372   2.674   5.780  0.3609 -0.8112  0.5567
 3227TIP3   OH231095   6.300   5.859  14.968  0.5922  0.5113 -0.4463
 3227TIP3    H131096   6.385   5.889  14.936  0.4313  1.4729  0.0095
 3227TIP3    H231097   6.270   5.797  14.902  1.1843  0.9465 -1.1363
 3228TIP3   OH231098   5.938   1.935   5.182  0.1926  0.4042 -0.5003
 3228TIP3    H131099   5.932   1.906   5.091  1.9289 -2.7837  0.3422
 3228TIP3    H231100   5.890   2.018   5.183 -1.0864 -0.1865 -3.9979
 3229TIP3   OH231101   1.284   3.604  13.724 -0.9458  0.6913 -0.0076
 3229TIP3    H131102   1.266   3.626  13.815 -2.7179 -1.4020  0.1608
 3229TIP3    H231103   1.207   3.634  13.676 -0.3287  1.1458 -0.7294
 3230TIP3   OH231104   2.555   3.980   0.063  0.1661  0.3878  0.1083
 3230TIP3    H131105   2.643   3.992   0.029  0.3970  0.6837  0.8001
 3230TIP3    H231106   2.557   4.021   0.150 -0.6692  0.4534  0.0986
 3231TIP3   OH231107   6.746   5.309   0.973 -0.5150  0.1191  0.2671
 3231TIP3    H131108   6.718   5.258   0.897  0.8060  0.8578 -0.7435
 3231TIP3    H231109   6.802   5.378   0.937 -0.9959  1.3385  1.7706
 3232TIP3   OH231110   0.491   0.670  10.999 -0.9635 -0.2933  0.7641
 3232TIP3    H131111   0.405   0.628  11.000 -1.2533  0.2928  0.4062
 3232TIP3    H231112   0.532   0.643  11.082 -1.1801 -1.2146  0.5752
 3233TIP3   OH231113   4.167   1.071   3.497 -0.4203 -0.2539  0.0648
 3233TIP3    H131114   4.169   1.101   3.406  1.4605  1.9106  0.7560
 3233TIP3    H231115   4.251   1.100   3.533 -0.5332 -2.3495  2.0953
 3234TIP3   OH231116   2.811   2.647   2.604  0.2508  0.0403  0.2594
 3234TIP3    H131117   2.808   2.736   2.567  1.6778  0.9789  2.2884
 3234TIP3    H231118   2.882   2.604   2.557  0.0318  0.2027 -0.2289
 3235TIP3   OH231119   0.145   4.980  15.297  0.3101  0.3467  0.1580
 3235TIP3    H131120   0.158   4.992  15.391  0.7036 -1.0005  0.2932
 3235TIP3    H231121   0.164   5.065  15.258  0.1694  0.8983  1.3000
 3236TIP3   OH231122   5.848   5.440  12.308  0.1860 -0.4884  0.1823
 3236TIP3    H131123   5.902   5.517  12.291  1.1457 -1.2966 -0.5023
 3236TIP3    H231124   5.795   5.430  12.229  0.4575 -0.8600  0.0500
 3237TIP3   OH231125   5.726   1.773   2.615  0.6130 -0.3820  0.0787
 3237TIP3    H131126   5.660   1.841   2.601  0.5089 -1.0719 -3.4124
 3237TIP3    H231127   5.675   1.692   2.623  0.9094 -0.5648  0.1176
 3238TIP3   OH231128   4.007   1.626   3.765 -0.1364  0.6522 -0.0204
 3238TIP3    H131129   4.017   1.600   3.674 -1.3303 -2.9569  0.8017
 3238TIP3    H231130   3.942   1.696   3.762  0.4419  1.1418 -2.0122
 3239TIP3   OH231131   6.214   6.050   4.563 -0.1042 -0.3494  0.1968
 3239TIP3    H131132   6.226   5.955   4.559  0.5869 -0.3075  1.0487
 3239TIP3    H231133   6.214   6.078   4.472 -0.8126 -1.2220 -0.0840
 3240TIP3   OH231134   1.407   0.393  12.973 -0.5156 -0.2936 -0.3414
 3240TIP3    H131135   1.402   0.298  12.960 -2.0933 -0.7821  3.3061
 3240TIP3    H231136   1.332   0.427  12.923  0.9557 -0.7236 -2.9631
 3241TIP3   OH231137   3.124   1.178  17.009  0.1362  0.1230  0.0646
 3241TIP3    H131138   3.097   1.270  17.016  1.9493  0.7289 -0.5621
 3241TIP3    H231139   3.152   1.155  17.098 -0.5632  0.0772  0.2817
 3242TIP3   OH231140   4.618   3.046   3.989  0.0810  0.1007  0.1195
 3242TIP3    H131141   4.670   2.974   4.026  1.1927  0.5237 -0.5904
 3242TIP3    H231142   4.548   3.060   4.052  1.1014 -0.1669  1.3377
 3243TIP3   OH231143   6.005   2.601   4.919 -0.4904 -0.0485 -0.1250
 3243TIP3    H131144   6.012   2.694   4.941  2.1496 -0.4041  0.6029
 3243TIP3    H231145   6.080   2.583   4.862 -1.6100 -1.4918 -1.2039
 3244TIP3   OH231146   0.451   0.533   2.090  0.3550 -0.0031  0.1294
 3244TIP3    H131147   0.391   0.599   2.056 -0.1474 -0.6224 -0.1885
 3244TIP3    H231148   0.519   0.524   2.023 -0.0022 -0.3767 -0.1836
 3245TIP3   OH231149   4.167   4.814   5.329 -0.1622  0.2831 -0.1386
 3245TIP3    H131150   4.229   4.878   5.364 -2.6975  2.9050 -0.3057
 3245TIP3    H231151   4.202   4.729   5.358  2.0638  1.8445  1.9718
 3246TIP3   OH231152   5.137   4.090   6.421 -0.0130 -0.2260 -0.0299
 3246TIP3    H131153   5.159   4.002   6.450 -1.3922 -0.5518  0.0765
 3246TIP3    H231154   5.042   4.097   6.434 -0.1108  0.8536 -1.1741
 3247TIP3   OH231155   4.827   5.061  13.318 -0.4572 -0.0425 -0.8526
 3247TIP3    H131156   4.855   5.007  13.244  0.5230 -0.3594 -0.2541
 3247TIP3    H231157   4.781   5.001  13.376 -0.2190 -0.0271 -0.6505
 3248TIP3   OH231158   5.439   6.623   3.075 -0.3651  0.0488  0.1144
 3248TIP3    H131159   5.528   6.644   3.049  0.1719 -1.7638  0.3891
 3248TIP3    H231160   5.387   6.636   2.995 -0.3498  3.6477  0.6123
 3249TIP3   OH231161   2.966   4.700   4.995  0.1097 -0.0187  0.5189
 3249TIP3    H131162   2.874   4.689   5.020 -1.0058  2.4161 -2.1458
 3249TIP3    H231163   2.983   4.793   5.007  2.3569 -0.5158  1.3322
 3250TIP3   OH231164   0.838   4.388  16.820  0.1034 -0.3656  0.4311
 3250TIP3    H131165   0.814   4.304  16.780  0.4655  0.2207 -1.0553
 3250TIP3    H231166   0.822   4.452  16.751 -0.0112  0.7706  1.5055
 3251TIP3   OH231167   3.874   6.153   2.143  0.0212 -0.1066 -0.5188
 3251TIP3    H131168   3.895   6.211   2.069  1.0364 -0.8128 -0.7860
 3251TIP3    H231169   3.817   6.206   2.199  0.7064  1.0619 -0.9067
 3252TIP3   OH231170   5.869   2.838   1.112 -0.0469 -0.1615 -0.2630
 3252TIP3    H131171   5.941   2.900   1.100  0.4846 -0.6879  0.1627
 3252TIP3    H231172   5.857   2.797   1.026  0.7795 -0.7309 -0.1118
 3253TIP3   OH231173   5.103   4.491   1.732  0.4618  0.2456  0.0126
 3253TIP3    H131174   5.072   4.404   1.758  0.9949  0.8380  2.8201
 3253TIP3    H231175   5.198   4.485   1.735  0.5108  0.7416 -0.4557
 3254TIP3   OH231176   6.486   3.628  11.083  0.4661  0.4578 -0.0325
 3254TIP3    H131177   6.463   3.633  10.991  0.7637  0.5550 -0.1011
 3254TIP3    H231178   6.506   3.536  11.098  0.7098  0.4967 -0.1328
 3255TIP3   OH231179   3.930   3.550  11.864 -0.0769  0.3975 -0.0115
 3255TIP3    H131180   3.915   3.620  11.801  1.1847  0.1030 -0.6649
 3255TIP3    H231181   4.011   3.509  11.835 -0.0074 -0.3785  1.2319
 3256TIP3   OH231182   1.510   4.205  14.870 -0.2794 -0.2227  0.4798
 3256TIP3    H131183   1.584   4.242  14.822 -0.9075  0.7262  0.2315
 3256TIP3    H231184   1.550   4.151  14.938  0.6598  0.9443  0.8740
 3257TIP3   OH231185   5.237   6.197   5.520  0.3784  0.0743  0.2992
 3257TIP3    H131186   5.157   6.249   5.512  0.7975  0.9185  1.5244
 3257TIP3    H231187   5.304   6.259   5.549  1.4288 -0.6726 -0.4943
 3258TIP3   OH231188   0.432   2.627   5.373  0.5280 -0.1411 -0.2796
 3258TIP3    H131189   0.466   2.571   5.442 -0.8665 -0.0798  0.4790
 3258TIP3    H231190   0.470   2.713   5.391  1.4969 -0.4913 -0.5895
 3259TIP3   OH231191   2.110   2.231   0.368 -0.2492  0.0886  0.0703
 3259TIP3    H131192   2.084   2.172   0.439 -1.6582  2.5131  1.6421
 3259TIP3    H231193   2.044   2.218   0.300 -0.6828 -0.0046  0.5092
 3260TIP3   OH231194   5.531   1.295   2.663  0.0624 -0.4067  0.4014
 3260TIP3    H131195   5.546   1.211   2.706 -0.8716 -1.0368 -0.4429
 3260TIP3    H231196   5.579   1.358   2.715  1.2031 -1.5467  0.7577
 3261TIP3   OH231197   2.870   1.890   2.042 -0.1894  0.2389  0.3205
 3261TIP3    H131198   2.932   1.817   2.040  0.6336  0.9104  1.0804
 3261TIP3    H231199   2.835   1.889   2.131 -1.6530 -0.4437 -0.2463
 3262TIP3   OH231200   3.228   3.423   4.916  0.0429  0.8207 -0.4002
 3262TIP3    H131201   3.246   3.517   4.928  0.0118  0.9121 -1.0335
 3262TIP3    H231202   3.312   3.387   4.887  0.5545  0.3114  1.6098
 3263TIP3   OH231203   5.575   5.311   6.229 -0.2796 -0.0333 -0.5393
 3263TIP3    H131204   5.636   5.268   6.290 -1.5996 -0.7903  0.2825
 3263TIP3    H231205   5.508   5.246   6.213 -1.1005  0.9377 -1.0963
 3264TIP3   OH231206   6.136   1.863   3.010 -0.2575 -0.1566  0.0479
 3264TIP3    H131207   6.227   1.883   3.031 -0.0082  0.0537 -1.1830
 3264TIP3    H231208   6.094   1.949   3.002 -0.4891 -0.2458  0.2792
 3265TIP3   OH231209   0.669   5.566   1.584 -0.2744 -0.2884  1.2336
 3265TIP3    H131210   0.692   5.564   1.491  0.9636 -0.2705  1.5280
 3265TIP3    H231211   0.689   5.655   1.612  0.8617 -0.7375  1.8809
 3266TIP3   OH231212   2.558   5.314  14.736 -0.6443  0.3476 -0.3686
 3266TIP3    H131213   2.492   5.273  14.681 -1.8709  1.1411  0.4979
 3266TIP3    H231214   2.531   5.293  14.826  1.2339 -0.7944 -0.0490
 3267TIP3   OH231215   4.717   4.495  16.256 -0.0401 -0.0132  0.4764
 3267TIP3    H131216   4.787   4.496  16.321 -0.3188 -2.1551  0.8439
 3267TIP3    H231217   4.668   4.576  16.272  1.6254  0.9187  0.9835
 3268TIP3   OH231218   1.759   1.708  15.791  0.0119  0.0308  0.0055
 3268TIP3    H131219   1.697   1.694  15.720  0.3453  0.4923 -0.3809
 3268TIP3    H231220   1.705   1.716  15.869 -0.8152  5.1893 -0.9370
 3269TIP3   OH231221   0.974   3.129   3.018  0.8101 -0.7292  0.4345
 3269TIP3    H131222   0.890   3.175   3.020  0.4597 -1.3478 -0.1817
 3269TIP3    H231223   1.035   3.194   2.981  0.0973 -1.0986 -1.4560
 3270TIP3   OH231224   1.226   3.265   2.893  0.4242 -0.1707  0.1449
 3270TIP3    H131225   1.167   3.339   2.905  0.0086 -0.7542  1.8607
 3270TIP3    H231226   1.291   3.296   2.829 -1.3890  0.6609 -1.3238
 3271TIP3   OH231227   3.915   0.951   0.940  0.1890  0.0128 -0.3379
 3271TIP3    H131228   3.857   0.945   0.865 -0.4040 -2.3336  0.2777
 3271TIP3    H231229   3.959   0.867   0.944 -0.3713 -0.1944  2.3900
 3272TIP3   OH231230   3.353   6.137  12.816  0.0957 -0.7418 -0.0516
 3272TIP3    H131231   3.331   6.201  12.748  1.1632 -1.1786 -0.8356
 3272TIP3    H231232   3.432   6.094  12.783  1.3260 -0.1396  2.0179
 3273TIP3   OH231233   5.555   4.358   2.415  0.3164  0.0879 -0.5107
 3273TIP3    H131234   5.469   4.325   2.390  0.2344  0.7230 -1.0891
 3273TIP3    H231235   5.604   4.361   2.333  0.7715  0.0502 -0.2365
 3274TIP3   OH231236   5.997   4.730   2.713 -0.1474 -0.4525 -0.1885
 3274TIP3    H131237   6.055   4.656   2.728  0.1862 -0.3644 -1.0400
 3274TIP3    H231238   6.036   4.777   2.640  0.4474  1.4049  1.2980
 3275TIP3   OH231239   0.049   0.969   0.519 -0.0277 -0.7137  0.7963
 3275TIP3    H131240   0.077   1.053   0.557  1.0120 -0.4175 -0.5930
 3275TIP3    H231241  -0.043   0.961   0.546 -0.2667  1.0716  0.6120
 3276TIP3   OH231242   4.977   1.929   2.060 -0.6436 -0.1930 -0.2928
 3276TIP3    H131243   4.912   1.962   1.997 -0.1792 -0.1537 -0.7587
 3276TIP3    H231244   5.060   1.962   2.027 -0.1285 -2.0751 -0.9429
 3277TIP3   OH231245   4.140   4.851   3.658  0.1151 -0.8477 -0.5002
 3277TIP3    H131246   4.159   4.757   3.647  0.9174 -0.8867  1.0386
 3277TIP3    H231247   4.096   4.856   3.743  0.6823  0.2422 -0.2697
 3278TIP3   OH231248   2.854   3.945  16.689  0.4746  0.6442  0.0433
 3278TIP3    H131249   2.882   3.910  16.604 -0.9900 -0.2884 -0.0731
 3278TIP3    H231250   2.866   4.040  16.681  1.7856  0.4376 -0.6536
 3279TIP3   OH231251   5.977   4.512  13.458  0.3968 -0.4205  0.3603
 3279TIP3    H131252   5.912   4.498  13.389  2.0495  1.2845 -1.6125
 3279TIP3    H231253   5.971   4.434  13.514 -1.0621 -1.7643 -1.6328
 3280TIP3   OH231254   0.061   5.208  14.796  0.1701  0.1950  0.3384
 3280TIP3    H131255  -0.017   5.225  14.744  2.1832  1.0219 -2.5363
 3280TIP3    H231256   0.043   5.126  14.842 -1.5961 -0.6370 -1.8071
 3281TIP3   OH231257   2.699   1.030   4.293 -0.0816  0.1233  0.2964
 3281TIP3    H131258   2.766   1.074   4.241  1.2314 -1.0310  0.9752
 3281TIP3    H231259   2.644   0.985   4.229  0.3405  0.3162 -0.1994
 3282TIP3   OH231260   2.387   0.299   4.138  0.3872 -0.0154  0.0600
 3282TIP3    H131261   2.406   0.206   4.128  3.4101  0.7411 -1.8037
 3282TIP3    H231262   2.430   0.341   4.064  0.8769  3.1008  2.0168
 3283TIP3   OH231263   4.547   2.975  16.037  0.2750 -0.2340 -0.2855
 3283TIP3    H131264   4.460   2.969  16.076  0.9401  2.7346  1.7910
 3283TIP3    H231265   4.602   2.917  16.090 -0.3451 -1.9597 -1.4791
 3284TIP3   OH231266   1.136   3.097   1.724  0.6680 -0.1269  0.4244
 3284TIP3    H131267   1.107   3.179   1.684 -0.5264 -1.0252 -0.5976
 3284TIP3    H231268   1.227   3.114   1.750  0.0986  1.8534  1.2186
 3285TIP3   OH231269   0.655   0.671  16.147  0.2157  0.0961  0.0395
 3285TIP3    H131270   0.730   0.670  16.206  0.2625  0.9133  0.0013
 3285TIP3    H231271   0.649   0.581  16.114 -0.4628 -0.6444  2.0944
 3286TIP3   OH231272   0.658   3.585   2.216 -0.3024  0.3310  0.0069
 3286TIP3    H131273   0.707   3.667   2.214  1.3455 -0.6365 -0.0681
 3286TIP3    H231274   0.725   3.517   2.218 -1.6430 -0.9874  1.3308
 3287TIP3   OH231275   3.235   4.620  12.219 -0.4605  0.0065  0.3398
 3287TIP3    H131276   3.260   4.567  12.144 -1.0518 -0.2050  0.2910
 3287TIP3    H231277   3.254   4.710  12.192  0.0617 -0.1332  0.2348
 3288TIP3   OH231278   0.816   0.745   3.750  0.0095  0.8039 -0.2357
 3288TIP3    H131279   0.885   0.686   3.720 -1.6728 -1.1913 -0.2917
 3288TIP3    H231280   0.835   0.759   3.843 -0.2188 -0.7172  0.0410
 3289TIP3   OH231281   2.819   3.489  13.734  0.4988  0.0673 -0.6162
 3289TIP3    H131282   2.853   3.577  13.722 -0.6605  0.4478 -1.2900
 3289TIP3    H231283   2.896   3.434  13.749  1.2182  1.1995 -0.1659
 3290TIP3   OH231284   1.312   3.189  12.164  0.0374 -0.2091 -0.8515
 3290TIP3    H131285   1.317   3.094  12.153 -1.1000 -0.2930 -0.7381
 3290TIP3    H231286   1.226   3.212  12.128 -0.4318  0.5407  0.7170
 3291TIP3   OH231287   3.360   1.002   4.279 -0.0275 -0.0649  0.5028
 3291TIP3    H131288   3.455   0.997   4.277  0.1422  1.8638  2.0623
 3291TIP3    H231289   3.334   1.013   4.188  1.0605 -2.6528 -0.1744
 3292TIP3   OH231290   2.362   6.382   0.469 -0.3304  0.5483 -0.1267
 3292TIP3    H131291   2.302   6.443   0.512  0.2889  1.6917 -0.8510
 3292TIP3    H231292   2.363   6.410   0.378  1.2109  0.4775 -0.1458
 3293TIP3   OH231293   0.578   5.030   3.231  0.3951  0.0704 -0.2212
 3293TIP3    H131294   0.550   4.999   3.144  0.3016  0.5160 -0.3477
 3293TIP3    H231295   0.666   4.995   3.242  0.0554 -0.7674 -0.1097
 3294TIP3   OH231296   5.881   4.728   6.597  0.2704 -0.4511 -0.4779
 3294TIP3    H131297   5.800   4.682   6.576  0.4992 -0.2980 -1.7519
 3294TIP3    H231298   5.898   4.783   6.520  1.6989 -0.6378 -0.3092
 3295TIP3   OH231299   1.552   1.678   0.481  0.1015  0.2267 -0.7373
 3295TIP3    H131300   1.517   1.629   0.407  0.3181 -0.1580 -0.5894
 3295TIP3    H231301   1.635   1.714   0.448  0.2731 -0.0723 -0.6364
 3296TIP3   OH231302   5.989   0.109  16.355  0.6281 -0.4867  0.5901
 3296TIP3    H131303   5.956   0.195  16.381  0.2049 -0.2644 -0.6376
 3296TIP3    H231304   5.955   0.096  16.266  1.4990 -1.4913  0.3864
 3297TIP3   OH231305   3.685   4.285   1.072  0.2409 -0.3574 -0.4768
 3297TIP3    H131306   3.629   4.345   1.121 -0.2465 -0.5987 -0.7416
 3297TIP3    H231307   3.675   4.201   1.116 -1.3346 -0.9234 -1.8559
 3298TIP3   OH231308   4.306   3.036  16.878 -0.4704  0.2483  0.0388
 3298TIP3    H131309   4.227   2.982  16.879 -1.2607  1.3610 -0.5657
 3298TIP3    H231310   4.321   3.055  16.786 -0.2985  1.1693  0.2468
 3299TIP3   OH231311   5.903   2.012  13.528  0.0261 -0.0319 -0.0423
 3299TIP3    H131312   5.992   1.976  13.522  0.0512 -0.0951  0.5813
 3299TIP3    H231313   5.916   2.102  13.560 -0.1040  0.1335 -0.4528
 3300TIP3   OH231314   3.408   2.071  14.453 -0.1378  0.7467  0.3611
 3300TIP3    H131315   3.473   2.005  14.476 -0.9765  0.0785  0.8668
 3300TIP3    H231316   3.389   2.116  14.536 -0.7215  0.5600  0.3368
 3301TIP3   OH231317   2.197   5.001   4.607  0.0388  0.4278 -0.0565
 3301TIP3    H131318   2.247   5.037   4.680  0.8186 -2.3811  0.8639
 3301TIP3    H231319   2.108   5.034   4.621  0.4769  1.0819  1.3452
 3302TIP3   OH231320   0.032   4.798  13.113  0.2315 -0.6572  0.0782
 3302TIP3    H131321   0.064   4.787  13.023  0.7760  0.0576  0.1791
 3302TIP3    H231322   0.108   4.830  13.162 -0.3535  0.0035  0.5614
 3303TIP3   OH231323   0.005   3.861   2.866 -0.5307 -0.2556  0.0925
 3303TIP3    H131324  -0.048   3.790   2.829  0.4923 -0.9098 -0.1578
 3303TIP3    H231325   0.062   3.889   2.794 -1.3172  1.2153  0.0311
 3304TIP3   OH231326   6.612   2.122  12.534  0.5330 -0.5299  0.1566
 3304TIP3    H131327   6.670   2.194  12.509  1.3144 -1.2312 -0.0796
 3304TIP3    H231328   6.533   2.165  12.565  1.7911  0.4795  2.0394
 3305TIP3   OH231329   5.643   2.559   0.327 -0.2965  0.3016 -0.2565
 3305TIP3    H131330   5.575   2.492   0.330  1.7772 -1.8491  2.2543
 3305TIP3    H231331   5.694   2.538   0.249  0.0873 -0.8404  0.2850
 3306TIP3   OH231332   1.181   5.493   3.015  0.2030 -0.0787  0.2697
 3306TIP3    H131333   1.258   5.484   2.959  0.1784 -0.6662  0.3310
 3306TIP3    H231334   1.108   5.463   2.960  0.1458 -0.4176  0.5336
 3307TIP3   OH231335   6.651   6.148   5.529 -0.1612 -0.1240  0.2256
 3307TIP3    H131336   6.635   6.071   5.475  0.0687 -0.3922  0.5440
 3307TIP3    H231337   6.736   6.181   5.499 -1.0862  1.0576 -1.1697
 3308TIP3   OH231338   4.887   2.005   2.330 -0.2672 -0.1146  0.1947
 3308TIP3    H131339   4.926   1.945   2.393 -0.9938 -1.5164 -0.6499
 3308TIP3    H231340   4.915   1.971   2.245  2.1420  2.7752 -0.2082
 3309TIP3   OH231341   4.120   2.232  13.990  0.2838  1.1299 -0.5679
 3309TIP3    H131342   4.200   2.255  13.942 -0.2164  2.3366 -0.8595
 3309TIP3    H231343   4.114   2.298  14.059 -0.6211  1.2358 -0.7415
 3310TIP3   OH231344   5.248   0.016   6.050  0.1992 -0.7113  0.3252
 3310TIP3    H131345   5.185   0.017   5.978  0.1076 -1.7285  0.3803
 3310TIP3    H231346   5.205   0.065   6.120  0.5440  0.8007 -0.5140
 3311TIP3   OH231347   6.164   5.075  11.218 -0.3345  0.2770  0.9045
 3311TIP3    H131348   6.130   5.144  11.276  2.2900  1.1338  1.4903
 3311TIP3    H231349   6.258   5.075  11.234  0.0492 -1.5358 -1.1977
 3312TIP3   OH231350   1.598   0.992  16.518  0.3929 -0.1568 -0.0742
 3312TIP3    H131351   1.616   0.955  16.604 -1.2460 -0.9314 -0.0429
 3312TIP3    H231352   1.603   1.087  16.530 -0.7266 -0.2340  1.0910
 3313TIP3   OH231353   3.280   4.819  15.282 -0.0536 -0.0338 -0.5251
 3313TIP3    H131354   3.187   4.810  15.262 -0.1467  0.9155 -0.5290
 3313TIP3    H231355   3.305   4.904  15.245  0.6296  0.0645  0.1356
 3314TIP3   OH231356   5.034   4.949  12.543 -0.3160 -0.0865  0.0706
 3314TIP3    H131357   5.091   4.935  12.468  0.3033 -1.5363  0.7768
 3314TIP3    H231358   4.987   4.866  12.553 -1.0055  0.3864  0.7504
 3315TIP3   OH231359   0.666   6.202   3.614  0.3317 -0.3067  0.7767
 3315TIP3    H131360   0.730   6.141   3.577  1.6100  0.1255  2.2333
 3315TIP3    H231361   0.583   6.175   3.575  0.8690 -3.0095  1.3784
 3316TIP3   OH231362   0.892   6.503   2.716 -0.2107 -0.6252 -0.7542
 3316TIP3    H131363   0.801   6.474   2.711 -0.1106 -1.1479  0.3595
 3316TIP3    H231364   0.920   6.482   2.805  0.4590  1.1580 -0.5165
 3317TIP3   OH231365   5.792   0.337  17.134 -0.4251 -0.3549 -0.1312
 3317TIP3    H131366   5.730   0.272  17.101 -1.2974  1.0165 -1.2340
 3317TIP3    H231367   5.740   0.389  17.196 -0.1187  0.2227 -0.3646
 3318TIP3   OH231368   6.213   4.322  13.198 -0.2700  0.0609  0.0338
 3318TIP3    H131369   6.277   4.323  13.269 -0.1379  0.9940 -0.0870
 3318TIP3    H231370   6.227   4.405  13.153 -2.2389  0.7109  0.5953
 3319TIP3   OH231371   0.520   5.279   0.833 -0.0929  0.8925  0.5521
 3319TIP3    H131372   0.565   5.364   0.833  1.6631  0.0267 -2.0538
 3319TIP3    H231373   0.549   5.237   0.752 -3.7938 -0.7269 -0.0199
 3320TIP3   OH231374   6.210   5.924  13.409  0.4377  0.7503 -0.1534
 3320TIP3    H131375   6.177   5.845  13.365  1.4435  0.7061 -0.8563
 3320TIP3    H231376   6.147   5.941  13.479 -0.5183  0.0999 -0.8434
 3321TIP3   OH231377   2.442   0.816  11.328  0.1400 -0.2566 -0.4119
 3321TIP3    H131378   2.363   0.773  11.296  0.5515 -0.1115 -1.6627
 3321TIP3    H231379   2.410   0.890  11.380 -0.5561  0.4015 -1.7444
 3322TIP3   OH231380   0.145   1.484   0.693  0.0373  0.3551  0.1793
 3322TIP3    H131381   0.175   1.566   0.655  0.5342 -0.0501 -0.3299
 3322TIP3    H231382   0.050   1.486   0.684  0.0232  1.0423  0.5265
 3323TIP3   OH231383   5.999   0.018  15.627  0.0095  0.3813 -0.3809
 3323TIP3    H131384   5.904   0.007  15.622  0.1557 -1.4634  0.7264
 3323TIP3    H231385   6.011   0.105  15.665 -1.2514  0.0073  0.8759
 3324TIP3   OH231386   3.936   1.992  15.598  0.0640  0.6558  0.2449
 3324TIP3    H131387   3.996   2.067  15.592 -0.0645  0.8463  1.2421
 3324TIP3    H231388   3.863   2.025  15.651  0.2897 -0.3609  1.1914
 3325TIP3   OH231389   6.423   4.756   3.044  0.4087  0.1359  0.0430
 3325TIP3    H131390   6.499   4.801   3.007  0.2900 -0.4409 -0.9237
 3325TIP3    H231391   6.457   4.672   3.075  0.1551 -0.1489 -0.4452
 3326TIP3   OH231392   5.269   3.734   0.212 -0.0820  0.1657 -0.0043
 3326TIP3    H131393   5.348   3.684   0.190 -0.7918 -0.9874 -0.0257
 3326TIP3    H231394   5.290   3.824   0.190  0.2486 -0.5167 -2.6648
 3327TIP3   OH231395   2.133   0.614   1.398 -0.1056  0.4663 -0.6028
 3327TIP3    H131396   2.162   0.706   1.394  0.1630  0.4652  1.2632
 3327TIP3    H231397   2.067   0.607   1.328 -2.1817  2.8092  1.0480
 3328TIP3   OH231398   6.270   3.584   5.909 -0.6736  0.2617 -0.0250
 3328TIP3    H131399   6.178   3.602   5.889 -0.1965  1.3593 -1.2894
 3328TIP3    H231400   6.297   3.659   5.963 -0.2058  0.5230 -0.6246
 3329TIP3   OH231401   4.745   3.656   0.440  0.2244 -0.1561 -0.3068
 3329TIP3    H131402   4.659   3.666   0.400 -0.1895 -0.8762  0.4011
 3329TIP3    H231403   4.752   3.562   0.459  1.5027 -0.2340 -1.1262
 3330TIP3   OH231404   1.313   6.478  16.698  0.0868  0.4689 -0.4110
 3330TIP3    H131405   1.349   6.533  16.767 -1.3605  0.5081  0.3288
 3330TIP3    H231406   1.276   6.539  16.635  1.3000  0.4288 -1.1770
 3331TIP3   OH231407   2.145   1.498  14.803  0.1945  0.3719  0.0559
 3331TIP3    H131408   2.189   1.469  14.723 -1.5085 -0.9206 -0.4420
 3331TIP3    H231409   2.053   1.506  14.778 -0.4861 -0.8107  2.0860
 3332TIP3   OH231410   5.903   4.797   0.353 -0.1418 -0.4390 -0.8004
 3332TIP3    H131411   5.870   4.779   0.265  0.4025  0.5304 -1.2079
 3332TIP3    H231412   5.995   4.819   0.340  0.0473 -0.7397  0.0615
 3333TIP3   OH231413   2.106   6.527  14.173  0.0384 -0.2030  0.4755
 3333TIP3    H131414   2.119   6.622  14.166 -1.8737  0.2886  2.7209
 3333TIP3    H231415   2.028   6.518  14.228  0.1083 -3.0896  0.1710
 3334TIP3   OH231416   6.716   1.782   3.205  0.2200  0.4501 -0.7548
 3334TIP3    H131417   6.802   1.823   3.197  0.6122  0.0007  0.9409
 3334TIP3    H231418   6.718   1.738   3.290 -0.1781 -3.1043 -2.5014
 3335TIP3   OH231419   2.461   4.067   6.809 -0.2787 -0.1870 -0.1909
 3335TIP3    H131420   2.442   4.161   6.800 -0.9041 -0.2167  0.7056
 3335TIP3    H231421   2.386   4.024   6.769 -0.2798 -0.3073 -0.0573
 3336TIP3   OH231422   5.361   3.969  14.679  0.2397 -0.0596 -0.0511
 3336TIP3    H131423   5.338   4.007  14.764  0.4333 -0.3087  0.1141
 3336TIP3    H231424   5.453   3.942  14.690 -0.2129 -1.5606  0.1866
 3337TIP3   OH231425   1.049   0.837   4.278 -0.0749  0.0623  0.1412
 3337TIP3    H131426   1.133   0.799   4.254 -0.3573  0.6002 -1.8041
 3337TIP3    H231427   1.055   0.852   4.372  2.3862  1.0563 -0.1459
 3338TIP3   OH231428   0.353   0.580  11.587 -0.5550 -0.1576  0.3154
 3338TIP3    H131429   0.338   0.593  11.493 -1.3691 -0.7530  0.3528
 3338TIP3    H231430   0.311   0.654  11.629  0.9329  0.7949  0.1439
 3339TIP3   OH231431   2.887   2.637  12.462  0.2964  0.2964 -0.0948
 3339TIP3    H131432   2.878   2.634  12.367 -0.0965  1.4075 -0.0962
 3339TIP3    H231433   2.973   2.599  12.479  0.9296  1.3176 -0.9848
 3340TIP3   OH231434   1.646   5.698  12.797 -0.0754  0.6241 -0.5717
 3340TIP3    H131435   1.645   5.632  12.867 -1.0317  0.9903 -0.2322
 3340TIP3    H231436   1.721   5.754  12.819  0.7342 -0.3159 -0.8473
 3341TIP3   OH231437   1.730   3.691   5.504  0.1256  0.1896  0.4530
 3341TIP3    H131438   1.658   3.658   5.559 -1.5814 -0.5534 -2.1270
 3341TIP3    H231439   1.744   3.621   5.440  1.3334  1.4802 -0.7138
 3342TIP3   OH231440   4.480   3.666  16.734  0.3227  0.3892 -0.1226
 3342TIP3    H131441   4.393   3.674  16.775  0.4543  0.7845  0.0774
 3342TIP3    H231442   4.541   3.673  16.807  0.5053 -0.5055 -0.1862
 3343TIP3   OH231443   3.569   2.978   1.303  0.6040 -0.2448  0.2766
 3343TIP3    H131444   3.532   2.958   1.217  1.0557 -0.8250  0.2154
 3343TIP3    H231445   3.495   2.975   1.363  0.3153 -0.0009 -0.0681
 3344TIP3   OH231446   6.209   1.503   2.420  0.0958  1.0335  0.3990
 3344TIP3    H131447   6.152   1.487   2.344  2.0628  0.2486 -0.9525
 3344TIP3    H231448   6.242   1.416   2.443 -0.5422  1.2596  2.2285
 3345TIP3   OH231449   6.456   2.786  16.927 -0.3208 -0.4434  0.4465
 3345TIP3    H131450   6.492   2.874  16.926  2.3013 -1.4350  1.3947
 3345TIP3    H231451   6.396   2.783  16.852  1.2103  1.4663 -0.8916
 3346TIP3   OH231452   0.093   3.688   0.509  0.2595 -0.4417 -0.2316
 3346TIP3    H131453   0.167   3.629   0.493 -0.5995 -0.9697 -2.4902
 3346TIP3    H231454   0.054   3.701   0.423 -0.9422  1.6363  0.5962
 3347TIP3   OH231455   5.752   0.091  16.769 -0.1616  0.0526 -0.1309
 3347TIP3    H131456   5.694   0.058  16.838  0.0327 -0.0128  0.0039
 3347TIP3    H231457   5.807   0.156  16.813  0.7724 -0.8489  0.0517
 3348TIP3   OH231458   5.346   3.214  13.621 -0.1818  0.3366 -0.3705
 3348TIP3    H131459   5.430   3.168  13.630  0.0053  0.8792  0.7904
 3348TIP3    H231460   5.370   3.306  13.623 -0.7647  0.4903 -0.5448
 3349TIP3   OH231461   4.319   5.328  16.061  0.0569  0.0997 -0.2259
 3349TIP3    H131462   4.342   5.364  16.147 -2.4352 -0.3584  0.6811
 3349TIP3    H231463   4.273   5.399  16.017  0.9085  0.1721 -1.0030
 3350TIP3   OH231464   6.451   4.582   3.531  0.1034  0.1341  0.3606
 3350TIP3    H131465   6.391   4.551   3.463  0.4979  1.1052 -0.4462
 3350TIP3    H231466   6.443   4.518   3.601  1.0969 -1.9164 -1.3727
 3351TIP3   OH231467   3.451   1.564  16.152  0.2129 -0.2558  0.5268
 3351TIP3    H131468   3.443   1.659  16.156  0.0465 -0.2764  0.7134
 3351TIP3    H231469   3.455   1.537  16.244  1.1525 -0.3547  0.4605
 3352TIP3   OH231470   0.060   5.599   5.953 -0.8300  0.8706  0.3001
 3352TIP3    H131471   0.008   5.648   5.890 -2.1589  0.4402  1.0404
 3352TIP3    H231472   0.040   5.507   5.933  0.6202  0.6588 -0.2249
 3353TIP3   OH231473   6.304   4.018   1.452  0.1279 -0.0802 -0.1892
 3353TIP3    H131474   6.253   4.083   1.501 -1.0248 -0.0532 -1.4150
 3353TIP3    H231475   6.370   3.988   1.515 -1.0488  0.2762  1.2404
 3354TIP3   OH231476   0.084   2.975  10.701  0.1206  0.1684  0.2912
 3354TIP3    H131477   0.027   3.020  10.638  0.4698 -0.9592 -0.8282
 3354TIP3    H231478   0.130   2.909  10.650  1.8746  0.5371  1.3409
 3355TIP3   OH231479   1.506   3.128  16.420  0.3301  0.1728  0.0278
 3355TIP3    H131480   1.430   3.187  16.425  1.8339  2.2996 -1.6504
 3355TIP3    H231481   1.531   3.114  16.511 -0.2911  1.8181  0.4660
 3356TIP3   OH231482   0.895   4.229   3.762 -0.4072 -0.2835 -0.0247
 3356TIP3    H131483   0.829   4.298   3.757  0.8537  0.9172 -0.5864
 3356TIP3    H231484   0.861   4.158   3.708 -1.7936 -0.1723  0.6838
 3357TIP3   OH231485   0.677   1.663   5.958  0.6824  0.7509  0.0028
 3357TIP3    H131486   0.719   1.747   5.978 -0.0604  0.8109  1.3531
 3357TIP3    H231487   0.591   1.669   5.999 -0.4104  0.3675 -2.2243
 3358TIP3   OH231488   1.236   5.129   4.506  0.1550  0.6954 -0.2438
 3358TIP3    H131489   1.181   5.184   4.561  0.2264  0.4782  0.0492
 3358TIP3    H231490   1.251   5.181   4.427 -2.1252 -0.0491 -1.1955
 3359TIP3   OH231491   1.949   5.269  16.766 -0.6096 -0.1805 -0.1215
 3359TIP3    H131492   1.862   5.307  16.775 -0.9908 -0.7565 -1.2461
 3359TIP3    H231493   1.933   5.176  16.751  0.2425 -0.4683  0.7005
 3360TIP3   OH231494   4.376   3.160   4.114  0.0348 -0.2011 -0.5893
 3360TIP3    H131495   4.306   3.182   4.053 -0.4211  2.6755  0.8728
 3360TIP3    H231496   4.438   3.233   4.106  1.2075 -1.0606  0.5404
 3361TIP3   OH231497   5.200   1.030   5.713  0.0623  0.0087 -0.2914
 3361TIP3    H131498   5.152   1.083   5.776 -1.2251 -0.7130 -0.6292
 3361TIP3    H231499   5.260   0.977   5.765 -1.4850 -1.0888  0.4031
 3362TIP3   OH231500   0.184   5.791   2.181 -0.6212  0.6029  0.2380
 3362TIP3    H131501   0.104   5.773   2.231 -0.6994  0.5360  0.0877
 3362TIP3    H231502   0.198   5.885   2.192 -0.5008  0.5453  0.5912
 3363TIP3   OH231503   6.682   4.055   4.080 -0.1522  0.2329 -0.0391
 3363TIP3    H131504   6.662   4.016   3.996 -0.9871  0.5167  0.0226
 3363TIP3    H231505   6.767   4.097   4.068  0.2745 -0.7211 -0.3954
 3364TIP3   OH231506   2.279   1.979   6.026  0.4004 -0.8030 -0.6023
 3364TIP3    H131507   2.196   1.981   5.978 -0.7788 -0.8989  1.3882
 3364TIP3    H231508   2.255   2.001   6.116  2.6085 -0.3832 -0.0941
 3365TIP3   OH231509   2.271   2.914   0.706 -0.1514 -0.2054  0.0827
 3365TIP3    H131510   2.217   2.836   0.698 -0.1779 -0.2386  0.5882
 3365TIP3    H231511   2.316   2.904   0.790  0.1945  0.0989 -0.0650
 3366TIP3   OH231512   4.307   2.029  11.938 -0.1053 -0.1081  0.0404
 3366TIP3    H131513   4.313   2.124  11.938 -0.8340 -0.0191  2.3774
 3366TIP3    H231514   4.267   2.007  11.854 -1.9674  1.8178  0.3799
 3367TIP3   OH231515   3.813   2.369   1.341  0.6226  0.0867  0.3491
 3367TIP3    H131516   3.855   2.326   1.416 -0.5940 -2.1190 -0.1762
 3367TIP3    H231517   3.735   2.410   1.378 -1.2606 -2.9816  0.0029
 3368TIP3   OH231518   4.990   1.381   0.428  0.4370  0.0465 -0.1029
 3368TIP3    H131519   4.961   1.329   0.503  0.7017  1.5791  1.1089
 3368TIP3    H231520   4.926   1.363   0.359 -0.8177 -0.0536  1.0651
 3369TIP3   OH231521   4.462   3.891  14.281  0.1943  0.0266  0.4723
 3369TIP3    H131522   4.428   3.820  14.227 -0.4806  1.5095 -1.1109
 3369TIP3    H231523   4.388   3.951  14.290  0.3189 -0.1440  3.0063
 3370TIP3   OH231524   0.557   1.130  12.449 -0.2540 -0.5199  0.5605
 3370TIP3    H131525   0.495   1.073  12.403  0.0431 -0.5039  0.1362
 3370TIP3    H231526   0.626   1.146  12.386  0.2132 -0.5807  1.0543
 3371TIP3   OH231527   1.887   2.724  11.045 -0.0877 -0.1649  0.4476
 3371TIP3    H131528   1.910   2.763  10.961 -0.8745  1.0957  0.8005
 3371TIP3    H231529   1.837   2.645  11.022  0.2496 -0.1703 -0.2685
 3372TIP3   OH231530   3.582   0.893   3.306  0.0709  0.3176  0.0740
 3372TIP3    H131531   3.638   0.914   3.231  0.7117  0.0171  0.4597
 3372TIP3    H231532   3.503   0.946   3.293  0.5572  0.9473 -0.3388
 3373TIP3   OH231533   0.094   0.614  11.125 -0.1732 -1.0155  0.3477
 3373TIP3    H131534   0.099   0.519  11.135 -0.0552 -1.0610 -0.1467
 3373TIP3    H231535   0.002   0.635  11.142 -0.9247 -1.5923 -2.7601
 3374TIP3   OH231536   3.384   4.135   4.276  0.6444  0.0370  0.1612
 3374TIP3    H131537   3.410   4.221   4.242 -0.3840  0.8318  1.3295
 3374TIP3    H231538   3.359   4.085   4.198  2.3595  0.3841 -0.6499
 3375TIP3   OH231539   2.443   5.431   0.991  0.1337  0.4262  0.1595
 3375TIP3    H131540   2.459   5.519   1.026 -0.7428 -0.1962  2.2302
 3375TIP3    H231541   2.491   5.373   1.050 -0.3337 -0.5649 -0.4243
 3376TIP3   OH231542   6.512   5.014   3.276 -0.5830 -0.2534 -0.5443
 3376TIP3    H131543   6.429   5.061   3.278  0.2816  1.2617  0.3704
 3376TIP3    H231544   6.535   5.001   3.368  0.0179 -1.0029 -0.7931
 3377TIP3   OH231545   1.634   4.245   5.078 -0.2317 -0.3888  0.2700
 3377TIP3    H131546   1.648   4.325   5.028 -0.7644 -0.1739  0.4563
 3377TIP3    H231547   1.672   4.263   5.164  0.4206 -0.6517  0.0401
 3378TIP3   OH231548   6.362   6.627  13.862 -0.4320  0.2245  0.4520
 3378TIP3    H131549   6.290   6.591  13.810 -0.0993  0.2761 -0.0475
 3378TIP3    H231550   6.424   6.554  13.871 -0.2676  0.3508  0.3610
 3379TIP3   OH231551   2.639   4.805   0.399  0.2174  0.5276 -0.0632
 3379TIP3    H131552   2.645   4.846   0.312  1.3446  0.2069 -0.1475
 3379TIP3    H231553   2.729   4.778   0.419 -0.0408  0.5415  1.1789
 3380TIP3   OH231554   5.014   5.152  10.701 -0.3324 -0.5602  0.0250
 3380TIP3    H131555   4.970   5.154  10.787 -1.5544 -0.7482 -0.5799
 3380TIP3    H231556   4.993   5.065  10.667 -0.5135 -0.1901 -0.8019
 3381TIP3   OH231557   6.223   2.539   4.742 -0.1396  0.3524 -0.7609
 3381TIP3    H131558   6.204   2.454   4.703 -2.4562  1.5647 -2.3609
 3381TIP3    H231559   6.318   2.550   4.731 -0.0063 -1.5064 -1.5696
 3382TIP3   OH231560   3.191   4.641   0.100  0.5071  0.3974  0.2741
 3382TIP3    H131561   3.195   4.703   0.027  2.2305 -0.4807 -0.3973
 3382TIP3    H231562   3.186   4.555   0.059  0.4666 -0.0527  1.1987
 3383TIP3   OH231563   6.102   0.973  13.179 -0.1647  0.5044 -0.4747
 3383TIP3    H131564   6.190   0.991  13.147  0.8210 -3.2133 -0.0532
 3383TIP3    H231565   6.101   1.009  13.268  0.2965  2.1366 -1.1090
 3384TIP3   OH231566   5.386   1.232  14.351 -0.4478  0.0691  0.1255
 3384TIP3    H131567   5.303   1.276  14.367 -1.8045 -2.0220 -0.8227
 3384TIP3    H231568   5.363   1.139  14.348  2.3287 -0.7406  2.2292
 3385TIP3   OH231569   0.479   4.573   4.866  0.5491  0.1580 -0.1678
 3385TIP3    H131570   0.450   4.639   4.929 -1.4738  0.0671 -0.9732
 3385TIP3    H231571   0.574   4.570   4.878  0.1985 -0.1006  3.1071
 3386TIP3   OH231572   0.217   1.775  17.129  0.3939  0.3648  0.2126
 3386TIP3    H131573   0.159   1.740  17.197  1.4277 -0.7125  0.5644
 3386TIP3    H231574   0.174   1.755  17.047  1.8313 -3.4612  0.3184
 3387TIP3   OH231575   2.604   5.286  13.041  0.2271  0.0788  0.0413
 3387TIP3    H131576   2.691   5.258  13.012 -0.1220  0.6095 -1.5675
 3387TIP3    H231577   2.556   5.204  13.054  0.3010 -0.1772 -1.2071
 3388TIP3   OH231578   1.424   2.854  15.930  0.1069 -0.2376  0.0727
 3388TIP3    H131579   1.388   2.795  15.996 -1.3915  1.1581  0.5348
 3388TIP3    H231580   1.414   2.941  15.969  2.0715  0.3496 -0.6937
 3389TIP3   OH231581   0.703   5.008  14.316 -0.3939 -0.5722 -1.0135
 3389TIP3    H131582   0.715   4.962  14.233 -0.5309 -1.4421 -0.5520
 3389TIP3    H231583   0.792   5.034  14.342 -0.2164 -1.3752 -0.8172
 3390TIP3   OH231584   6.591   1.358   3.237 -0.0262  0.3562  0.1091
 3390TIP3    H131585   6.540   1.434   3.264  0.1037 -0.0334  1.5326
 3390TIP3    H231586   6.680   1.392   3.223 -0.7567  1.1486 -2.9664
 3391TIP3   OH231587   1.649   2.896  13.363 -0.6101 -0.3826  0.2016
 3391TIP3    H131588   1.657   2.984  13.399 -1.7470 -0.4320  0.6149
 3391TIP3    H231589   1.584   2.905  13.293 -1.3481 -1.0371  0.7915
 3392TIP3   OH231590   5.241   2.496  11.490 -0.3649  0.2246 -0.0990
 3392TIP3    H131591   5.291   2.438  11.433 -3.3653 -0.6499 -1.8980
 3392TIP3    H231592   5.263   2.468  11.579 -0.1045 -2.2193 -0.9179
 3393TIP3   OH231593   2.765   0.660   0.615  0.6712  0.9119 -0.1890
 3393TIP3    H131594   2.755   0.565   0.622  0.2655  0.8144 -1.8026
 3393TIP3    H231595   2.834   0.671   0.550 -0.2859  1.7156 -1.0912
 3394TIP3   OH231596   6.476   5.335   1.097 -0.2289  0.0344  0.5375
 3394TIP3    H131597   6.526   5.319   1.017  0.9538  1.7002  0.9169
 3394TIP3    H231598   6.477   5.251   1.143 -0.1035 -0.6734 -0.7479
 3395TIP3   OH231599   1.014   4.657   4.776  0.5649 -0.2351  0.0522
 3395TIP3    H131600   0.977   4.573   4.803 -2.4650  1.0478  0.1121
 3395TIP3    H231601   1.091   4.634   4.724 -0.9939 -3.0828 -1.0945
 3396TIP3   OH231602   3.442   0.766  10.569  0.5528  0.1757 -0.2473
 3396TIP3    H131603   3.425   0.677  10.599  1.7575 -0.0858 -0.3116
 3396TIP3    H231604   3.407   0.770  10.480 -0.0465 -0.0454 -0.0233
 3397TIP3   OH231605   4.589   0.272   1.178 -0.4257 -0.2896 -0.0704
 3397TIP3    H131606   4.536   0.248   1.102 -1.0462 -1.1475  0.6188
 3397TIP3    H231607   4.558   0.214   1.248  1.3032 -0.6751  0.3990
 3398TIP3   OH231608   6.410   5.771   3.983 -0.4159  0.2422 -0.0469
 3398TIP3    H131609   6.430   5.848   4.036  2.4146 -1.4944  1.5461
 3398TIP3    H231610   6.357   5.715   4.040 -1.6956  0.5979 -0.8749
 3399TIP3   OH231611   5.530   5.626  14.705  0.2226  0.0015 -0.2455
 3399TIP3    H131612   5.474   5.702  14.685  1.9521  1.3284 -0.2043
 3399TIP3    H231613   5.509   5.563  14.636  0.6820  1.5854 -1.8913
 3400TIP3   OH231614   3.609   5.381  16.054 -0.3769 -0.5154  0.1206
 3400TIP3    H131615   3.659   5.353  15.978  1.6917  1.8159  0.5415
 3400TIP3    H231616   3.654   5.341  16.129 -0.4830 -0.2722  0.3168
 3401TIP3   OH231617   6.008   5.799  14.816  0.1125 -0.5920  0.2141
 3401TIP3    H131618   5.929   5.753  14.789 -0.4499  0.1007  0.6892
 3401TIP3    H231619   5.997   5.813  14.910  1.3435 -1.5623  0.5235
 3402TIP3   OH231620   5.280   3.295   3.055 -0.6550 -0.2480  0.1427
 3402TIP3    H131621   5.360   3.345   3.042 -1.9718  2.1157  0.7828
 3402TIP3    H231622   5.309   3.212   3.092  1.5189  0.4321  0.0419
 3403TIP3   OH231623   0.534   3.083  15.024 -0.2671 -0.6998 -0.8869
 3403TIP3    H131624   0.503   3.174  15.022  1.3267 -0.1554 -1.6242
 3403TIP3    H231625   0.580   3.076  15.108 -0.6642 -0.9309 -0.6860
 3404TIP3   OH231626   5.408   1.373   3.038 -0.1031  0.2379  0.2144
 3404TIP3    H131627   5.459   1.454   3.041 -2.4809  1.8732 -1.6399
 3404TIP3    H231628   5.361   1.372   3.122  0.7394  0.2021  0.6949
 3405TIP3   OH231629   5.428   1.835   0.512 -1.1337  0.3539  0.3169
 3405TIP3    H131630   5.464   1.923   0.507 -1.8995  0.9074  3.3547
 3405TIP3    H231631   5.501   1.780   0.540 -1.7779  0.9077  3.2233
 3406TIP3   OH231632   2.701   1.334   2.777  0.1293  0.1816 -0.6343
 3406TIP3    H131633   2.676   1.373   2.693 -0.2947  0.8270 -0.2074
 3406TIP3    H231634   2.796   1.345   2.780  0.1872 -0.1268 -1.1669
 3407TIP3   OH231635   5.402   2.638   3.160 -0.0834 -0.1050  0.2355
 3407TIP3    H131636   5.438   2.714   3.206  0.4103 -0.2032  0.0185
 3407TIP3    H231637   5.380   2.672   3.073  1.0636 -0.4353 -0.1942
 3408TIP3   OH231638   1.527   4.289  15.705  0.4509  0.1286  0.4550
 3408TIP3    H131639   1.577   4.228  15.759  0.2600  0.0497  0.5442
 3408TIP3    H231640   1.436   4.271  15.728  0.4072  0.6102  0.6519
 3409TIP3   OH231641   6.473   1.104  14.504 -0.1996  0.1671  0.0557
 3409TIP3    H131642   6.548   1.096  14.563  1.2327  1.7001 -1.4987
 3409TIP3    H231643   6.420   1.174  14.543 -0.6032 -0.5956  0.9009
 3410TIP3   OH231644   6.516   2.950   4.453  0.0224  0.6833 -0.2109
 3410TIP3    H131645   6.458   2.985   4.521 -0.4742 -0.4286 -0.0662
 3410TIP3    H231646   6.462   2.950   4.374 -0.8828 -2.2855  0.3386
 3411TIP3   OH231647   4.704   2.988   2.162 -0.0894  0.4780  0.0325
 3411TIP3    H131648   4.767   3.059   2.177 -0.3913  0.5486  0.9537
 3411TIP3    H231649   4.656   3.015   2.083 -0.7106  1.6557  0.8044
 3412TIP3   OH231650   1.062   5.125   4.950  0.0403 -0.2582  0.5217
 3412TIP3    H131651   1.074   5.041   4.905  1.2330  0.7585 -1.1030
 3412TIP3    H231652   1.085   5.107   5.041 -2.5450 -2.3877  0.8130
 3413TIP3   OH231653   5.197   6.113  14.063  0.3193 -0.1745 -0.1563
 3413TIP3    H131654   5.251   6.073  14.131 -0.8002  0.6183  1.2041
 3413TIP3    H231655   5.248   6.188  14.032 -0.3225  1.0675  1.7052
 3414TIP3   OH231656   1.571   6.394  15.113  0.4939  0.3497 -0.2073
 3414TIP3    H131657   1.517   6.433  15.044  1.9859 -1.3062 -2.3730
 3414TIP3    H231658   1.543   6.303  15.117  3.2111 -0.5798 -1.5143
 3415TIP3   OH231659   4.758   3.512   1.156  0.4170  0.0178 -0.8387
 3415TIP3    H131660   4.823   3.443   1.147  0.6346  0.1231 -0.1566
 3415TIP3    H231661   4.716   3.494   1.240 -0.7344 -0.3037 -1.4807
 3416TIP3   OH231662   1.944   5.845  11.684  0.6523  0.1301  0.8981
 3416TIP3    H131663   2.034   5.814  11.690  0.6869  0.0988  0.2667
 3416TIP3    H231664   1.890   5.767  11.692  0.7690 -0.2821 -1.9297
 3417TIP3   OH231665   6.195   0.887  15.192  0.7031 -0.5571 -0.7359
 3417TIP3    H131666   6.236   0.940  15.124  1.7798 -0.6463 -0.1703
 3417TIP3    H231667   6.144   0.950  15.244  1.4281 -0.1789 -0.4759
 3418TIP3   OH231668   1.471   6.175   0.242  0.1135  0.5693  0.3274
 3418TIP3    H131669   1.387   6.220   0.247 -0.3290 -0.2202  0.1402
 3418TIP3    H231670   1.449   6.082   0.253  0.9804  0.3807  0.4812
 3419TIP3   OH231671   6.092   2.674  12.832  0.1407  0.2900 -0.0805
 3419TIP3    H131672   6.172   2.636  12.868  0.8808 -1.2747 -3.2095
 3419TIP3    H231673   6.040   2.598  12.805 -1.1139  1.3766 -0.7517
 3420TIP3   OH231674   4.856   4.927  16.758  0.3882  0.2661  0.2560
 3420TIP3    H131675   4.855   4.966  16.845 -0.2151  0.8627 -0.0137
 3420TIP3    H231676   4.942   4.947  16.722  0.4550  0.4443  0.5216
 3421TIP3   OH231677   0.932   1.695  11.473  0.3263 -0.0049  0.4383
 3421TIP3    H131678   0.873   1.629  11.437 -0.3045 -0.3084  1.9852
 3421TIP3    H231679   0.967   1.656  11.552  1.7089  0.6436  0.1617
 3422TIP3   OH231680   2.287   4.450   3.324 -0.0036 -0.4060  0.0914
 3422TIP3    H131681   2.250   4.439   3.236 -0.0953 -1.9634  0.3118
 3422TIP3    H231682   2.243   4.527   3.359 -1.7135 -1.1628 -0.3459
 3423TIP3   OH231683   4.384   2.013  15.849 -0.0838  0.4718 -0.0194
 3423TIP3    H131684   4.415   1.926  15.874 -1.2720 -0.0117 -0.1767
 3423TIP3    H231685   4.432   2.073  15.906  2.3931 -0.0979 -1.4188
 3424TIP3   OH231686   6.497   6.742   2.548  0.1649 -0.5675  0.0786
 3424TIP3    H131687   6.418   6.712   2.502  0.1584 -0.2526 -0.1144
 3424TIP3    H231688   6.517   6.827   2.509  1.2722 -1.1712 -0.6884
 3425TIP3   OH231689   2.408   1.273  11.962  0.7171  0.0567  0.2944
 3425TIP3    H131690   2.447   1.216  11.895 -1.2025 -1.8031  0.6920
 3425TIP3    H231691   2.418   1.223  12.044  1.3091  1.4468  1.0775
 3426TIP3   OH231692   5.196   3.983   2.176 -0.2660 -0.2838 -0.4135
 3426TIP3    H131693   5.120   3.973   2.232 -0.6707 -1.0165 -1.0819
 3426TIP3    H231694   5.271   3.965   2.233 -0.4846  1.9024  0.6158
 3427TIP3   OH231695   6.561   0.939  12.087  0.1253 -0.2227 -0.2522
 3427TIP3    H131696   6.576   1.007  12.153 -0.3397 -0.8867  0.5594
 3427TIP3    H231697   6.648   0.906  12.067  0.2126 -0.5547  0.6307
 3428TIP3   OH231698   5.354   4.036   3.366 -0.5267  0.0945  0.7347
 3428TIP3    H131699   5.426   4.008   3.424 -0.1980  0.7085  0.6265
 3428TIP3    H231700   5.374   3.995   3.282 -0.8420 -0.5524  0.9699
 3429TIP3   OH231701   3.038   6.189  14.191  0.2448 -0.0183  0.0915
 3429TIP3    H131702   3.069   6.232  14.111  1.7730 -1.6534 -0.2113
 3429TIP3    H231703   3.038   6.096  14.170 -0.8407 -0.3622  1.5059
 3430TIP3   OH231704   5.736   2.519   2.573 -0.1385 -0.1431 -0.2433
 3430TIP3    H131705   5.722   2.429   2.602  1.3413 -0.9558 -1.8988
 3430TIP3    H231706   5.831   2.530   2.576 -0.3616  1.7359  0.9375
 3431TIP3   OH231707   5.154   2.120   1.712  0.3045 -0.5748 -0.2378
 3431TIP3    H131708   5.215   2.083   1.648 -0.0499 -1.1309 -0.2586
 3431TIP3    H231709   5.187   2.088   1.797  1.0221  0.5102 -0.1022
 3432TIP3   OH231710   1.527   2.855  13.017 -0.5051  0.4119 -0.5857
 3432TIP3    H131711   1.559   2.799  12.946  1.3712  0.3990  0.2219
 3432TIP3    H231712   1.554   2.943  12.992 -1.6561  0.6825 -0.8752
 3433TIP3   OH231713   5.745   3.457   3.960  0.3234 -0.4099 -0.0803
 3433TIP3    H131714   5.662   3.446   4.008  0.5956  2.0151  1.0219
 3433TIP3    H231715   5.784   3.369   3.960 -2.6943 -1.8579 -1.5555
 3434TIP3   OH231716   5.256   2.043   1.973 -0.2638 -0.1726  0.1388
 3434TIP3    H131717   5.347   2.014   1.979 -0.6468 -0.9960  2.7327
 3434TIP3    H231718   5.249   2.116   2.035 -1.7552 -1.3161  1.4009
 3435TIP3   OH231719   2.385   0.408   4.973 -0.0049  0.2225  0.1805
 3435TIP3    H131720   2.318   0.469   4.944  0.9321  1.3086  0.2320
 3435TIP3    H231721   2.426   0.377   4.892  1.1170  1.5318  0.2211
 3436TIP3   OH231722   0.764   2.383  15.041 -0.0956  0.0689  0.3346
 3436TIP3    H131723   0.847   2.426  15.023  0.1494 -1.1825 -1.5821
 3436TIP3    H231724   0.764   2.371  15.136  2.9063 -1.8811  0.1366
 3437TIP3   OH231725   4.711   5.072  16.555 -0.0253 -0.3771  0.4021
 3437TIP3    H131726   4.670   5.027  16.482 -0.6477  0.4259  0.2463
 3437TIP3    H231727   4.747   5.002  16.610  0.2637 -0.9897 -0.5537
 3438TIP3   OH231728   5.328   5.737   1.200  0.8759  0.3977  0.1522
 3438TIP3    H131729   5.314   5.814   1.256 -0.7662 -0.6350  1.2221
 3438TIP3    H231730   5.423   5.725   1.198  0.9735  0.4644  2.7664
 3439TIP3   OH231731   4.447   4.869   6.163  0.1226 -0.1506  0.6158
 3439TIP3    H131732   4.509   4.888   6.234  0.7639 -0.3691  0.1298
 3439TIP3    H231733   4.488   4.908   6.085 -0.0370 -0.8582  0.1718
 3440TIP3   OH231734   2.951   2.422  13.811  0.4125 -0.0514  0.1957
 3440TIP3    H131735   3.007   2.488  13.853 -0.3491 -0.7825  2.4072
 3440TIP3    H231736   2.869   2.468  13.793  0.7714  0.2868 -0.6173
 3441TIP3   OH231737   6.732   2.627  15.533 -0.3779 -0.2011 -0.0833
 3441TIP3    H131738   6.775   2.555  15.486 -0.0629  1.2938 -2.1544
 3441TIP3    H231739   6.798   2.657  15.596 -0.3070 -1.3278  0.4034
 3442TIP3   OH231740   6.061   2.505  11.764 -0.4361 -0.3074  0.2355
 3442TIP3    H131741   6.020   2.420  11.781 -1.8300  0.2449 -0.2397
 3442TIP3    H231742   5.987   2.566  11.755  0.5176  0.8329 -0.0728
 3443TIP3   OH231743   3.794   6.153  13.102 -0.2541  0.3592  0.6351
 3443TIP3    H131744   3.816   6.246  13.102 -0.9070  0.5113 -0.3119
 3443TIP3    H231745   3.700   6.150  13.119 -0.4267 -0.0830 -0.3818
 3444TIP3   OH231746   0.476   0.995  11.755 -0.2836 -0.2245 -0.4530
 3444TIP3    H131747   0.441   1.082  11.775  0.3189  0.0327 -0.5274
 3444TIP3    H231748   0.412   0.959  11.693  0.2590  0.7689 -1.6221
 3445TIP3   OH231749   0.784   1.326   6.722  0.1138  0.0931 -0.0330
 3445TIP3    H131750   0.873   1.307   6.691 -0.0757 -2.4630  0.9136
 3445TIP3    H231751   0.734   1.247   6.703 -1.6948  1.0731  0.5210
 3446TIP3   OH231752   1.329   6.582  14.002  0.5569 -0.2228  0.2713
 3446TIP3    H131753   1.315   6.612  14.091  1.2771  2.8480 -0.6096
 3446TIP3    H231754   1.260   6.516  13.988  0.0762 -0.3123  2.8521
 3447TIP3   OH231755   1.653   1.131   4.123  0.3567  0.2517 -0.2675
 3447TIP3    H131756   1.571   1.180   4.136  0.0769 -0.2120 -0.2620
 3447TIP3    H231757   1.695   1.131   4.209  1.0893  1.7626 -0.5947
 3448TIP3   OH231758   6.005   5.903   4.237 -0.2153 -0.0768 -0.6116
 3448TIP3    H131759   6.051   5.987   4.246 -0.8254  0.1259  0.6953
 3448TIP3    H231760   5.994   5.892   4.143  1.5693  0.3888 -0.9020
 3449TIP3   OH231761   2.623   1.728   1.766 -0.3145  0.2256  0.1133
 3449TIP3    H131762   2.608   1.818   1.797 -0.5019  0.1661  0.1943
 3449TIP3    H231763   2.719   1.721   1.761 -0.2686  0.0412  1.2448
 3450TIP3   OH231764   2.154   3.843   5.024  0.6846 -0.1330 -0.0713
 3450TIP3    H131765   2.102   3.796   4.959  1.7054 -1.3314 -0.0504
 3450TIP3    H231766   2.245   3.829   4.997  0.9943  2.5259 -0.5169
 3451TIP3   OH231767   4.834   3.675  14.375  0.8937 -0.2963  0.0107
 3451TIP3    H131768   4.794   3.761  14.369  0.7563 -0.1816  2.3430
 3451TIP3    H231769   4.760   3.614  14.372  0.7309 -0.1916  1.5840
 3452TIP3   OH231770   1.751   2.415  16.151 -0.2929  0.6355 -0.6760
 3452TIP3    H131771   1.662   2.420  16.187 -0.4068 -2.0143 -0.4708
 3452TIP3    H231772   1.805   2.388  16.225 -0.0566 -1.9745 -1.7261
 3453TIP3   OH231773   5.109   0.888  11.162 -0.4678 -0.3257  0.1096
 3453TIP3    H131774   5.062   0.971  11.168  0.6162  0.2361  1.0026
 3453TIP3    H231775   5.047   0.822  11.192 -0.7510  0.3764  1.0710
 3454TIP3   OH231776   0.867   1.237   1.770  0.1843  0.0103  0.5884
 3454TIP3    H131777   0.930   1.234   1.698  0.0716 -0.0400  0.4908
 3454TIP3    H231778   0.916   1.273   1.844 -0.0346  1.2570  0.1411
 3455TIP3   OH231779   2.334   0.547  16.658 -0.2739 -0.7957 -0.0756
 3455TIP3    H131780   2.411   0.490  16.655  0.6076  0.4341 -0.8190
 3455TIP3    H231781   2.351   0.606  16.731 -0.4159 -0.3776 -0.3844
 3456TIP3   OH231782   2.327   0.623   3.821  0.1730  0.3170 -0.3146
 3456TIP3    H131783   2.348   0.617   3.728 -1.6235 -1.2595 -0.6402
 3456TIP3    H231784   2.275   0.703   3.829 -1.4197 -0.6297 -1.0284
 3457TIP3   OH231785   3.710   6.515  15.181  0.3535 -0.0231 -0.5053
 3457TIP3    H131786   3.675   6.556  15.102 -0.4025  0.7206  0.1990
 3457TIP3    H231787   3.805   6.514  15.168  0.2085 -0.2726 -1.5888
 3458TIP3   OH231788   5.637   1.668  12.424  0.0420  0.6360 -0.4110
 3458TIP3    H131789   5.581   1.643  12.499  2.7814 -0.1344  1.4502
 3458TIP3    H231790   5.667   1.584  12.389  1.4243  1.0871 -0.2999
 3459TIP3   OH231791   5.138   2.315  16.232  0.6007 -0.0519 -0.0931
 3459TIP3    H131792   5.115   2.235  16.185 -1.4555  1.0859 -1.0946
 3459TIP3    H231793   5.068   2.327  16.295  0.1626  1.6888 -0.8831
 3460TIP3   OH231794   2.619   1.174   0.088 -0.0447 -0.6209 -0.3072
 3460TIP3    H131795   2.546   1.235   0.098 -1.0622 -1.7705 -0.6796
 3460TIP3    H231796   2.696   1.225   0.114 -0.7175  1.2133 -1.8173
 3461TIP3   OH231797   4.732   3.135  15.564  0.4535 -0.4540 -0.0911
 3461TIP3    H131798   4.722   3.213  15.509  0.8769  1.5876  2.6362
 3461TIP3    H231799   4.644   3.119  15.598  0.8064  0.2883  1.2127
 3462TIP3   OH231800   4.119   4.962   6.081  0.0335  0.0612  0.6445
 3462TIP3    H131801   4.173   5.004   6.148 -0.1462  0.5980  0.4534
 3462TIP3    H231802   4.033   5.003   6.088  0.0526  0.2291 -0.0100
 3463TIP3   OH231803   3.298   0.807   3.245 -0.6440  0.4126  0.5273
 3463TIP3    H131804   3.265   0.880   3.192  0.7922  1.0343  0.4813
 3463TIP3    H231805   3.266   0.826   3.334  1.0263  1.9384  0.8235
 3464TIP3   OH231806   5.547   3.074  15.569 -0.0633  0.1881 -0.6871
 3464TIP3    H131807   5.576   3.029  15.490  1.0333  0.0576 -0.2212
 3464TIP3    H231808   5.621   3.066  15.630 -0.7156  0.6840  0.1868
 3465TIP3   OH231809   4.255   2.779   4.481 -0.7178  0.7310  0.3062
 3465TIP3    H131810   4.301   2.848   4.528 -0.4802 -0.5843  2.0328
 3465TIP3    H231811   4.284   2.789   4.390  0.5519  1.8823  0.8164
 3466TIP3   OH231812   3.279   2.096  13.039  0.0654 -0.1079  0.0494
 3466TIP3    H131813   3.362   2.129  13.005  0.1631 -0.5780 -0.1699
 3466TIP3    H231814   3.300   2.064  13.127  0.3641 -1.2552 -0.4225
 3467TIP3   OH231815   1.535   2.695   1.947  0.4871  0.1673 -0.4331
 3467TIP3    H131816   1.543   2.679   1.853 -1.9841 -1.2425 -0.4409
 3467TIP3    H231817   1.613   2.653   1.984  0.1199 -1.5912 -1.6005
 3468TIP3   OH231818   0.010   1.937  12.152 -0.0179 -0.3099  0.3846
 3468TIP3    H131819   0.011   2.024  12.193  0.6651 -1.3713  2.7633
 3468TIP3    H231820  -0.076   1.902  12.174 -0.2029 -0.3344 -0.3735
 3469TIP3   OH231821   2.432   4.326  11.653 -0.0034 -0.5994 -0.2309
 3469TIP3    H131822   2.391   4.412  11.646  0.2807 -0.6297 -2.9307
 3469TIP3    H231823   2.509   4.332  11.596  1.2575 -1.9519  1.2946
 3470TIP3   OH231824   5.997   6.330   5.613 -0.4230 -0.2247 -0.1479
 3470TIP3    H131825   6.005   6.392   5.686 -0.0150 -0.3052 -0.1243
 3470TIP3    H231826   5.927   6.270   5.640 -1.0521  0.4262 -0.3164
 3471TIP3   OH231827   4.653   5.421  12.449 -0.2266  0.2913 -0.5495
 3471TIP3    H131828   4.605   5.357  12.397 -2.5470  1.1051  0.4900
 3471TIP3    H231829   4.602   5.502  12.440  1.1204  1.2594  0.3559
 3472TIP3   OH231830   6.657   5.402   1.978 -0.5453  0.2606 -0.8401
 3472TIP3    H131831   6.696   5.490   1.978 -1.0267  0.4866  0.1683
 3472TIP3    H231832   6.732   5.343   1.968  0.0010  0.7203  0.3880
 3473TIP3   OH231833   0.334   3.671   4.288  0.4012 -0.2966 -0.2257
 3473TIP3    H131834   0.249   3.699   4.321  0.2821 -0.9613  0.0490
 3473TIP3    H231835   0.330   3.575   4.290  0.7081 -0.3394 -1.3725
 3474TIP3   OH231836   0.796   3.785  16.658 -0.0245  0.0773  0.0449
 3474TIP3    H131837   0.772   3.705  16.705  1.7269 -0.3707  0.2158
 3474TIP3    H231838   0.713   3.826  16.636 -0.9188 -0.9249  1.4589
 3475TIP3   OH231839   3.689   3.706   1.184 -0.0747  0.5406 -0.2697
 3475TIP3    H131840   3.651   3.663   1.261 -0.0036  0.0909 -0.4833
 3475TIP3    H231841   3.733   3.636   1.137 -0.3103  0.7723 -0.8414
 3476TIP3   OH231842   2.389   4.788  13.035 -0.9379 -0.2364  0.1018
 3476TIP3    H131843   2.322   4.833  13.087 -1.6669 -1.9023  0.6673
 3476TIP3    H231844   2.430   4.727  13.096 -0.5549 -0.9218 -0.8159
 3477TIP3   OH231845   5.391   5.437   4.173  0.2248 -0.2915 -0.4327
 3477TIP3    H131846   5.364   5.510   4.117  1.2833  0.3733 -0.0813
 3477TIP3    H231847   5.374   5.359   4.120 -0.1083  0.2493 -1.1312
 3478TIP3   OH231848   5.667   1.143   5.125 -0.1040 -0.3794  0.2277
 3478TIP3    H131849   5.685   1.194   5.205 -1.2737  0.6018 -0.1216
 3478TIP3    H231850   5.690   1.053   5.149  1.6402  0.2410  0.9728
 3479TIP3   OH231851   6.387   2.817   3.968  0.1158 -1.0751  0.2021
 3479TIP3    H131852   6.323   2.788   4.033 -1.3457 -0.0243 -0.7633
 3479TIP3    H231853   6.471   2.790   4.005 -0.5795  0.5219  3.1111
 3480TIP3   OH231854   1.369   3.922   5.323  0.3195 -0.0038 -0.5003
 3480TIP3    H131855   1.452   3.919   5.275  0.1179 -0.0131 -0.8496
 3480TIP3    H231856   1.351   4.016   5.334  1.4110  0.0081  1.3802
 3481TIP3   OH231857   1.428   2.164  13.496  0.7137 -0.7611 -0.3588
 3481TIP3    H131858   1.360   2.209  13.546  1.0329 -0.1812 -0.4478
 3481TIP3    H231859   1.440   2.217  13.417 -0.8711 -2.4891 -1.8127
 3482TIP3   OH231860   1.938   6.277  14.597 -0.4262  0.5871  0.0093
 3482TIP3    H131861   2.021   6.323  14.605 -0.7032  1.0436  0.2772
 3482TIP3    H231862   1.944   6.205  14.660  0.4699 -0.4473 -1.2429
 3483TIP3   OH231863   1.839   3.641  14.301  0.0145  0.4692 -0.0567
 3483TIP3    H131864   1.809   3.594  14.378 -1.4177  1.8392  0.2493
 3483TIP3    H231865   1.821   3.582  14.228 -0.6114  0.0363  0.4416
 3484TIP3   OH231866   2.223   5.727   5.421  0.2685 -0.0110  0.6757
 3484TIP3    H131867   2.186   5.660   5.479  1.2945 -1.4896 -0.3276
 3484TIP3    H231868   2.281   5.778   5.478 -4.5858  3.5795  2.7333
 3485TIP3   OH231869   4.403   0.967  12.369 -0.1406 -0.0653  0.4678
 3485TIP3    H131870   4.457   0.899  12.410  0.4818  1.1217  1.6445
 3485TIP3    H231871   4.314   0.930  12.370  0.5701 -1.9111 -1.2288
 3486TIP3   OH231872   6.044   3.998   0.523 -0.0151  0.1176 -0.4464
 3486TIP3    H131873   6.030   4.011   0.429 -0.9901  0.8075 -0.2110
 3486TIP3    H231874   5.967   3.950   0.552  0.9223 -1.2862 -0.2436
 3487TIP3   OH231875   0.029   2.830   4.263  0.2718 -0.1118  0.7916
 3487TIP3    H131876   0.120   2.802   4.273  0.4561  0.3320  0.4040
 3487TIP3    H231877   0.034   2.926   4.260 -0.1604 -0.1040  0.2986
 3488TIP3   OH231878   1.552   0.203   3.689  0.2759  0.0538 -0.5092
 3488TIP3    H131879   1.474   0.251   3.662 -1.2648 -1.6484  0.8032
 3488TIP3    H231880   1.556   0.216   3.784  2.5664  1.5044 -0.7526
 3489TIP3   OH231881   5.970   0.329  12.058 -0.0903 -0.3219 -0.2894
 3489TIP3    H131882   6.050   0.350  12.009 -0.5806 -2.0361 -1.8698
 3489TIP3    H231883   5.906   0.393  12.028 -0.3890 -1.3573 -1.9678
 3490TIP3   OH231884   0.764   3.583  12.821  0.1908  0.2730  0.2693
 3490TIP3    H131885   0.764   3.518  12.890 -0.6499 -0.7377 -0.6532
 3490TIP3    H231886   0.714   3.657  12.857  0.0233 -0.1237  0.8508
 3491TIP3   OH231887   4.517   6.695  14.043  0.1345 -0.5824 -0.2709
 3491TIP3    H131888   4.574   6.693  13.966 -0.6764 -2.3302 -0.8588
 3491TIP3    H231889   4.434   6.728  14.011 -0.4506 -2.0886 -0.3327
 3492TIP3   OH231890   6.246   2.803  13.967 -0.3348 -0.4050  0.4411
 3492TIP3    H131891   6.313   2.746  13.931 -1.3610 -0.6823 -1.0585
 3492TIP3    H231892   6.180   2.744  14.002 -0.6201 -0.1358  0.3632
 3493TIP3   OH231893   5.956   1.197   2.908 -0.0176 -0.0904 -0.6379
 3493TIP3    H131894   5.951   1.276   2.855 -0.4447 -0.9547 -1.9263
 3493TIP3    H231895   5.875   1.197   2.959  0.7563  1.1495  0.6238
 3494TIP3   OH231896   0.698   1.494   1.936  0.6709  0.5705 -0.1280
 3494TIP3    H131897   0.718   1.558   2.004 -0.5991 -0.7451  1.5411
 3494TIP3    H231898   0.736   1.412   1.970 -0.7172 -0.2720 -0.5987
 3495TIP3   OH231899   5.013   3.881  16.748 -0.2863  0.2149 -0.4774
 3495TIP3    H131900   4.926   3.865  16.783 -0.4350  2.1192  0.0919
 3495TIP3    H231901   5.013   3.974  16.726  0.7498 -0.3137 -2.9132
 3496TIP3   OH231902   0.334   3.249   0.079 -1.1875  0.0457  0.2169
 3496TIP3    H131903   0.391   3.308   0.129 -1.4499 -0.1609  0.7724
 3496TIP3    H231904   0.390   3.175   0.057 -0.6760  0.8041 -1.0656
 3497TIP3   OH231905   3.643   1.098  16.116  0.0747 -0.0362  0.5461
 3497TIP3    H131906   3.575   1.060  16.172 -0.8309 -1.3103 -1.3318
 3497TIP3    H231907   3.709   1.029  16.109  0.3610  0.2557  0.3715
 3498TIP3   OH231908   3.496   1.262  15.018  0.1094  0.2303  0.0909
 3498TIP3    H131909   3.587   1.251  14.991 -0.7432 -2.3187 -1.9786
 3498TIP3    H231910   3.451   1.294  14.940 -1.1260 -0.4248  0.5131
 3499TIP3   OH231911   2.106   5.026   1.549  0.5921 -0.1485 -0.3591
 3499TIP3    H131912   2.143   5.063   1.629 -1.1809 -0.6304  0.7139
 3499TIP3    H231913   2.057   5.098   1.510 -0.1137 -0.4366 -0.0104
 3500TIP3   OH231914   5.456   4.750  15.766 -0.2363  0.1155 -0.1734
 3500TIP3    H131915   5.375   4.698  15.764 -0.0728 -0.1283 -0.5725
 3500TIP3    H231916   5.492   4.740  15.678  1.5363 -1.8315  0.7253
 3501TIP3   OH231917   0.606   1.157  17.210 -0.1599 -0.1620 -0.1895
 3501TIP3    H131918   0.684   1.129  17.258 -0.1092  0.3155  0.0052
 3501TIP3    H231919   0.545   1.084  17.220  0.2559 -0.5297 -0.3305
 3502TIP3   OH231920   0.808   0.634   4.375 -0.4310 -0.2455 -0.5811
 3502TIP3    H131921   0.781   0.567   4.438 -1.1173  0.7676  0.2327
 3502TIP3    H231922   0.896   0.608   4.349  0.3840 -0.0126  1.7898
 3503TIP3   OH231923   4.483   2.449   2.505  0.2376 -0.2626  0.0330
 3503TIP3    H131924   4.417   2.504   2.546  1.7703  0.9892  0.8860
 3503TIP3    H231925   4.543   2.511   2.463  1.2710 -1.3343 -0.0947
 3504TIP3   OH231926   3.624   6.565  11.588 -0.1560 -0.2785 -0.1946
 3504TIP3    H131927   3.687   6.605  11.647 -0.3864  0.5660 -0.5207
 3504TIP3    H231928   3.622   6.472  11.614 -0.3216  0.0982  1.1769
 3505TIP3   OH231929   6.475   4.205  14.331  0.1219 -0.2398  0.1395
 3505TIP3    H131930   6.422   4.255  14.393  1.0175 -0.9014  1.4760
 3505TIP3    H231931   6.445   4.115  14.341 -0.4371 -0.2070 -1.1536
 3506TIP3   OH231932   6.344   1.525   3.281 -0.1975 -0.0705 -0.2051
 3506TIP3    H131933   6.396   1.604   3.296 -0.0928  0.5172 -3.3751
 3506TIP3    H231934   6.254   1.556   3.272 -0.5681 -0.6529  1.3195
 3507TIP3   OH231935   6.104   6.774  11.259 -0.1042  0.2000  0.2593
 3507TIP3    H131936   6.020   6.732  11.281 -0.3216  0.2965 -0.3771
 3507TIP3    H231937   6.118   6.751  11.167  2.1236 -2.4752  1.2143
 3508TIP3   OH231938   1.713   2.058   0.484 -0.1999  0.4654  0.1189
 3508TIP3    H131939   1.626   2.083   0.515 -0.1648  0.0910  0.5099
 3508TIP3    H231940   1.711   2.078   0.390 -0.8384  0.0919  0.0500
 3509TIP3   OH231941   6.031   0.652  10.741  0.3997 -0.1344 -0.4970
 3509TIP3    H131942   6.051   0.684  10.829  0.8330  0.3698 -0.7743
 3509TIP3    H231943   5.936   0.640  10.740  0.3908 -0.1196  0.0296
 3510TIP3   OH231944   2.931   4.062  14.224  0.4745  0.3832  0.1115
 3510TIP3    H131945   2.857   4.052  14.283  0.6473 -0.3622  0.2118
 3510TIP3    H231946   3.003   4.018  14.269  0.2905 -1.3418 -1.2297
 3511TIP3   OH231947   2.146   2.614  14.494 -0.0632 -0.5276 -0.0298
 3511TIP3    H131948   2.139   2.670  14.572  1.2604 -0.6512  0.1933
 3511TIP3    H231949   2.109   2.530  14.522 -1.5656  0.0608 -0.2012
 3512TIP3   OH231950   3.504   3.469  14.351 -0.6597 -0.6545  0.2652
 3512TIP3    H131951   3.510   3.548  14.297  0.6147 -0.6344  0.4180
 3512TIP3    H231952   3.420   3.430  14.327  0.0076 -0.8047 -1.9366
 3513TIP3   OH231953   3.330   2.770   0.934  0.4638 -0.4040  0.3751
 3513TIP3    H131954   3.239   2.781   0.906  0.5279  2.1041  1.0833
 3513TIP3    H231955   3.345   2.676   0.927 -2.0441 -0.8113 -0.1636
 3514TIP3   OH231956   3.020   4.904   1.730  0.1786  0.2131 -0.4525
 3514TIP3    H131957   3.032   4.957   1.651 -1.8062  0.2944 -0.7293
 3514TIP3    H231958   2.960   4.834   1.704 -0.5245  0.2580  0.9637
 3515TIP3   OH231959   3.484   6.631  13.408 -0.7682  0.5520  0.6543
 3515TIP3    H131960   3.523   6.690  13.343  1.4925  0.0481  1.4850
 3515TIP3    H231961   3.397   6.611  13.374  0.0421  0.9905 -1.7712
 3516TIP3   OH231962   0.103   3.893  16.544  0.3057 -0.0415  0.2186
 3516TIP3    H131963   0.036   3.826  16.535  1.3893 -0.9953 -0.9493
 3516TIP3    H231964   0.089   3.951  16.469 -0.6335  1.0583  1.2270
 3517TIP3   OH231965   5.841   6.717  12.974  0.1890 -0.3683  0.0016
 3517TIP3    H131966   5.858   6.743  13.065 -0.3900 -1.0941  0.3240
 3517TIP3    H231967   5.750   6.742  12.959  0.4295  0.1822 -0.5348
 3518TIP3   OH231968   0.204   0.038  13.847  0.4263  0.0811  0.0418
 3518TIP3    H131969   0.249  -0.040  13.878  1.4672 -0.0999 -1.8232
 3518TIP3    H231970   0.255   0.066  13.770 -0.2676  2.2513  0.3337
 3519TIP3   OH231971   4.810   0.737   2.881  0.5043  0.5621 -0.2552
 3519TIP3    H131972   4.732   0.733   2.825 -0.6398  0.4128  1.2991
 3519TIP3    H231973   4.873   0.680   2.838 -0.6414 -0.2067 -0.9635
 3520TIP3   OH231974   3.244   1.808  14.081  0.1496  0.5267 -0.1219
 3520TIP3    H131975   3.325   1.858  14.086 -0.3605  1.4554 -1.0347
 3520TIP3    H231976   3.177   1.872  14.058 -0.7837 -0.3019  0.2218
 3521TIP3   OH231977   4.205   0.361  10.523 -0.0999 -0.0920  0.4150
 3521TIP3    H131978   4.243   0.276  10.503  2.1727  0.4605  2.1190
 3521TIP3    H231979   4.111   0.347  10.518  0.2606 -2.1531 -1.4268
 3522TIP3   OH231980   1.476   5.034   4.144  0.0009 -0.5179 -0.0455
 3522TIP3    H131981   1.510   5.105   4.089 -1.0248 -0.5965 -0.8094
 3522TIP3    H231982   1.447   5.077   4.224 -1.8410  0.1316 -1.0349
 3523TIP3   OH231983   5.889   1.667   0.114 -0.0349  0.0177  0.4899
 3523TIP3    H131984   5.976   1.707   0.105 -0.1945  0.7368  1.8963
 3523TIP3    H231985   5.839   1.701   0.041  0.5493  0.4936  0.3085
 3524TIP3   OH231986   1.917   3.876   3.925 -0.0173 -0.2039  0.2486
 3524TIP3    H131987   1.887   3.966   3.912  0.2480  0.0197  1.1797
 3524TIP3    H231988   1.836   3.824   3.935 -0.1699 -0.0794 -0.3439
 3525TIP3   OH231989   6.308   2.715   2.705  0.1266  0.5551 -0.7339
 3525TIP3    H131990   6.397   2.748   2.714  0.9806 -1.9126  0.3009
 3525TIP3    H231991   6.305   2.676   2.618 -0.3837  1.8288 -1.3045
 3526TIP3   OH231992   3.686   5.666  13.583  0.5759  0.7405  0.5341
 3526TIP3    H131993   3.594   5.648  13.566  0.9388 -0.1530 -0.5388
 3526TIP3    H231994   3.696   5.759  13.564 -0.1715  0.9133  0.9707
 3527TIP3   OH231995   2.783   1.724   3.114  0.1252  0.2260  0.3860
 3527TIP3    H131996   2.772   1.629   3.118 -2.2461  0.4294 -0.6854
 3527TIP3    H231997   2.781   1.752   3.206 -1.7483 -0.4923  0.5708
 3528TIP3   OH231998   5.713   5.909  14.807  0.0533  0.1182 -0.0456
 3528TIP3    H131999   5.745   5.850  14.738  3.1419 -0.4774  1.8293
 3528TIP3    H232000   5.768   5.987  14.800 -1.2330  1.0695  0.2138
 3529TIP3   OH232001   4.466   0.656   0.829 -0.0396 -0.2023  0.0619
 3529TIP3    H132002   4.545   0.603   0.818 -0.0936 -0.2516 -0.0947
 3529TIP3    H232003   4.395   0.592   0.835 -0.0969 -0.1493 -0.0502
 3530TIP3   OH232004   5.281   0.872  15.530  0.6005 -0.0593 -0.1859
 3530TIP3    H132005   5.373   0.876  15.506  0.2265  0.9864 -1.4692
 3530TIP3    H232006   5.274   0.792  15.582  2.2506 -0.0784  0.0379
 3531TIP3   OH232007   6.456   3.791   2.821  0.7802  0.5972  0.0094
 3531TIP3    H132008   6.392   3.859   2.801 -0.5535 -0.6512  0.0058
 3531TIP3    H232009   6.507   3.782   2.740 -0.2038  0.3439 -0.5956
 3532TIP3   OH232010   4.105   6.259   5.869 -0.1756 -0.4295 -0.2584
 3532TIP3    H132011   4.110   6.353   5.881  0.3224 -0.4227 -0.5135
 3532TIP3    H232012   4.188   6.226   5.904  0.2279 -0.6426 -1.4205
 3533TIP3   OH232013   6.042   0.504  16.797  0.0655 -0.4282 -0.0392
 3533TIP3    H132014   5.973   0.566  16.823  1.1616  1.7494 -2.1379
 3533TIP3    H232015   6.000   0.419  16.800 -2.5607  0.7914 -0.6027
 3534TIP3   OH232016   2.080   2.170   3.789 -0.6438  0.0636 -0.2947
 3534TIP3    H132017   2.121   2.255   3.778  0.1799 -0.2438  0.3702
 3534TIP3    H232018   2.129   2.111   3.733 -0.7182 -0.1342 -0.1549
 3535TIP3   OH232019   3.463   5.882  14.413  0.1973 -0.0855  0.0325
 3535TIP3    H132020   3.524   5.956  14.408 -0.3196  0.2962 -0.6423
 3535TIP3    H232021   3.425   5.876  14.326  0.0981 -1.0398  0.1313
 3536TIP3   OH232022   5.944   1.167  14.961 -0.1643 -0.7611 -0.1005
 3536TIP3    H132023   5.891   1.247  14.964  0.0986 -0.5678 -0.4997
 3536TIP3    H232024   5.931   1.126  15.046  0.0670 -0.0549  0.2796
 3537TIP3   OH232025   4.013   6.271   4.275 -0.1562  0.6384  0.0582
 3537TIP3    H132026   3.978   6.321   4.202 -1.5080 -0.2924  0.0400
 3537TIP3    H232027   4.064   6.334   4.326  0.4041  1.3907 -1.4283
 3538TIP3   OH232028   0.498   5.027   1.237 -0.2025 -0.1255 -0.5197
 3538TIP3    H132029   0.434   4.994   1.300  0.5766  0.5432  0.6486
 3538TIP3    H232030   0.577   5.042   1.289 -0.2324  2.5986 -1.2107
 3539TIP3   OH232031   1.473   1.725  12.660 -0.7204  0.8474 -0.5228
 3539TIP3    H132032   1.432   1.679  12.734  1.1431  0.7888  0.5028
 3539TIP3    H232033   1.447   1.674  12.584 -1.6846  0.2045  0.2129
 3540TIP3   OH232034   2.909   3.612  14.457  0.0572 -0.5174 -0.5454
 3540TIP3    H132035   2.826   3.647  14.489 -1.5631 -1.6011 -3.3260
 3540TIP3    H232036   2.970   3.623  14.530 -2.5624  0.1588  1.6263
 3541TIP3   OH232037   2.404   0.955  16.539 -0.3122  0.4763 -0.3923
 3541TIP3    H132038   2.423   0.874  16.492  0.4985  0.3587  0.1216
 3541TIP3    H232039   2.330   0.932  16.596 -0.4219  0.2470 -0.6266
 3542TIP3   OH232040   0.397   1.298   2.281  0.3872  0.2256 -0.1098
 3542TIP3    H132041   0.386   1.387   2.248  1.9568  0.2096 -0.7409
 3542TIP3    H232042   0.403   1.243   2.203 -1.9315 -0.6461  0.2832
 3543TIP3   OH232043   0.297   0.075   0.717 -0.1313 -0.1784 -0.1336
 3543TIP3    H132044   0.202   0.071   0.729  0.1139 -1.2492  1.6896
 3543TIP3    H232045   0.317  -0.000   0.662 -0.1796 -0.8016  0.6919
 3544TIP3   OH232046   1.188   3.641   2.491 -0.2818  0.2053 -0.0922
 3544TIP3    H132047   1.232   3.710   2.540 -1.5714  1.2692 -0.4078
 3544TIP3    H232048   1.179   3.569   2.554  2.2811 -0.2191 -0.1485
 3545TIP3   OH232049   1.477   0.950  15.807  0.2981  0.1085  0.6328
 3545TIP3    H132050   1.433   0.896  15.742 -0.5177  1.0889  0.3539
 3545TIP3    H232051   1.523   1.017  15.757  1.4946 -0.4623  0.9628
 3546TIP3   OH232052   5.224   5.235  14.832  0.2142  0.1834 -0.3395
 3546TIP3    H132053   5.168   5.275  14.766  1.4521  0.0284 -1.4938
 3546TIP3    H232054   5.203   5.142  14.829  1.8687 -0.1784 -2.1442
 3547TIP3   OH232055   0.746   3.548   1.814 -0.1589  0.4719  0.4690
 3547TIP3    H132056   0.794   3.603   1.875 -1.6934  2.8683 -0.4211
 3547TIP3    H232057   0.761   3.587   1.728 -0.9407 -0.7195 -0.2337
 3548TIP3   OH232058   0.752   4.143  10.650  0.0799  0.0994 -0.1225
 3548TIP3    H132059   0.673   4.130  10.599  0.7415 -1.6177 -0.7531
 3548TIP3    H232060   0.781   4.231  10.629  0.0165 -0.3763 -2.2631
 3549TIP3   OH232061   0.519   1.958   4.470  0.1601 -0.1651 -1.0519
 3549TIP3    H132062   0.494   2.043   4.432  1.0643  1.0342  0.9765
 3549TIP3    H232063   0.452   1.941   4.536  0.1196 -0.9360 -1.2879
 3550TIP3   OH232064   4.866   6.286  13.118  0.6618 -0.0453  0.1048
 3550TIP3    H132065   4.958   6.306  13.134  0.8170 -0.7063  0.0735
 3550TIP3    H232066   4.865   6.245  13.032  0.3632 -0.2074  0.1832
 3551TIP3   OH232067   5.826   2.847  16.048  0.0766  0.1594  0.9297
 3551TIP3    H132068   5.769   2.924  16.046  2.1469  1.7171 -2.6483
 3551TIP3    H232069   5.911   2.881  16.079  0.1723 -1.3624  2.4186
 3552TIP3   OH232070   2.066   2.721  12.618 -0.6348 -0.1117 -0.2630
 3552TIP3    H132071   2.005   2.694  12.550 -0.7952  2.8138 -1.3497
 3552TIP3    H232072   2.024   2.796  12.661  1.5650  1.0995 -0.1362
 3553TIP3   OH232073   6.272   3.034  14.122 -0.6269 -0.1574 -0.2594
 3553TIP3    H132074   6.363   3.051  14.148 -1.1930  1.9186  0.4101
 3553TIP3    H232075   6.276   2.949  14.078  1.5541 -0.3388  0.2187
 3554TIP3   OH232076   2.609   0.811   6.114  0.1664 -0.1451 -0.1546
 3554TIP3    H132077   2.576   0.860   6.190 -0.9719 -0.6800 -0.2925
 3554TIP3    H232078   2.695   0.849   6.097  0.1854  0.3824  1.0416
 3555TIP3   OH232079   0.106   4.667   3.692  0.6259  0.0271  0.4466
 3555TIP3    H132080   0.138   4.599   3.751  1.8233 -0.3092 -0.5697
 3555TIP3    H232081   0.023   4.695   3.731 -0.3828 -2.6683  0.3831
 3556TIP3   OH232082   4.642   2.847   6.278  0.0114  0.4051 -0.5830
 3556TIP3    H132083   4.586   2.797   6.336  2.0951 -2.0164 -0.5789
 3556TIP3    H232084   4.669   2.923   6.329 -2.1401  0.9027 -0.1421
 3557TIP3   OH232085   0.267   2.416   0.935 -0.2976 -0.3460  0.1814
 3557TIP3    H132086   0.272   2.452   0.847 -0.4410 -0.5263  0.0999
 3557TIP3    H232087   0.201   2.469   0.979 -0.7776 -0.7565 -0.0524
 3558TIP3   OH232088   5.449   2.364   1.960 -0.2423  0.0830 -0.1951
 3558TIP3    H132089   5.355   2.384   1.962 -0.2722 -0.1070  0.4240
 3558TIP3    H232090   5.490   2.442   1.998 -0.0273  0.8412 -1.9537
 3559TIP3   OH232091   6.545   6.440   3.365  0.2202 -0.3509  0.0143
 3559TIP3    H132092   6.451   6.421   3.371  0.1807 -0.4895 -0.9604
 3559TIP3    H232093   6.581   6.406   3.446 -0.9303  1.9112  1.5332
 3560TIP3   OH232094   5.119   2.639  12.543  0.1039  0.8650 -0.1737
 3560TIP3    H132095   5.197   2.586  12.528 -0.1049  0.9073 -1.4957
 3560TIP3    H232096   5.099   2.627  12.636  0.5810 -0.6595 -0.2460
 3561TIP3   OH232097   5.146   4.348  11.913  0.0079  0.5138  0.6655
 3561TIP3    H132098   5.094   4.386  11.842  1.6868 -0.5553 -1.2117
 3561TIP3    H232099   5.085   4.289  11.958 -0.8507  0.5249 -0.4552
 3562TIP3   OH232100   6.637   1.468  13.114  0.6459 -0.3205 -0.3303
 3562TIP3    H132101   6.722   1.485  13.154  0.1989  4.3279 -1.1238
 3562TIP3    H232102   6.574   1.486  13.184  0.1166  2.2611 -1.4158
 3563TIP3   OH232103   6.046   5.302  13.058 -0.3109 -0.6441 -0.5699
 3563TIP3    H132104   6.022   5.236  12.992  0.8386 -0.7276 -0.9187
 3563TIP3    H232105   6.127   5.269  13.096 -0.4343 -0.0857  0.1914
 3564TIP3   OH232106   6.581   4.107   0.839  0.3254  0.2413  0.3219
 3564TIP3    H132107   6.605   4.131   0.928  1.3313 -0.3225  0.2028
 3564TIP3    H232108   6.487   4.128   0.834  0.2600  0.2867  1.4990
 3565TIP3   OH232109   1.741   2.201  13.323  0.1645  0.0367  0.6942
 3565TIP3    H132110   1.784   2.251  13.254 -0.2222  0.2387  0.5987
 3565TIP3    H232111   1.687   2.265  13.369  0.2323 -0.1448  1.0357
 3566TIP3   OH232112   6.000   5.762  14.130 -0.1085 -0.4545 -0.7294
 3566TIP3    H132113   6.081   5.738  14.174  0.6798  2.5871 -0.4137
 3566TIP3    H232114   5.937   5.776  14.200  0.0681  0.5764 -0.7692
 3567TIP3   OH232115   5.502   0.901  13.293  0.2131  0.2312 -0.3485
 3567TIP3    H132116   5.479   0.889  13.386 -0.6601  1.8398 -0.3458
 3567TIP3    H232117   5.459   0.982  13.268  0.3566 -0.2497 -2.2135
 3568TIP3   OH232118   5.080   0.916   4.288  0.0903 -0.0510 -0.0417
 3568TIP3    H132119   4.990   0.887   4.304  0.9224 -1.3281  2.5745
 3568TIP3    H232120   5.070   1.002   4.247 -2.3256 -0.3607 -0.1930
 3569TIP3   OH232121   5.829   0.319   0.516  0.7422  0.3880  0.0767
 3569TIP3    H132122   5.880   0.349   0.591  0.8015  1.0675 -0.2362
 3569TIP3    H232123   5.830   0.392   0.455 -0.0255  0.1532 -0.2259
 3570TIP3   OH232124   1.374   1.369   2.259 -0.5868 -0.0197 -0.5581
 3570TIP3    H132125   1.322   1.449   2.272 -2.6089 -1.2824 -0.6711
 3570TIP3    H232126   1.414   1.381   2.173  1.1871  1.9723  0.4914
 3571TIP3   OH232127   6.171   0.674  15.382 -0.0341 -0.5611  0.2733
 3571TIP3    H132128   6.086   0.659  15.424  0.5722 -2.4956  0.8289
 3571TIP3    H232129   6.153   0.744  15.319 -1.6163  0.3681  1.6757
 3572TIP3   OH232130   6.155   4.109  14.983  0.1194  0.3073  0.3520
 3572TIP3    H132131   6.185   4.025  15.019 -0.7670 -0.2358 -0.1519
 3572TIP3    H232132   6.231   4.145  14.938  0.5871 -0.0874  0.8203
 3573TIP3   OH232133   2.390   3.148   0.620 -0.4454  0.1193  0.3113
 3573TIP3    H132134   2.352   3.066   0.653 -0.0918 -0.4021 -0.5585
 3573TIP3    H232135   2.412   3.129   0.529 -0.9350  1.3831 -0.0757
 3574TIP3   OH232136   4.639   4.586  12.839 -0.3506 -0.1903  0.0484
 3574TIP3    H132137   4.655   4.539  12.921 -2.1510 -2.4412 -0.8167
 3574TIP3    H232138   4.701   4.548  12.777  1.7641  2.2687  0.5699
 3575TIP3   OH232139   3.013   0.449  12.720  0.7528 -0.0704  0.1537
 3575TIP3    H132140   3.080   0.436  12.788  0.3174  0.6373  0.7282
 3575TIP3    H232141   3.005   0.544  12.712 -1.2680 -0.1211  1.1949
 3576TIP3   OH232142   2.419   3.030   1.458  0.1703 -0.0482 -0.3997
 3576TIP3    H132143   2.396   3.009   1.549  2.3705  0.9475  0.4361
 3576TIP3    H232144   2.346   3.081   1.426  0.7102  2.2739  1.8741
 3577TIP3   OH232145   4.103   1.916  11.026 -0.6058  0.4753  0.2508
 3577TIP3    H132146   4.033   1.974  10.997  0.6165  0.4671 -2.8162
 3577TIP3    H232147   4.111   1.850  10.957  3.1016  1.0763 -0.0106
 3578TIP3   OH232148   0.732   2.126   1.475 -0.3610 -0.0645  0.1462
 3578TIP3    H132149   0.774   2.041   1.488  3.4563  1.3832 -1.8811
 3578TIP3    H232150   0.729   2.137   1.380 -3.4145  0.8898  0.3003
 3579TIP3   OH232151   1.631   1.048  16.016 -0.9224  0.7317  0.2070
 3579TIP3    H132152   1.581   1.026  15.937 -0.0848 -0.1984 -0.0726
 3579TIP3    H232153   1.572   1.026  16.088 -0.7447 -0.8684 -0.1114
 3580TIP3   OH232154   0.802   2.320  10.980  0.4843 -0.3266  0.4631
 3580TIP3    H132155   0.850   2.338  11.061 -0.2617  0.1520  0.8049
 3580TIP3    H232156   0.796   2.406  10.937 -2.2750  0.1007  1.6416
 3581TIP3   OH232157   5.562   2.812  16.418 -0.2891 -0.2204 -0.1326
 3581TIP3    H132158   5.480   2.849  16.386  0.2744  1.9407  0.8545
 3581TIP3    H232159   5.581   2.861  16.499  1.4145 -1.4240  0.2233
 3582TIP3   OH232160   4.191   3.891  16.559 -0.3687  0.0760  0.1747
 3582TIP3    H132161   4.138   3.872  16.637 -0.4768 -3.1389 -0.6143
 3582TIP3    H232162   4.244   3.967  16.584 -0.0234 -1.1925  3.5843
 3583TIP3   OH232163   3.924   5.721  14.086  0.9235 -0.1046  0.0758
 3583TIP3    H132164   3.866   5.666  14.034  0.0117  0.4677  0.4826
 3583TIP3    H232165   4.010   5.709  14.045  0.3581 -0.2194 -1.1152
 3584TIP3   OH232166   5.589   5.168  13.178 -0.1643 -0.1696  0.1301
 3584TIP3    H132167   5.637   5.211  13.250 -0.9435 -0.0129  0.5581
 3584TIP3    H232168   5.518   5.228  13.158 -0.8738 -0.9518  0.2840
 3585TIP3   OH232169   2.080   5.092   6.320 -0.2195 -0.5235 -0.3699
 3585TIP3    H132170   2.135   5.021   6.286  1.0798  0.1976  0.2106
 3585TIP3    H232171   2.115   5.110   6.407  1.2602  2.6946 -1.5488
 3586TIP3   OH232172   3.092   5.384  16.218  0.6032 -0.0559 -0.3632
 3586TIP3    H132173   3.033   5.314  16.190 -0.0477 -0.0020  0.8478
 3586TIP3    H232174   3.093   5.378  16.314 -0.5968  2.4659 -0.1369
 3587TIP3   OH232175   4.683   1.569   6.209  0.3219 -0.1682 -0.2652
 3587TIP3    H132176   4.630   1.489   6.213  0.2974 -0.1090  0.8342
 3587TIP3    H232177   4.726   1.565   6.124 -0.6876 -0.7056 -0.7673
 3588TIP3   OH232178   3.943   0.004  11.261 -0.0618 -0.2997 -0.0524
 3588TIP3    H132179   4.005   0.034  11.196 -3.2881  1.3618 -2.5042
 3588TIP3    H232180   3.927   0.081  11.316  0.6604 -0.9587  1.0940
 3589TIP3   OH232181   2.653   3.580  12.332 -0.3352  0.1574 -0.2370
 3589TIP3    H132182   2.700   3.655  12.295  1.3164  0.2724  1.9614
 3589TIP3    H232183   2.697   3.503  12.297  0.5765  0.2619  0.6467
 3590TIP3   OH232184   5.540   5.320  16.228 -0.1533 -0.2341  0.0537
 3590TIP3    H132185   5.515   5.284  16.313  0.1608 -3.2367 -1.0473
 3590TIP3    H232186   5.473   5.288  16.168 -0.7687  2.4392 -0.7523
 3591TIP3   OH232187   6.452   2.427  11.318  0.5329 -0.0277  0.0093
 3591TIP3    H132188   6.454   2.355  11.256  1.7676  0.6917 -0.8131
 3591TIP3    H232189   6.544   2.452  11.330  0.2678  0.2185  1.6850
 3592TIP3   OH232190   2.874   4.014  13.342 -0.4554 -0.3777 -0.4606
 3592TIP3    H132191   2.813   4.042  13.274 -0.6423  0.8062  0.1866
 3592TIP3    H232192   2.960   4.015  13.298 -0.9204 -2.4530 -1.4886
 3593TIP3   OH232193   2.023   5.476  11.899 -0.3336  0.4479  0.2406
 3593TIP3    H132194   2.063   5.439  11.977 -0.8564  0.7784  0.6716
 3593TIP3    H232195   2.037   5.411  11.831 -0.7193 -0.2711  0.8500
 3594TIP3   OH232196   4.271   4.666  16.937  0.2707  0.0239 -0.7378
 3594TIP3    H132197   4.195   4.690  16.991 -1.5029 -1.0801 -2.6732
 3594TIP3    H232198   4.290   4.745  16.886 -0.1027  0.0605 -0.8300
 3595TIP3   OH232199   4.597   5.593   5.007  0.3275  0.0663 -0.5961
 3595TIP3    H132200   4.537   5.638   5.066 -1.0613 -2.4524 -0.0290
 3595TIP3    H232201   4.681   5.593   5.053 -0.7534 -1.9518  1.4777
 3596TIP3   OH232202   5.334   2.714  16.640 -0.0399 -0.0319  0.1373
 3596TIP3    H132203   5.276   2.682  16.709 -0.6891  1.0044  0.0879
 3596TIP3    H232204   5.381   2.787  16.680 -0.2123  0.3931 -0.4272
 3597TIP3   OH232205   2.168   0.551  17.106 -0.0026 -0.1872  0.2931
 3597TIP3    H132206   2.112   0.501  17.166  0.5971  0.3225  1.2974
 3597TIP3    H232207   2.254   0.511  17.113 -0.3471 -1.3190 -1.6723
 3598TIP3   OH232208   2.800   2.814  11.002 -0.0782 -0.9951  0.0670
 3598TIP3    H132209   2.882   2.765  11.012  2.4496  3.2913  1.6161
 3598TIP3    H232210   2.771   2.832  11.091 -0.0523  1.6501 -0.4227
 3599TIP3   OH232211   2.262   4.882  13.256 -0.0837  0.1764 -0.0232
 3599TIP3    H132212   2.289   4.970  13.229  1.3594 -0.4412 -0.6362
 3599TIP3    H232213   2.321   4.860  13.328  0.3794 -0.7715 -0.6812
 3600TIP3   OH232214   2.076   5.856   1.389  1.1224 -0.0668  0.0080
 3600TIP3    H132215   2.047   5.889   1.304 -0.9383 -2.3976 -0.2432
 3600TIP3    H232216   2.082   5.934   1.445  1.4315  1.3396 -1.9408
 3601TIP3   OH232217   4.146   3.222  17.002 -0.2653 -0.1998  0.0835
 3601TIP3    H132218   4.225   3.173  16.980 -2.2634 -2.8739 -1.4459
 3601TIP3    H232219   4.172   3.314  16.993  3.4639 -0.8836  2.5402
 3602TIP3   OH232220   0.013   0.587   3.364  0.1610  0.2483  0.1836
 3602TIP3    H132221  -0.017   0.535   3.439  1.1502 -1.1493 -0.3604
 3602TIP3    H232222  -0.067   0.604   3.314 -0.2224 -0.4922  0.5283
 3603TIP3   OH232223   1.243   0.338  12.339 -0.1417 -0.1622 -0.1061
 3603TIP3    H132224   1.185   0.393  12.286 -0.3561  0.3753  0.6793
 3603TIP3    H232225   1.293   0.400  12.392  1.0147 -0.6270 -0.6181
 3604TIP3   OH232226   1.938   1.284   1.063  0.2519  0.2401  0.0379
 3604TIP3    H132227   1.880   1.294   0.987  1.2773  0.0169 -0.7739
 3604TIP3    H232228   2.018   1.246   1.028 -0.0692 -1.9719  1.5721
 3605TIP3   OH232229   0.689   2.452   2.154 -0.2215 -0.3593  0.2986
 3605TIP3    H132230   0.607   2.481   2.115  0.5557  0.0277 -1.0440
 3605TIP3    H232231   0.740   2.532   2.167 -0.0847 -0.5843  1.2250
 3606TIP3   OH232232   4.879   2.161  13.901  0.2627 -1.0459 -0.1807
 3606TIP3    H132233   4.954   2.207  13.940 -0.0648 -2.3477  2.0923
 3606TIP3    H232234   4.854   2.215  13.827  2.4569  0.2656 -0.0247
 3607TIP3   OH232235   1.976   3.065  17.105 -1.0458 -0.4227 -0.8477
 3607TIP3    H132236   1.928   3.138  17.145  1.6329  1.5643 -1.1551
 3607TIP3    H232237   2.007   3.013  17.180 -2.1740 -0.7573 -0.5993
 3608TIP3   OH232238   0.043   4.216  12.675  0.2196  0.4704 -0.5699
 3608TIP3    H132239  -0.033   4.221  12.617 -1.6480 -1.6389  1.5748
 3608TIP3    H232240   0.097   4.147  12.639  0.4661  1.0750 -1.3611
 3609TIP3   OH232241   2.180   0.605   6.001 -0.0244 -0.1846 -0.2867
 3609TIP3    H132242   2.219   0.571   6.081  0.5271 -1.1076 -0.9429
 3609TIP3    H232243   2.250   0.654   5.959 -0.3842  0.5096 -0.0911
 3610TIP3   OH232244   3.787   1.204  11.036 -0.3061 -0.5664  0.0830
 3610TIP3    H132245   3.738   1.149  10.975  0.4680  0.8148 -1.8373
 3610TIP3    H232246   3.797   1.288  10.990  4.1753 -0.9053  0.2022
 3611TIP3   OH232247   6.518   1.238   4.311  0.1419 -0.0771  0.0516
 3611TIP3    H132248   6.508   1.331   4.329  0.0225  0.0876 -0.8434
 3611TIP3    H232249   6.543   1.200   4.395  2.2483  1.0621 -0.0351
 3612TIP3   OH232250   6.279   5.568   0.515  0.0774  0.1717  0.8504
 3612TIP3    H132251   6.221   5.573   0.592 -0.3506  1.1011  0.4787
 3612TIP3    H232252   6.367   5.573   0.552  0.0091 -2.7173  1.5482
 3613TIP3   OH232253   0.398   2.990  12.357 -0.3050  0.2479  0.4931
 3613TIP3    H132254   0.400   3.083  12.337  0.9568  0.3291  0.9961
 3613TIP3    H232255   0.305   2.967  12.356 -0.5618  1.3176 -0.5114
 3614TIP3   OH232256   0.529   1.770  16.156 -0.3451 -0.5738 -0.2280
 3614TIP3    H132257   0.613   1.814  16.162 -0.9128  0.7194 -1.5563
 3614TIP3    H232258   0.475   1.811  16.223 -0.0807 -1.0880  0.3097
 3615TIP3   OH232259   4.238   1.690   3.923 -0.0665 -0.2626 -0.0081
 3615TIP3    H132260   4.296   1.706   3.848  0.9616  0.0317  0.8465
 3615TIP3    H232261   4.198   1.605   3.904 -1.0702  0.5437 -1.6854
 3616TIP3   OH232262   4.189   3.806  11.845 -0.2536 -0.1809 -0.0708
 3616TIP3    H132263   4.231   3.892  11.847  0.6602 -0.5946 -1.1797
 3616TIP3    H232264   4.121   3.811  11.912 -1.7171  2.1810 -1.6580
 3617TIP3   OH232265   0.296   2.964  15.328 -0.2201 -1.0468 -0.2092
 3617TIP3    H132266   0.208   2.980  15.363  0.4218 -0.9063  1.3700
 3617TIP3    H232267   0.334   2.898  15.386  1.2473 -0.0444 -0.0006
 3618TIP3   OH232268   1.774   5.303   4.700  0.0346 -0.3889  0.1413
 3618TIP3    H132269   1.759   5.343   4.614  0.6713 -1.9938 -0.7335
 3618TIP3    H232270   1.756   5.374   4.762 -0.6295  0.7426 -1.2922
 3619TIP3   OH232271   6.603   6.610  11.868  0.0091  0.4679 -0.2076
 3619TIP3    H132272   6.540   6.681  11.852 -0.2417 -0.1609 -2.1671
 3619TIP3    H232273   6.564   6.559  11.939  0.0521  2.1214  1.0186
 3620TIP3   OH232274   1.892   3.557   1.134 -0.3422  0.2928  0.6531
 3620TIP3    H132275   1.936   3.611   1.069  0.7073 -0.0524  1.0740
 3620TIP3    H232276   1.892   3.610   1.214 -1.8660  0.8259  0.3132
 3621TIP3   OH232277   6.112   5.499  11.885  0.0863  0.2155  0.0082
 3621TIP3    H132278   6.052   5.545  11.826 -0.5772  0.2570  0.7080
 3621TIP3    H232279   6.063   5.423  11.915  1.1237 -0.8597 -1.0049
 3622TIP3   OH232280   1.881   6.622  12.895 -0.5678 -0.2546 -0.2645
 3622TIP3    H132281   1.833   6.699  12.923 -2.1280 -1.5703  0.7692
 3622TIP3    H232282   1.936   6.599  12.970  0.5585  0.3472 -0.8896
 3623TIP3   OH232283   1.018   1.236  12.385 -0.3641 -0.1106  0.3482
 3623TIP3    H132284   1.075   1.289  12.329 -0.8308  0.2017  0.1681
 3623TIP3    H232285   0.929   1.262  12.360 -0.6216 -1.6085 -0.3650
 3624TIP3   OH232286   4.093   0.057  15.009  0.0532 -0.3698  0.0627
 3624TIP3    H132287   4.163   0.120  15.021  0.1531 -0.4530 -0.0800
 3624TIP3    H232288   4.137  -0.023  14.980  0.2370 -1.4638  3.2616
 3625TIP3   OH232289   3.647   3.867  13.442  0.2893 -0.1181 -0.0683
 3625TIP3    H132290   3.693   3.931  13.388 -2.2648  0.7413 -1.2848
 3625TIP3    H232291   3.559   3.902  13.452 -1.1299 -3.3757 -0.6479
 3626TIP3   OH232292   1.658   6.061   3.577  0.1607 -0.2870  0.3184
 3626TIP3    H132293   1.599   6.093   3.645  0.3236 -2.2192  1.4062
 3626TIP3    H232294   1.602   6.052   3.499 -0.9381 -1.7935  1.2512
 3627TIP3   OH232295   3.245   3.209  16.341 -0.2115  0.0172 -0.4410
 3627TIP3    H132296   3.332   3.246  16.358 -0.6044  0.0268  1.7540
 3627TIP3    H232297   3.252   3.118  16.370 -0.8421 -0.0598 -0.5215
 3628TIP3   OH232298   5.944   3.963   1.681 -0.0921  0.0922  0.2103
 3628TIP3    H132299   5.887   3.950   1.606 -1.4605 -1.6141  1.5002
 3628TIP3    H232300   5.993   3.881   1.688  0.7282  0.6108  0.5935
 3629TIP3   OH232301   4.118   5.525  16.634  0.4292  0.1263  0.1313
 3629TIP3    H132302   4.079   5.452  16.682  2.3945 -0.7020  0.4996
 3629TIP3    H232303   4.211   5.504  16.629  0.6146  1.2858 -2.1177
 3630TIP3   OH232304   6.252   4.594   5.091  0.2007 -0.0105  0.4377
 3630TIP3    H132305   6.272   4.688   5.097 -0.9427  0.2912 -0.1783
 3630TIP3    H232306   6.197   4.587   5.012 -2.0322 -0.7859  2.0081
 3631TIP3   OH232307   0.342   3.490   5.885 -0.3498  0.5143 -0.0867
 3631TIP3    H132308   0.384   3.436   5.952 -0.4893 -1.2303 -1.3721
 3631TIP3    H232309   0.332   3.576   5.926  1.0420 -0.0786  1.5506
 3632TIP3   OH232310   5.574   5.182  11.358  0.1036  0.8549  0.6052
 3632TIP3    H132311   5.478   5.172  11.362 -0.1868  3.6858  1.7686
 3632TIP3    H232312   5.591   5.223  11.273  0.6108 -2.4492 -0.9496
 3633TIP3   OH232313   1.354   1.196  13.998  0.0529  0.2826 -0.3474
 3633TIP3    H132314   1.331   1.115  13.953 -1.9678  1.0642 -0.8200
 3633TIP3    H232315   1.269   1.239  14.015  0.8133  0.5919  3.1473
 3634TIP3   OH232316   2.013   1.591  13.157  0.2738  0.0853 -0.0379
 3634TIP3    H132317   1.964   1.670  13.181 -1.3511 -0.5245 -1.2806
 3634TIP3    H232318   2.097   1.625  13.126  0.6831  1.1368  2.1430
 3635TIP3   OH232319   4.796   6.646  11.833 -0.0541 -0.0895 -1.1158
 3635TIP3    H132320   4.813   6.684  11.747  1.3827 -0.5406 -1.0435
 3635TIP3    H232321   4.876   6.664  11.884 -1.5345  1.6699  0.6709
 3636TIP3   OH232322   5.310   3.869  16.798 -0.2120 -0.2825  0.2574
 3636TIP3    H132323   5.234   3.832  16.844  0.3751 -1.1696  0.5125
 3636TIP3    H232324   5.340   3.940  16.856 -0.0542 -0.7764  0.7832
 3637TIP3   OH232325   5.535   6.498  13.260 -0.0242  0.1641 -0.3960
 3637TIP3    H132326   5.612   6.530  13.214 -0.5669  0.7034 -0.9500
 3637TIP3    H232327   5.569   6.440  13.328  0.8336  0.0577 -0.9156
 3638TIP3   OH232328   4.392   1.028  16.078 -0.1072 -0.2924 -0.1151
 3638TIP3    H132329   4.363   1.086  16.008  1.4275  1.8445  0.9739
 3638TIP3    H232330   4.460   1.077  16.124  1.1876 -2.9066  0.9041
 3639TIP3   OH232331   1.527   0.528  10.897 -0.7949 -0.1122 -0.3208
 3639TIP3    H132332   1.498   0.604  10.846 -3.1945 -0.3149  0.7060
 3639TIP3    H232333   1.486   0.538  10.982  0.9751 -1.2347  0.7072
 3640TIP3   OH232334   2.919   1.656  17.133  0.7119  0.0300  0.0615
 3640TIP3    H132335   2.978   1.729  17.152  0.7751 -0.0466  0.1605
 3640TIP3    H232336   2.832   1.694  17.135  0.8391  0.4242 -1.4068
 3641TIP3   OH232337   1.931   1.910  12.987  0.0557  0.1880  0.4906
 3641TIP3    H132338   1.846   1.946  13.013  0.1323  0.7498 -0.0080
 3641TIP3    H232339   1.991   1.939  13.056 -0.4399 -1.5186  1.6535
 3642TIP3   OH232340   1.260   4.322   4.794  0.2864  0.3718  0.3131
 3642TIP3    H132341   1.254   4.259   4.866 -0.5412 -0.2852 -0.3291
 3642TIP3    H232342   1.308   4.276   4.726  2.1450  1.4204  0.8934
 3643TIP3   OH232343   4.362   1.287  12.216 -0.0221  0.0232  0.6673
 3643TIP3    H132344   4.328   1.255  12.300  3.0966 -0.0449  1.9839
 3643TIP3    H232345   4.365   1.382  12.227 -1.0484  0.1292  0.0477
 3644TIP3   OH232346   1.718   2.663   5.803  0.2826 -0.3237  0.5263
 3644TIP3    H132347   1.696   2.664   5.710 -0.5428 -1.7823  0.6841
 3644TIP3    H232348   1.721   2.570   5.826  3.6065 -0.1182  1.2525
 3645TIP3   OH232349   5.074   2.158  10.845 -1.0329  0.3382 -0.5401
 3645TIP3    H132350   5.017   2.148  10.769 -0.0403  2.0419 -1.5340
 3645TIP3    H232351   5.071   2.252  10.865 -0.4420  0.0717  0.8538
 3646TIP3   OH232352   2.794   5.121   4.281 -0.1479 -0.0191 -0.4145
 3646TIP3    H132353   2.860   5.187   4.304  0.5248 -1.1207  0.8519
 3646TIP3    H232354   2.712   5.170   4.280 -0.0666  0.3564  3.2865
 3647TIP3   OH232355   5.318   0.450  12.511  0.1204  0.0148  0.2668
 3647TIP3    H132356   5.267   0.369  12.508  0.0130  0.0838  0.2269
 3647TIP3    H232357   5.404   0.426  12.475  0.8303 -0.6088  2.3132
 3648TIP3   OH232358   3.909   5.730  15.630  0.6400  0.1241  0.3039
 3648TIP3    H132359   3.876   5.658  15.576  0.6513 -0.0209  0.4884
 3648TIP3    H232360   3.918   5.691  15.717  1.5977  0.0714  0.1879
 3649TIP3   OH232361   3.779   2.246  16.490 -0.3915  0.3393  0.1738
 3649TIP3    H132362   3.711   2.224  16.554 -0.7912  0.7064 -0.1172
 3649TIP3    H232363   3.768   2.340  16.475  0.3994  0.4613  0.3733
 3650TIP3   OH232364   5.619   2.855   3.903  0.4474  0.7481 -0.3595
 3650TIP3    H132365   5.689   2.790   3.911 -0.1197  0.1114 -0.4910
 3650TIP3    H232366   5.652   2.931   3.950  0.4827 -0.1794  1.1676
 3651TIP3   OH232367   6.466   0.748   6.500 -0.0272  0.2873 -0.0004
 3651TIP3    H132368   6.517   0.672   6.474  0.2087  0.5734 -0.3699
 3651TIP3    H232369   6.384   0.712   6.533 -0.7373 -0.0256 -2.0510
 3652TIP3   OH232370   6.100   5.978  13.986  0.1535 -0.2230 -0.4063
 3652TIP3    H132371   6.039   5.926  14.038  1.0450 -1.0825 -0.1961
 3652TIP3    H232372   6.177   5.986  14.042  0.5349  0.1784 -0.9830
 3653TIP3   OH232373   6.207   6.304  14.198 -0.6087  0.0192  0.5817
 3653TIP3    H132374   6.134   6.364  14.207  0.0145  1.0198 -0.8530
 3653TIP3    H232375   6.254   6.335  14.121 -0.1919 -2.2182 -0.0946
 3654TIP3   OH232376   0.833   3.537  12.192 -0.1903  0.4311  0.6123
 3654TIP3    H132377   0.862   3.447  12.179 -0.8727  0.3810 -0.6651
 3654TIP3    H232378   0.898   3.575  12.252 -0.0017 -0.9469  1.2891
 3655TIP3   OH232379   6.782   4.718   5.796 -0.0739 -0.2478  0.1276
 3655TIP3    H132380   6.744   4.636   5.767  1.8400 -1.5714  1.2158
 3655TIP3    H232381   6.859   4.731   5.740  0.8649 -0.3397  1.3598
 3656TIP3   OH232382   5.926   5.785  11.495  0.2022  0.1874 -0.5287
 3656TIP3    H132383   6.012   5.787  11.453  0.9297  0.3956  0.9416
 3656TIP3    H232384   5.935   5.719  11.564 -0.8555  0.1542 -0.4187
 3657TIP3   OH232385   1.735   1.625  14.909  0.4209  0.1116 -0.2819
 3657TIP3    H132386   1.707   1.588  14.993  1.4525 -0.2164 -0.0810
 3657TIP3    H232387   1.752   1.717  14.928  1.2932 -0.1095  0.0230
 3658TIP3   OH232388   0.924   1.954  13.604  0.4888  0.1535  0.1632
 3658TIP3    H132389   0.992   1.958  13.537  1.1075 -0.8685  0.7183
 3658TIP3    H232390   0.851   1.910  13.562  1.2479 -1.4104  0.4606
 3659TIP3   OH232391   3.644   3.497  15.414 -0.1296 -0.5245  0.2019
 3659TIP3    H132392   3.656   3.588  15.441 -2.4320 -0.7838  2.2866
 3659TIP3    H232393   3.721   3.477  15.361  1.2887  2.0736  1.2151
 3660TIP3   OH232394   0.765   6.368  12.888  0.2565 -0.1194 -0.0885
 3660TIP3    H132395   0.765   6.339  12.979 -2.6582 -0.9544 -0.3061
 3660TIP3    H232396   0.818   6.304  12.842 -0.4687 -1.2277  0.6063
 3661TIP3   OH232397   4.281   0.836  12.052 -0.1249  0.0467  0.6101
 3661TIP3    H132398   4.222   0.910  12.038  0.0007  0.0699  0.2102
 3661TIP3    H232399   4.256   0.803  12.139  0.4072  1.0970  1.1773
 3662TIP3   OH232400   6.117   0.314   0.712  0.4716  0.1252 -0.4563
 3662TIP3    H132401   6.162   0.287   0.632  1.2823 -1.6961  0.5914
 3662TIP3    H232402   6.096   0.233   0.757 -1.0108  1.0879  0.6364
 3663TIP3   OH232403   5.885   5.512   5.265  0.1524  0.3655  0.6592
 3663TIP3    H132404   5.824   5.578   5.234 -1.4566 -2.0544 -1.4480
 3663TIP3    H232405   5.928   5.479   5.186 -2.4887 -4.3927  1.0310
 3664TIP3   OH232406   2.782   1.037  16.361  0.1406  0.1914 -0.3274
 3664TIP3    H132407   2.740   1.122  16.367  0.6574  0.5503 -1.6896
 3664TIP3    H232408   2.769   1.009  16.270  0.7711 -0.7628 -0.1367
 3665TIP3   OH232409   0.947   5.632  14.114  0.4167  0.4452 -0.1916
 3665TIP3    H132410   0.937   5.547  14.156  2.7141  1.5056  2.6358
 3665TIP3    H232411   1.038   5.634  14.086  0.8853  2.6962  1.4320
 3666TIP3   OH232412   0.876   1.152   5.670  0.1415  1.1388  0.2141
 3666TIP3    H132413   0.854   1.240   5.640 -1.6940  1.0772  1.3332
 3666TIP3    H232414   0.919   1.112   5.594  1.2691  3.0710 -0.2169
 3667TIP3   OH232415   0.784   6.007   0.613 -0.2731 -0.0843 -0.4368
 3667TIP3    H132416   0.832   5.933   0.574  0.7777  0.9997 -1.2393
 3667TIP3    H232417   0.781   6.073   0.544  0.0432  1.1821  0.7326
 3668TIP3   OH232418   5.887   0.456  15.947  0.3348  0.7546  0.1807
 3668TIP3    H132419   5.930   0.493  16.025 -1.8217  2.5219  0.5886
 3668TIP3    H232420   5.936   0.493  15.873  1.3419  0.4024  0.6545
 3669TIP3   OH232421   1.237   0.142  11.966  0.4106 -0.3488 -0.1615
 3669TIP3    H132422   1.148   0.107  11.962  0.5423 -0.5244 -1.8670
 3669TIP3    H232423   1.230   0.230  11.930  1.1205 -0.7789 -1.3664
 3670TIP3   OH232424   5.760   5.198   6.401 -0.3574 -0.2502 -0.0485
 3670TIP3    H132425   5.853   5.197   6.380 -0.4121 -0.8651 -0.2702
 3670TIP3    H232426   5.757   5.216   6.495 -0.0082 -0.4175 -0.0046
 3671TIP3   OH232427   3.577   5.067  17.080 -0.1204 -0.0409 -0.2202
 3671TIP3    H132428   3.672   5.056  17.080  0.0507  1.3433 -0.2751
 3671TIP3    H232429   3.560   5.123  17.005 -0.8508  0.7087  0.4969
 3672TIP3   OH232430   2.946   4.726   2.273  0.0477 -0.1471  0.2214
 3672TIP3    H132431   2.939   4.774   2.355  0.1291 -0.5809  0.4814
 3672TIP3    H232432   2.873   4.758   2.221  2.1713  2.9657 -1.0250
 3673TIP3   OH232433   6.387   0.387   5.061  0.1712  0.3249  0.1458
 3673TIP3    H132434   6.352   0.298   5.058  1.0684 -0.0765  1.1235
 3673TIP3    H232435   6.346   0.431   4.987 -0.6155 -0.7785 -0.0963
 3674TIP3   OH232436   3.303   2.378  17.055  0.0337  0.4841  0.4078
 3674TIP3    H132437   3.291   2.361  17.148  0.0106 -1.4050  0.0779
 3674TIP3    H232438   3.352   2.302  17.023  0.3714  1.3031 -1.0433
 3675TIP3   OH232439   5.228   4.110  12.545 -0.4361  0.1176 -0.0380
 3675TIP3    H132440   5.235   4.020  12.512 -1.8937  0.3999 -1.1570
 3675TIP3    H232441   5.222   4.164  12.467  1.7969  1.3382  0.6065
 3676TIP3   OH232442   0.488   4.337  11.247  0.5070 -0.2532  0.0980
 3676TIP3    H132443   0.501   4.339  11.152 -1.5097  0.6729 -0.1801
 3676TIP3    H232444   0.533   4.258  11.275  1.3682 -0.3919 -1.5981
 3677TIP3   OH232445   5.535   3.058   0.146  1.0018  0.3192 -0.0315
 3677TIP3    H132446   5.623   3.079   0.113  1.5225 -0.1769  1.0130
 3677TIP3    H232447   5.550   2.995   0.216 -0.1961  0.2671  0.1926
 3678TIP3   OH232448   2.349   4.143   2.123 -0.2585 -0.0594  0.1673
 3678TIP3    H132449   2.272   4.129   2.180 -0.6927  0.9564 -0.1653
 3678TIP3    H232450   2.380   4.230   2.146 -0.6771  0.5249 -1.4363
 3679TIP3   OH232451   5.744   3.471   3.403 -0.1973 -0.1989  0.1528
 3679TIP3    H132452   5.804   3.426   3.463  0.6336 -1.6528 -1.6828
 3679TIP3    H232453   5.675   3.406   3.385 -1.5441  0.9434  1.0989
 3680TIP3   OH232454   6.345   2.391   3.874  0.0359 -0.5054 -0.2322
 3680TIP3    H132455   6.313   2.465   3.822 -1.3348 -0.0654  1.2033
 3680TIP3    H232456   6.440   2.403   3.876 -0.1770  1.2748  0.0347
 3681TIP3   OH232457   0.836   2.230   2.583  0.2143  0.9818  0.5573
 3681TIP3    H132458   0.810   2.260   2.497  2.1454  0.4161 -0.2492
 3681TIP3    H232459   0.773   2.161   2.605  1.4256 -0.8786 -1.6603
 3682TIP3   OH232460   2.090   3.344  13.945 -0.0778 -0.1017  0.0311
 3682TIP3    H132461   2.070   3.272  13.886 -0.1173  1.4568 -1.9258
 3682TIP3    H232462   2.134   3.409  13.889 -0.3300  1.5137  1.6627
 3683TIP3   OH232463   3.369   3.067  16.575 -0.2991  0.3744 -0.1405
 3683TIP3    H132464   3.447   3.044  16.524  0.5753  3.1538 -0.1621
 3683TIP3    H232465   3.402   3.128  16.642 -2.2549  0.5771  0.6808
 3684TIP3   OH232466   2.145   3.826   5.295 -0.2605 -0.6418  0.1639
 3684TIP3    H132467   2.053   3.835   5.320  0.3406 -0.4602  2.4506
 3684TIP3    H232468   2.146   3.840   5.200 -2.4106  0.6228  0.3056
 3685TIP3   OH232469   6.463   0.330   3.632 -0.5302 -0.3326 -0.4360
 3685TIP3    H132470   6.391   0.394   3.629 -1.3774 -1.3271 -1.6563
 3685TIP3    H232471   6.480   0.309   3.541  1.7511  0.3421 -0.1995
 3686TIP3   OH232472   2.947   6.736   0.013  0.0244  1.0235 -0.0039
 3686TIP3    H132473   2.913   6.733  -0.077 -2.0731  2.2227  0.7052
 3686TIP3    H232474   2.920   6.822   0.046  0.6041  0.5237  1.8436
 3687TIP3   OH232475   0.692   3.961   0.881 -0.1246 -0.1254  0.4700
 3687TIP3    H132476   0.691   3.919   0.795  4.2030  0.2056  0.1331
 3687TIP3    H232477   0.658   4.049   0.865  1.1674  0.1195 -1.0335
 3688TIP3   OH232478   2.033   0.493  15.690  0.2849 -0.2821 -0.0056
 3688TIP3    H132479   2.121   0.519  15.662  0.4818  0.3548  1.1655
 3688TIP3    H232480   2.037   0.397  15.694  0.3085 -0.3711 -1.9184
 3689TIP3   OH232481   4.573   1.242   3.362  0.1218  0.1919 -0.2379
 3689TIP3    H132482   4.592   1.280   3.276  1.8921 -1.5954 -0.6696
 3689TIP3    H232483   4.659   1.216   3.396 -0.7385 -0.6265  1.3637
 3690TIP3   OH232484   3.052   5.393   1.598 -0.0386  0.1147  1.0958
 3690TIP3    H132485   3.029   5.366   1.509  0.9089  2.1104  0.2224
 3690TIP3    H232486   2.969   5.406   1.642 -0.5187 -0.6062  0.4120
 3691TIP3   OH232487   6.669   1.022   2.966 -0.2853  0.7137 -0.0903
 3691TIP3    H132488   6.646   1.063   2.882 -0.6502  0.6408 -0.0226
 3691TIP3    H232489   6.676   0.929   2.946 -2.9060  0.3613  0.5082
 3692TIP3   OH232490   0.370   1.792  10.853 -0.4143 -0.1921 -0.6978
 3692TIP3    H132491   0.447   1.800  10.796 -0.0016 -1.0347 -0.2726
 3692TIP3    H232492   0.309   1.739  10.802 -0.3224 -0.3528 -0.6419
 3693TIP3   OH232493   0.765   5.998   2.182 -0.1090  0.6114 -0.0597
 3693TIP3    H132494   0.761   6.084   2.140 -2.1886  0.5877  0.0039
 3693TIP3    H232495   0.726   5.938   2.118  0.9064 -0.2113  0.0811
 3694TIP3   OH232496   0.667   2.337   5.802  0.7240 -0.0424 -0.2032
 3694TIP3    H132497   0.609   2.291   5.863  0.8867  0.0114 -0.0062
 3694TIP3    H232498   0.677   2.424   5.840  0.8990 -0.0373 -0.2626
 3695TIP3   OH232499   3.842   3.619  16.274 -0.3569  0.1097 -0.1698
 3695TIP3    H132500   3.780   3.688  16.249  1.1223  1.1141 -1.1734
 3695TIP3    H232501   3.858   3.571  16.193 -0.0954 -0.3550  0.1624
 3696TIP3   OH232502   1.888   6.392  14.364  0.2947  0.0212  0.4845
 3696TIP3    H132503   1.914   6.342  14.441  0.6025 -0.1326  0.2827
 3696TIP3    H232504   1.793   6.385  14.362  0.2018  0.9419  1.4678
 3697TIP3   OH232505   3.271   5.721  15.190  0.2128 -0.1255 -0.6669
 3697TIP3    H132506   3.287   5.725  15.284 -1.3451  0.3007 -0.4055
 3697TIP3    H232507   3.196   5.662  15.181 -0.8806  1.3429 -1.4723
 3698TIP3   OH232508   4.468   2.916   4.950 -0.1157 -0.1575  0.3018
 3698TIP3    H132509   4.542   2.903   4.891  0.6056 -0.6759  1.3032
 3698TIP3    H232510   4.431   2.828   4.962 -1.0915  0.1376 -0.4319
 3699TIP3   OH232511   3.320   1.188   5.212  0.4898 -0.2586  0.0129
 3699TIP3    H132512   3.335   1.235   5.294  2.3553  0.8580 -0.9186
 3699TIP3    H232513   3.408   1.161   5.183 -0.2573 -1.7341 -0.9820
 3700TIP3   OH232514   1.177   2.978  15.577 -0.0567 -0.2877  0.3983
 3700TIP3    H132515   1.123   2.924  15.519  2.0528 -2.1479  0.0799
 3700TIP3    H232516   1.235   2.915  15.620  0.5984  1.4520  2.1211
 3701TIP3   OH232517   2.924   3.369  14.284  0.3458 -1.0456  0.2245
 3701TIP3    H132518   2.885   3.410  14.362  0.2875 -0.4940 -0.0968
 3701TIP3    H232519   2.899   3.426  14.212  2.3937 -0.2753  0.1061
 3702TIP3   OH232520   3.012   5.338  14.552 -0.1640  0.0131 -0.1569
 3702TIP3    H132521   2.922   5.304  14.546  0.1717 -1.1019  0.8695
 3702TIP3    H232522   3.031   5.340  14.646  1.2432 -0.7344 -0.4070
 3703TIP3   OH232523   0.609   2.339  11.571 -0.1228  0.3669 -0.2236
 3703TIP3    H132524   0.524   2.371  11.540  1.7530  4.0191 -1.9148
 3703TIP3    H232525   0.640   2.408  11.629  1.3419 -1.3067  1.0059
 3704TIP3   OH232526   1.427   6.641   5.268  0.5230 -0.2017 -0.2790
 3704TIP3    H132527   1.401   6.628   5.177  1.5585  0.5462 -0.6780
 3704TIP3    H232528   1.394   6.563   5.313  0.3523 -0.7620 -1.3586
 3705TIP3   OH232529   6.446   2.082   5.286 -0.4252 -0.2105 -0.0789
 3705TIP3    H132530   6.504   2.102   5.360 -0.8921  1.0690 -0.0469
 3705TIP3    H232531   6.358   2.103   5.318 -0.6674 -0.0184 -0.8752
 3706TIP3   OH232532   5.004   6.371  11.481  0.4498  0.2344 -0.4301
 3706TIP3    H132533   5.075   6.309  11.467 -0.4102 -0.6537 -0.9102
 3706TIP3    H232534   5.048   6.453  11.504  1.5881 -0.5970  0.4290
 3707TIP3   OH232535   2.306   4.583   6.642  0.0156 -0.2963  0.4445
 3707TIP3    H132536   2.341   4.637   6.571 -1.0964  0.6161  0.5819
 3707TIP3    H232537   2.280   4.646   6.709  0.6614 -1.1297  1.5010
 3708TIP3   OH232538   2.610   6.580   3.547 -0.1909 -0.0873  1.1738
 3708TIP3    H132539   2.689   6.618   3.586  0.5823 -1.0324  0.5519
 3708TIP3    H232540   2.580   6.516   3.612  0.2885 -0.6445  0.8505
 3709TIP3   OH232541   4.830   6.003   0.448 -0.5321  0.2164 -0.2575
 3709TIP3    H132542   4.742   6.033   0.423 -0.1563  1.8110  0.2873
 3709TIP3    H232543   4.861   6.069   0.511  0.6390 -0.8976  0.3508
 3710TIP3   OH232544   3.401   0.137  17.169  0.2408  0.3404  0.1387
 3710TIP3    H132545   3.450   0.108  17.246  0.7499 -0.5655 -0.5082
 3710TIP3    H232546   3.431   0.226  17.154 -1.1577  1.1656  2.0180
 3711TIP3   OH232547   0.625   6.553   0.144  0.0574 -0.1598 -0.0163
 3711TIP3    H132548   0.545   6.561   0.196 -1.2152  0.2551 -2.0246
 3711TIP3    H232549   0.655   6.464   0.160 -0.9053 -0.3834  0.5895
 3712TIP3   OH232550   1.958   6.552   1.376 -0.1873 -0.4334  0.4114
 3712TIP3    H132551   2.006   6.558   1.293  0.2822 -0.8064  0.6485
 3712TIP3    H232552   2.007   6.609   1.436 -1.1638  0.7054  0.1420
 3713TIP3   OH232553   5.367   3.903   5.654  0.3012 -0.3072 -0.3417
 3713TIP3    H132554   5.380   3.871   5.564  0.0289 -1.1935 -0.0700
 3713TIP3    H232555   5.440   3.866   5.703  0.9614  0.9208 -0.3734
 3714TIP3   OH232556   2.239   3.217  11.679 -0.1691 -0.1151  0.3153
 3714TIP3    H132557   2.291   3.155  11.731 -0.4395 -1.4415 -0.9693
 3714TIP3    H232558   2.149   3.203  11.709 -0.6634 -2.5429 -2.0388
 3715TIP3   OH232559   6.272   5.883  17.237 -0.2769 -0.9633 -0.0241
 3715TIP3    H132560   6.246   5.835  17.316  1.3026  0.1159  1.1857
 3715TIP3    H232561   6.209   5.954  17.231 -1.3775 -1.9722 -0.6643
 3716TIP3   OH232562   0.625   0.563   3.297 -0.7063 -0.1557  0.2397
 3716TIP3    H132563   0.689   0.634   3.306 -0.7888 -0.1649  1.0074
 3716TIP3    H232564   0.605   0.539   3.388 -2.0182  0.0503  0.0054
 3717TIP3   OH232565   6.499   3.489   2.193 -0.2583  0.7754  0.2728
 3717TIP3    H132566   6.496   3.573   2.148  0.7007  0.2707 -0.7427
 3717TIP3    H232567   6.573   3.498   2.254  0.2276  0.4673 -0.2625
 3718TIP3   OH232568   3.470   5.331   2.095  0.1291  0.1855  0.2354
 3718TIP3    H132569   3.463   5.370   2.008 -1.5144  1.1522  0.7659
 3718TIP3    H232570   3.405   5.261   2.095  0.2589  0.0612  0.6215
 3719TIP3   OH232571   6.453   1.213   1.421  0.7618 -0.6014 -0.1614
 3719TIP3    H132572   6.486   1.261   1.497  0.0552  0.6995 -0.6627
 3719TIP3    H232573   6.490   1.260   1.346  0.2207 -0.9658 -0.6561
 3720TIP3   OH232574   1.205   1.014   1.942 -0.1986  0.0524  0.6456
 3720TIP3    H132575   1.276   1.052   1.993 -0.8335  1.4572  0.5161
 3720TIP3    H232576   1.174   0.941   1.994  0.2968  0.4103  1.4530
 3721TIP3   OH232577   2.558   2.789   2.331 -0.6492  0.1568 -0.5806
 3721TIP3    H132578   2.512   2.800   2.248  0.6973  0.4334 -1.3142
 3721TIP3    H232579   2.612   2.711   2.319 -0.1606  0.4151 -0.1102
 3722TIP3   OH232580   5.967   2.865   3.838 -0.0540 -0.3108 -0.1913
 3722TIP3    H132581   5.995   2.925   3.769 -0.7703 -0.3262 -0.4965
 3722TIP3    H232582   6.003   2.903   3.919  0.5563 -0.1513 -0.5343
 3723TIP3   OH232583   2.509   2.123  15.952 -0.0588  0.1646  0.0552
 3723TIP3    H132584   2.466   2.195  15.907 -2.8497 -1.1168  0.5270
 3723TIP3    H232585   2.438   2.060  15.970  1.6413 -1.0956  2.7422
 3724TIP3   OH232586   6.013   0.250  14.182  0.0090  0.3750 -0.6730
 3724TIP3    H132587   6.047   0.322  14.234 -3.0642 -0.5502  2.8424
 3724TIP3    H232588   5.987   0.291  14.099  1.7333  2.5557 -0.1783
 3725TIP3   OH232589   2.606   3.240  15.690  0.3970 -0.1368  0.7295
 3725TIP3    H132590   2.577   3.149  15.696  1.5565 -0.5846 -0.3265
 3725TIP3    H232591   2.528   3.289  15.663  0.1025 -1.0081  0.0056
 3726TIP3   OH232592   6.349   2.129  13.633  0.3040 -0.5500 -0.4215
 3726TIP3    H132593   6.324   2.132  13.725  1.1471 -0.4669 -0.1973
 3726TIP3    H232594   6.398   2.047  13.624  0.0113 -0.6832 -0.8579
 3727TIP3   OH232595   6.739   0.566   0.098  0.0815 -0.0409  0.4693
 3727TIP3    H132596   6.785   0.557   0.015  0.6425 -0.3034  0.8024
 3727TIP3    H232597   6.707   0.478   0.117  0.1946 -0.0419  0.6626
 3728TIP3   OH232598   4.267   0.296   3.145  0.3343  0.3383 -0.1826
 3728TIP3    H132599   4.315   0.372   3.178  0.3557  0.2942 -0.1105
 3728TIP3    H232600   4.273   0.303   3.050  0.9667  0.0250 -0.1640
 3729TIP3   OH232601   1.761   1.852  12.652 -0.3282  0.2484 -0.3520
 3729TIP3    H132602   1.675   1.869  12.614  0.0601  0.8985 -0.9438
 3729TIP3    H232603   1.747   1.775  12.708 -0.8913 -0.7734 -1.8636
 3730TIP3   OH232604   5.038   4.120  17.013 -0.1820  0.5111 -0.6609
 3730TIP3    H132605   5.131   4.103  16.998  0.0654  0.5272  0.7827
 3730TIP3    H232606   5.025   4.210  16.982 -0.0042  0.0912 -2.0081
 3731TIP3   OH232607   1.329   6.756  14.215  0.0462  0.0241 -0.3307
 3731TIP3    H132608   1.248   6.773  14.167 -1.2772 -2.5308  0.8816
 3731TIP3    H232609   1.349   6.838  14.260 -0.7513  1.2888 -2.2618
 3732TIP3   OH232610   4.797   5.254   3.573 -0.5555 -0.5710 -0.2153
 3732TIP3    H132611   4.728   5.295   3.624  0.4070 -1.0577  1.5128
 3732TIP3    H232612   4.867   5.319   3.571 -0.0953 -1.0492  0.1858
 3733TIP3   OH232613   5.619   2.823   6.357  0.0699 -0.2667 -0.8062
 3733TIP3    H132614   5.698   2.877   6.362  0.6342 -1.1018 -0.4044
 3733TIP3    H232615   5.598   2.820   6.264  0.0216  0.6528 -0.8297
 3734TIP3   OH232616   4.418   4.529   5.837  0.2636  0.1510 -0.4458
 3734TIP3    H132617   4.506   4.493   5.826  1.0967  1.9930  0.0267
 3734TIP3    H232618   4.423   4.617   5.801 -1.1859  0.5680  0.3096
 3735TIP3   OH232619   0.664   1.335   6.197 -0.1865 -0.3098 -0.2398
 3735TIP3    H132620   0.623   1.402   6.142  1.0337  0.7039  0.0750
 3735TIP3    H232621   0.591   1.284   6.229 -1.0534  0.1376 -1.4361
 3736TIP3   OH232622   6.469   2.528   5.264 -0.6952  0.4180  0.2647
 3736TIP3    H132623   6.550   2.482   5.285 -0.5715  0.3844 -0.2868
 3736TIP3    H232624   6.498   2.609   5.222 -0.8989  1.1399  1.4874
 3737TIP3   OH232625   5.655   3.648  15.418 -0.2966  0.1727  0.0146
 3737TIP3    H132626   5.669   3.651  15.513  0.2341  1.8630 -0.1071
 3737TIP3    H232627   5.740   3.626  15.382 -0.3536  0.1646 -0.1152
 3738TIP3   OH232628   1.423   6.694   3.680  0.4338  0.1711 -0.6794
 3738TIP3    H132629   1.466   6.780   3.674 -0.9222  1.1863  2.6441
 3738TIP3    H232630   1.465   6.652   3.755  1.6222 -2.4448 -2.7634
 3739TIP3   OH232631   4.439   0.672  11.757 -0.0392 -0.4490  0.3440
 3739TIP3    H132632   4.348   0.696  11.774 -0.0916 -0.5406  0.2011
 3739TIP3    H232633   4.490   0.748  11.783 -0.2995  0.3099 -1.3065
 3740TIP3   OH232634   6.351   0.361  12.781  0.4532  0.1619 -0.4098
 3740TIP3    H132635   6.415   0.298  12.748  0.6104  0.4705 -0.6925
 3740TIP3    H232636   6.301   0.387  12.703  0.4452  0.4525 -0.3055
 3741TIP3   OH232637   4.740   2.180   0.071 -0.1492 -0.1420  0.0026
 3741TIP3    H132638   4.746   2.221  -0.016 -0.8031  0.4650  0.2323
 3741TIP3    H232639   4.799   2.232   0.126  0.3787 -0.6200 -0.1138
 3742TIP3   OH232640   2.074   0.040  14.576  0.1569 -0.2644  0.4697
 3742TIP3    H132641   2.158   0.010  14.541 -0.4185  0.9995 -2.0966
 3742TIP3    H232642   2.009  -0.012  14.529 -0.6371  1.4291 -0.3424
 3743TIP3   OH232643   5.701   3.117   6.549  0.2784 -0.3867  0.1827
 3743TIP3    H132644   5.769   3.062   6.510  0.0470  0.0425 -0.8177
 3743TIP3    H232645   5.741   3.150   6.630  0.9844 -0.7362 -0.0194
 3744TIP3   OH232646   0.390   4.354   1.179  0.2693 -0.2278  0.1038
 3744TIP3    H132647   0.480   4.375   1.205  0.2560 -0.9101  0.7039
 3744TIP3    H232648   0.342   4.347   1.261 -0.1505 -0.6899 -0.1803
 3745TIP3   OH232649   4.844   3.907  13.117  0.3596  0.0011  0.4616
 3745TIP3    H132650   4.882   3.994  13.126 -1.4354  0.9772 -1.1255
 3745TIP3    H232651   4.780   3.901  13.188 -0.7776  0.6866 -0.4814
 3746TIP3   OH232652   0.037   5.128   2.723  0.1915  0.3692 -0.1086
 3746TIP3    H132653   0.106   5.093   2.778 -1.5854 -2.8147  0.2132
 3746TIP3    H232654  -0.033   5.152   2.784 -1.2357 -1.8775 -0.8035
 3747TIP3   OH232655   3.045   4.103   4.214 -0.0950  0.6714  0.4625
 3747TIP3    H132656   3.020   4.053   4.292  0.1191  0.0014  0.1089
 3747TIP3    H232657   3.029   4.194   4.238  2.2497  0.6976  2.1778
 3748TIP3   OH232658   4.191   3.206   3.940  0.2093 -0.1951 -0.0407
 3748TIP3    H132659   4.179   3.293   3.901  1.3753  0.1284  0.2740
 3748TIP3    H232660   4.111   3.190   3.989  0.0858  0.8227  0.1068
 3749TIP3   OH232661   6.443   3.053  17.211  0.6857 -0.1929  0.1948
 3749TIP3    H132662   6.499   3.069  17.287  1.0553  0.7216 -0.2703
 3749TIP3    H232663   6.478   3.109  17.142 -2.3699  2.4583  0.6484
 3750TIP3   OH232664   6.155   0.202   2.705  0.2530  0.1323  0.2611
 3750TIP3    H132665   6.095   0.254   2.651  0.0802  0.6377  0.9396
 3750TIP3    H232666   6.241   0.243   2.691  0.1709  0.4010  0.5483
 3751TIP3   OH232667   4.971   4.976  11.861  0.1079  0.0278 -0.0172
 3751TIP3    H132668   5.042   4.981  11.925 -0.2528 -0.8759  0.4587
 3751TIP3    H232669   5.010   4.934  11.785  0.2115 -0.0048  0.0541
 3752TIP3   OH232670   3.722   6.177  12.520  0.4438 -0.1314  0.3193
 3752TIP3    H132671   3.817   6.185  12.528  0.4196 -0.5320  1.0899
 3752TIP3    H232672   3.708   6.129  12.439  0.8066  2.0369 -1.0521
 3753TIP3   OH232673   4.666   3.382  15.917 -0.1605  0.0510  1.0381
 3753TIP3    H132674   4.635   3.325  15.987 -1.7783 -1.2393 -0.7003
 3753TIP3    H232675   4.587   3.416  15.875  0.7775  1.3658  0.2726
 3754TIP3   OH232676   5.149   2.887  15.068 -0.4318 -0.2034  0.4785
 3754TIP3    H132677   5.055   2.868  15.067 -0.5743  0.4488  1.1154
 3754TIP3    H232678   5.169   2.913  14.978 -0.6974 -1.0965  0.1571
 3755TIP3   OH232679   4.513   4.235  13.996  0.2017  0.3589 -0.2837
 3755TIP3    H132680   4.525   4.214  14.088  0.8129 -0.6079 -0.5861
 3755TIP3    H232681   4.464   4.318  13.997 -2.3934 -1.1261  0.9014
 3756TIP3   OH232682   2.979   0.050  12.473  0.5040  0.5414  0.0488
 3756TIP3    H132683   2.938  -0.006  12.407  0.8796  0.5532 -0.1976
 3756TIP3    H232684   3.029  -0.010  12.528 -0.3637  0.4517  0.7428
 3757TIP3   OH232685   4.417   4.011   2.357 -0.7489  0.3225 -0.2108
 3757TIP3    H132686   4.345   4.059   2.399 -0.9155  1.6593 -1.9659
 3757TIP3    H232687   4.408   4.031   2.264  0.8394 -0.9338 -0.6516
 3758TIP3   OH232688   2.801   2.394  11.838 -0.5846 -0.1026 -0.2351
 3758TIP3    H132689   2.831   2.309  11.868  2.2159  0.9468  0.1124
 3758TIP3    H232690   2.834   2.401  11.748 -0.9062  0.5408 -0.3085
 3759TIP3   OH232691   6.212   6.092  15.073  0.8249 -0.2159 -0.0109
 3759TIP3    H132692   6.183   6.044  15.150  2.8654  0.8755  1.4603
 3759TIP3    H232693   6.276   6.034  15.031  2.2659  0.6045  1.0166
 3760TIP3   OH232694   2.578   3.574   5.067 -0.8246  0.6697 -0.7055
 3760TIP3    H132695   2.575   3.529   4.983  0.8149 -0.2300 -0.3069
 3760TIP3    H232696   2.621   3.512   5.126  0.4355  2.3039  0.1346
 3761TIP3   OH232697   0.796   4.537  15.465 -0.3863 -0.4465  0.3958
 3761TIP3    H132698   0.806   4.519  15.372 -1.5185 -1.0989  0.3929
 3761TIP3    H232699   0.703   4.558  15.476 -0.1647  0.0817  1.2973
 3762TIP3   OH232700   4.245   1.125   0.957  0.1346  0.2286  0.5913
 3762TIP3    H132701   4.336   1.157   0.951  0.6999 -1.3753  0.4337
 3762TIP3    H232702   4.252   1.040   1.000 -1.2834  0.0283  0.4494
 3763TIP3   OH232703   2.397   3.475   0.350 -0.5583 -0.1229  0.8478
 3763TIP3    H132704   2.348   3.393   0.350  0.4111 -0.7148  0.1000
 3763TIP3    H232705   2.455   3.467   0.426 -0.8555  0.1181  1.1028
 3764TIP3   OH232706   0.424   4.916   1.472 -0.0902  0.3688  0.0861
 3764TIP3    H132707   0.397   4.829   1.443 -1.1795 -0.2279  2.7542
 3764TIP3    H232708   0.505   4.902   1.520 -0.0795  0.8681  0.2214
 3765TIP3   OH232709   3.678   6.126   5.771 -0.2086  0.5804  0.0426
 3765TIP3    H132710   3.661   6.106   5.678 -1.1103 -1.7597  0.6729
 3765TIP3    H232711   3.758   6.078   5.791 -2.6666 -3.1049  1.7133
 3766TIP3   OH232712   4.781   5.013  16.195 -0.5763  0.3330  0.1725
 3766TIP3    H132713   4.819   5.054  16.117 -1.0505  0.2046 -0.1245
 3766TIP3    H232714   4.856   4.997  16.252 -0.0274 -0.8681 -0.8537
 3767TIP3   OH232715   5.024   5.692  16.964  0.5928  0.1297  0.1523
 3767TIP3    H132716   5.109   5.668  16.999  0.2601  0.6498  1.3528
 3767TIP3    H232717   4.971   5.712  17.041 -1.1885 -2.0230 -0.4585
 3768TIP3   OH232718   4.946   0.815   5.047  0.2323 -0.1188 -0.1343
 3768TIP3    H132719   4.893   0.779   4.976  0.1024  1.2723 -0.7610
 3768TIP3    H232720   5.025   0.762   5.048  0.3587  0.0295 -1.5114
 3769TIP3   OH232721   5.629   5.840  11.503  0.3440 -0.0619 -0.4761
 3769TIP3    H132722   5.722   5.827  11.520  0.5679  2.6744  0.6355
 3769TIP3    H232723   5.598   5.892  11.577 -2.0248 -0.7030 -0.9628
 3770TIP3   OH232724   6.328   4.772  16.526  0.1658  0.1770 -0.0699
 3770TIP3    H132725   6.423   4.772  16.517  0.1705  1.0202 -0.1439
 3770TIP3    H232726   6.311   4.730  16.610  0.5731 -0.5085 -0.3298
 3771TIP3   OH232727   3.601   0.470   4.829  0.4589  0.0948  0.1630
 3771TIP3    H132728   3.646   0.497   4.749  0.7634 -1.3045 -0.1591
 3771TIP3    H232729   3.663   0.490   4.899 -0.4143  2.7370  0.2325
 3772TIP3   OH232730   1.866   5.982  17.063 -0.4741  0.3615  1.0147
 3772TIP3    H132731   1.932   5.965  17.130 -0.6053 -1.2918  0.7471
 3772TIP3    H232732   1.795   6.025  17.109  0.1431  0.7652  1.6056
 3773TIP3   OH232733   3.974   1.969   5.662  0.0291 -0.8495  0.2674
 3773TIP3    H132734   3.928   1.981   5.579 -0.3351 -2.9185  0.1321
 3773TIP3    H232735   3.909   1.930   5.720  0.9710 -1.7780  0.7288
 3774TIP3   OH232736   1.260   4.446   3.928 -0.5618 -0.2497 -0.0217
 3774TIP3    H132737   1.254   4.404   3.843 -1.7793 -0.0942 -0.0182
 3774TIP3    H232738   1.169   4.458   3.956 -0.1800 -2.0396  2.1695
 3775TIP3   OH232739   1.999   6.598  11.523  0.1226  0.0484 -0.4616
 3775TIP3    H132740   1.999   6.543  11.601  2.1204  1.2082  0.4036
 3775TIP3    H232741   1.947   6.674  11.547  1.2534  0.6983 -0.0065
 3776TIP3   OH232742   0.561   3.899  17.231 -0.6491  0.3809  0.0429
 3776TIP3    H132743   0.469   3.872  17.233 -0.3083 -0.7931  0.7278
 3776TIP3    H232744   0.601   3.850  17.302  0.3290  1.5824  0.3275
 3777TIP3   OH232745   0.402   5.229  15.732 -0.5358 -0.0854 -0.0155
 3777TIP3    H132746   0.336   5.290  15.764 -1.6189 -0.6665 -1.1089
 3777TIP3    H232747   0.480   5.248  15.784 -0.8974  2.1516 -0.2731
 3778TIP3   OH232748   2.175   3.224   1.987  0.5129  0.0739 -0.2733
 3778TIP3    H132749   2.232   3.148   2.001  1.1128  0.3353 -1.2774
 3778TIP3    H232750   2.235   3.297   1.976 -0.0611  0.6524  0.3842
 3779TIP3   OH232751   4.036   1.635   1.979  0.9344 -0.1248  0.1970
 3779TIP3    H132752   3.962   1.592   1.937  0.9166  0.2092 -0.1194
 3779TIP3    H232753   4.054   1.582   2.056 -0.1291  0.2140  0.6986
 3780TIP3   OH232754   3.191   2.294  16.455  0.4287 -0.4568 -0.0658
 3780TIP3    H132755   3.167   2.310  16.364 -0.1463 -0.7569  0.0337
 3780TIP3    H232756   3.109   2.268  16.498  0.3244  1.4528  0.9507
 3781TIP3   OH232757   1.659   0.982  12.799  0.3790  0.5706  0.3757
 3781TIP3    H132758   1.612   0.976  12.882 -0.0625  0.8503  0.1469
 3781TIP3    H232759   1.746   1.014  12.823  0.4106  0.1911  0.7825
 3782TIP3   OH232760   0.864   4.426   4.592  0.6256  0.3129  0.2763
 3782TIP3    H132761   0.804   4.366   4.635 -1.0560  1.8181  0.1221
 3782TIP3    H232762   0.823   4.444   4.507  1.7800  0.6352 -0.2324
 3783TIP3   OH232763   2.978   2.467   1.417  0.0410 -0.1217 -0.1300
 3783TIP3    H132764   2.887   2.452   1.390 -0.3216  0.1753  0.9042
 3783TIP3    H232765   3.030   2.426   1.348 -0.8572  1.2460 -1.6417
 3784TIP3   OH232766   3.777   0.682   2.518  0.2819  0.3905  0.2194
 3784TIP3    H132767   3.767   0.588   2.507  1.4914  0.2141  0.6626
 3784TIP3    H232768   3.743   0.719   2.436  1.3773 -0.5120 -0.6525
 3785TIP3   OH232769   0.857   1.013   3.170  0.3518  0.0046  0.3699
 3785TIP3    H132770   0.862   1.087   3.231 -0.2608 -0.1707  0.6352
 3785TIP3    H232771   0.814   0.944   3.220  2.1235 -0.9804  0.5675
 3786TIP3   OH232772   0.404   2.918  16.526  0.3654 -0.1465  0.1495
 3786TIP3    H132773   0.403   2.934  16.621  1.0633  0.0242  0.1309
 3786TIP3    H232774   0.382   2.825  16.518 -2.3864  0.4444  0.3277
 3787TIP3   OH232775   1.925   3.579  12.513 -0.1727 -0.3581  0.3510
 3787TIP3    H132776   1.830   3.580  12.499 -0.5517 -0.6644  2.7815
 3787TIP3    H232777   1.947   3.487  12.522  0.4270 -0.3079 -0.5658
 3788TIP3   OH232778   3.204   6.727   0.228  0.0328  0.5195 -0.4155
 3788TIP3    H132779   3.114   6.696   0.236 -0.1882  0.4596 -2.7616
 3788TIP3    H232780   3.196   6.813   0.188  1.0639  0.0220 -1.7354
 3789TIP3   OH232781   2.832   3.951   5.595 -0.0867 -0.4677  0.0630
 3789TIP3    H132782   2.783   4.019   5.640 -0.0766 -0.2870 -0.1951
 3789TIP3    H232783   2.888   3.999   5.533 -2.2589 -0.8698 -2.2630
 3790TIP3   OH232784   2.530   1.418   2.236  0.7003 -0.3085  1.1583
 3790TIP3    H132785   2.470   1.486   2.208 -0.9021 -1.4632  1.6876
 3790TIP3    H232786   2.589   1.461   2.297  1.1345  1.0947 -0.2089
 3791TIP3   OH232787   1.673   4.424  16.307  0.3913 -0.2666 -0.0229
 3791TIP3    H132788   1.592   4.454  16.348  0.3751 -1.5863  0.9420
 3791TIP3    H232789   1.645   4.356  16.246  0.6589  0.1009 -0.5601
 3792TIP3   OH232790   4.160   2.756   3.020 -0.2774 -0.0560 -0.6232
 3792TIP3    H132791   4.221   2.754   2.946 -1.1063 -0.4624 -1.3037
 3792TIP3    H232792   4.179   2.676   3.068 -1.6478 -1.2424 -1.9792
 3793TIP3   OH232793   2.063   6.050   3.023  0.3333  0.6185  0.0434
 3793TIP3    H132794   2.031   6.118   2.964 -0.5279 -1.3877 -1.8810
 3793TIP3    H232795   1.983   6.005   3.052  0.8235  0.9757  2.0147
 3794TIP3   OH232796   2.599   3.235   3.244 -0.3515 -0.0839  0.3100
 3794TIP3    H132797   2.572   3.282   3.165 -0.0885  0.1050  0.3325
 3794TIP3    H232798   2.672   3.286   3.278  0.1353 -0.6844  0.1600
 3795TIP3   OH232799   0.005   5.908  11.683  0.4637 -0.0327 -0.0530
 3795TIP3    H132800   0.025   5.823  11.721 -0.5704 -0.7675 -1.1338
 3795TIP3    H232801   0.012   5.969  11.757 -2.4635 -1.5609  1.5760
 3796TIP3   OH232802   4.341   6.421  15.535 -0.7465  0.5327 -0.6768
 3796TIP3    H132803   4.255   6.397  15.570 -1.0043  0.8768 -1.0655
 3796TIP3    H232804   4.384   6.337  15.517 -1.6998  0.3580 -2.1764
 3797TIP3   OH232805   4.075   0.365   4.665 -0.5541 -0.2229  0.5011
 3797TIP3    H132806   4.006   0.319   4.714 -0.3596  0.0441  1.0279
 3797TIP3    H232807   4.155   0.315   4.684 -0.2512  0.6258  1.4850
 3798TIP3   OH232808   5.875   1.794   1.853 -0.5637 -0.4054  0.3144
 3798TIP3    H132809   5.880   1.870   1.795 -1.1560 -2.3544 -2.3525
 3798TIP3    H232810   5.943   1.735   1.821 -1.3042 -1.7706  1.2037
 3799TIP3   OH232811   6.312   1.265  15.951 -0.2000  0.0967 -0.6217
 3799TIP3    H132812   6.334   1.172  15.955 -2.9945 -0.5775 -0.0951
 3799TIP3    H232813   6.386   1.305  15.906  2.8654 -1.7807  2.5516
 3800TIP3   OH232814   0.652   5.195  14.609  0.1114 -0.4696  0.8453
 3800TIP3    H132815   0.725   5.225  14.556 -0.6227 -1.9536 -1.0425
 3800TIP3    H232816   0.632   5.269  14.667  0.5128  1.4068 -1.3748
 3801TIP3   OH232817   2.267   1.860   3.973 -0.1250 -0.0773  0.0032
 3801TIP3    H132818   2.209   1.789   3.945 -1.2276  0.6284  0.4685
 3801TIP3    H232819   2.355   1.822   3.968 -0.8157 -2.0409  1.8971
 3802TIP3   OH232820   0.958   6.286  16.556 -0.4760 -0.3972  0.0594
 3802TIP3    H132821   0.968   6.296  16.651  1.3383 -0.8846 -0.0657
 3802TIP3    H232822   0.912   6.366  16.529  1.0627  0.8511  1.0347
 3803TIP3   OH232823   5.309   2.479  15.945  0.3625  0.4830 -0.0413
 3803TIP3    H132824   5.343   2.526  15.869  0.9444  1.0129  0.5403
 3803TIP3    H232825   5.330   2.535  16.019 -2.0518  0.9687  0.3030
 3804TIP3   OH232826   4.999   5.245  13.202  0.3190  0.0620 -0.0463
 3804TIP3    H132827   5.030   5.301  13.274  0.1738  0.3762 -0.2272
 3804TIP3    H232828   4.925   5.197  13.239  0.2116  0.2608 -0.0042
 3805TIP3   OH232829   3.857   5.062  14.067  0.1067  0.2387 -0.1721
 3805TIP3    H132830   3.848   4.984  14.122  2.7286  0.8201  1.1409
 3805TIP3    H232831   3.947   5.059  14.036 -0.3093  1.8128 -1.5647
 3806TIP3   OH232832   2.869   1.167  16.066 -0.0625  0.1439  0.5911
 3806TIP3    H132833   2.875   1.214  15.983 -0.1759 -0.3846  0.2808
 3806TIP3    H232834   2.874   1.236  16.133  0.6784  0.5049  0.1650
 3807TIP3   OH232835   6.153   2.488   6.897  0.3164 -0.2923 -0.0028
 3807TIP3    H132836   6.162   2.415   6.836 -0.0150 -0.1917 -0.1703
 3807TIP3    H232837   6.148   2.447   6.983  0.9843 -0.4249 -0.0203
 3808TIP3   OH232838   0.415   0.902  16.439 -0.3166 -0.1619  0.2057
 3808TIP3    H132839   0.425   0.953  16.520  1.1179 -0.6260  0.3401
 3808TIP3    H232840   0.500   0.910  16.396 -0.6738 -0.9456 -0.6564
 3809TIP3   OH232841   5.158   4.891  15.752  0.3031  0.5385 -0.1305
 3809TIP3    H132842   5.185   4.935  15.672 -0.8899 -2.0887 -2.0685
 3809TIP3    H232843   5.062   4.895  15.750  0.2458 -0.2275  0.7597
 3810TIP3   OH232844   4.866   6.365  15.067 -0.0299  0.2494 -0.4485
 3810TIP3    H132845   4.860   6.359  15.163 -2.2025 -0.8437 -0.6239
 3810TIP3    H232846   4.795   6.310  15.035  1.1078  0.0354 -2.7301
 3811TIP3   OH232847   5.329   2.078   1.107 -0.0063  0.1183  0.4104
 3811TIP3    H132848   5.354   2.165   1.076  2.5680 -0.1777  1.5351
 3811TIP3    H232849   5.352   2.020   1.035  0.2062  0.1288  0.4704
 3812TIP3   OH232850   5.330   1.746   5.740  0.2342  0.1070  0.0082
 3812TIP3    H132851   5.337   1.775   5.831  0.8284  0.4706 -0.1515
 3812TIP3    H232852   5.272   1.670   5.743 -0.0488  0.3499  0.6415
 3813TIP3   OH232853   1.488   1.252   6.501 -0.1068  0.3494 -0.3604
 3813TIP3    H132854   1.511   1.215   6.415  3.0796 -1.5448  1.2401
 3813TIP3    H232855   1.447   1.179   6.548 -0.4971  0.9637  0.2564
 3814TIP3   OH232856   4.025   5.537  15.010  0.6395  0.0242  0.0957
 3814TIP3    H132857   3.994   5.626  14.997 -4.2122 -1.4101  0.6864
 3814TIP3    H232858   4.026   5.498  14.923 -0.1769 -0.1685  0.1646
 3815TIP3   OH232859   2.898   4.577   4.083  0.4007  0.3365  0.2228
 3815TIP3    H132860   2.928   4.580   3.992 -0.8279 -1.2112 -0.2470
 3815TIP3    H232861   2.896   4.669   4.110  0.2774  0.8493 -1.4668
 3816TIP3   OH232862   0.391   2.862  14.706 -0.1770  0.1300  0.8300
 3816TIP3    H132863   0.323   2.927  14.693 -0.3922 -0.1672  0.4466
 3816TIP3    H232864   0.344   2.780  14.720  0.0959 -0.3469 -0.8757
 3817TIP3   OH232865   3.297   4.379   2.425  0.2791 -0.1358  0.1395
 3817TIP3    H132866   3.273   4.413   2.339 -0.3150  0.5134  0.5616
 3817TIP3    H232867   3.392   4.392   2.430  0.1794  0.6962 -0.0417
 3818TIP3   OH232868   0.271   2.485   2.252 -0.8227  0.5070 -0.3252
 3818TIP3    H132869   0.199   2.526   2.204  0.5697  2.1911 -1.0233
 3818TIP3    H232870   0.337   2.465   2.185  0.6149  1.7528  0.6710
 3819TIP3   OH232871   1.054   5.182   3.424 -0.4911  0.2568  0.2995
 3819TIP3    H132872   1.108   5.246   3.469  0.5519 -0.8170  0.6257
 3819TIP3    H232873   1.082   5.098   3.460 -1.3307 -0.4340 -0.6216
 3820TIP3   OH232874   1.038   4.851   1.409 -0.1356 -0.6404  0.1586
 3820TIP3    H132875   1.094   4.775   1.424 -0.4453 -1.1512 -1.1841
 3820TIP3    H232876   0.949   4.817   1.421 -0.1988  0.0126  1.6330
 3821TIP3   OH232877   0.129   5.085   3.438  1.2063  0.1681  0.0654
 3821TIP3    H132878   0.065   5.144   3.398  0.1853 -0.2194  1.1090
 3821TIP3    H232879   0.209   5.136   3.443  0.5868  1.1394  0.0767
 3822TIP3   OH232880   4.150   0.361  16.277 -0.0983  0.4830 -0.4098
 3822TIP3    H132881   4.060   0.334  16.259 -0.0351  1.4078 -2.2735
 3822TIP3    H232882   4.198   0.279  16.290 -1.1779 -0.0170  0.5022
 3823TIP3   OH232883   5.853   0.783   0.744 -0.4094 -0.0997 -0.2376
 3823TIP3    H132884   5.899   0.699   0.743 -0.2020 -0.0132  1.1188
 3823TIP3    H232885   5.797   0.781   0.666 -1.4647 -2.0823  0.5406
 3824TIP3   OH232886   5.606   0.472   5.745  0.3657 -0.2565 -0.2615
 3824TIP3    H132887   5.559   0.389   5.737  1.9819 -1.3715  1.2412
 3824TIP3    H232888   5.589   0.501   5.835  0.4799  0.6151 -0.5190
 3825TIP3   OH232889   1.922   1.281   4.198  0.0866  1.0007 -0.1960
 3825TIP3    H132890   2.006   1.237   4.183  0.3807  1.6926 -0.6651
 3825TIP3    H232891   1.871   1.221   4.252  0.6231  0.2663 -0.5088
 3826TIP3   OH232892   5.636   3.290   0.286  0.3991 -0.1643  0.4507
 3826TIP3    H132893   5.592   3.345   0.222  1.7824 -0.1398 -0.4917
 3826TIP3    H232894   5.565   3.252   0.338 -0.7568 -0.3958 -1.2586
 3827TIP3   OH232895   2.584   4.472   5.833 -0.5792 -0.0247 -0.3521
 3827TIP3    H132896   2.518   4.405   5.853 -0.7631 -0.0556 -1.0567
 3827TIP3    H232897   2.563   4.501   5.744 -1.6130  2.2758  0.5954
 3828TIP3   OH232898   5.148   3.460   3.314 -0.2672  0.9552 -0.7298
 3828TIP3    H132899   5.152   3.383   3.258  0.7614  0.2508  0.2962
 3828TIP3    H232900   5.136   3.426   3.403  1.0618  1.9185 -0.1549
 3829TIP3   OH232901   4.801   1.697   2.988  0.8333 -0.3179  0.9129
 3829TIP3    H132902   4.770   1.787   2.984  1.8834 -0.0043 -1.0403
 3829TIP3    H232903   4.837   1.687   3.076 -0.7548  0.6594  1.6795
 3830TIP3   OH232904   5.407   1.070   3.680 -0.1319 -0.0851  0.3251
 3830TIP3    H132905   5.408   0.974   3.684 -0.6520 -0.2097 -1.8253
 3830TIP3    H232906   5.496   1.096   3.705 -0.2357 -1.0627  1.7914
 3831TIP3   OH232907   5.396   6.633  16.374 -0.1216  0.1450 -0.1754
 3831TIP3    H132908   5.454   6.695  16.329 -0.5784 -0.0482 -1.0566
 3831TIP3    H232909   5.402   6.657  16.466  0.5606  0.7892 -0.3807
 3832TIP3   OH232910   1.168   2.804  16.752  0.7452 -0.8614  0.6021
 3832TIP3    H132911   1.231   2.755  16.806 -0.1819 -0.5861  1.9796
 3832TIP3    H232912   1.109   2.738  16.717  1.4008 -1.0512 -0.1644
 3833TIP3   OH232913   1.600   5.687   0.303  0.3041  0.1145  0.0118
 3833TIP3    H132914   1.591   5.594   0.281  1.4321 -0.4763  1.8920
 3833TIP3    H232915   1.694   5.702   0.303  0.1855  0.8702  1.2491
 3834TIP3   OH232916   6.728   5.551   3.614 -0.2901  0.5038  0.1227
 3834TIP3    H132917   6.740   5.576   3.706 -0.1270  0.1419  0.1973
 3834TIP3    H232918   6.660   5.484   3.616  0.5749 -0.3683  0.0959
 3835TIP3   OH232919   5.627   6.485   0.425  0.0633  1.1347  0.4420
 3835TIP3    H132920   5.644   6.571   0.386  0.2566  1.7101  1.7962
 3835TIP3    H232921   5.620   6.501   0.519 -1.5965 -0.0722  0.5544
 3836TIP3   OH232922   2.636   2.682   0.206  0.4593 -0.1619 -0.2794
 3836TIP3    H132923   2.561   2.739   0.188  0.5719 -0.0736 -0.4766
 3836TIP3    H232924   2.618   2.603   0.155 -0.3251 -0.8293  1.0000
 3837TIP3   OH232925   2.851   1.602  10.854  0.3317  0.3116  0.2010
 3837TIP3    H132926   2.819   1.544  10.785  0.1308  0.7214 -0.0514
 3837TIP3    H232927   2.820   1.561  10.935 -0.0900  0.2449  0.0081
 3838TIP3   OH232928   3.539   1.032   2.138 -0.2445 -0.0851  0.5638
 3838TIP3    H132929   3.560   1.109   2.085 -0.7764 -1.3261 -1.4967
 3838TIP3    H232930   3.447   1.042   2.160 -0.1885  0.1076  0.7114
 3839TIP3   OH232931   3.176   5.276   0.156 -0.0050 -0.0994  0.3620
 3839TIP3    H132932   3.098   5.284   0.210  0.9745 -0.3275  1.8424
 3839TIP3    H232933   3.175   5.186   0.125  0.1387 -0.3662  1.1198
 3840TIP3   OH232934   6.344   1.599   0.675 -0.2448 -0.4180  0.5023
 3840TIP3    H132935   6.282   1.560   0.737 -1.5668  0.0591 -0.5074
 3840TIP3    H232936   6.318   1.691   0.669 -0.7574 -0.6712 -1.5045
 3841TIP3   OH232937   4.719   4.861  13.912  0.5294  0.0324 -0.1208
 3841TIP3    H132938   4.663   4.939  13.907  0.3845 -0.0867 -0.4288
 3841TIP3    H232939   4.805   4.891  13.882  0.2703 -0.1121 -1.0185
 3842TIP3   OH232940   2.711   6.603   0.969 -0.3800  0.5785 -0.4407
 3842TIP3    H132941   2.617   6.608   0.986 -0.3786 -0.3854 -0.1084
 3842TIP3    H232942   2.718   6.552   0.888 -0.0395 -1.8832  1.0762
 3843TIP3   OH232943   5.330   6.482   0.449 -0.5406 -0.9594 -0.0105
 3843TIP3    H132944   5.410   6.529   0.427 -1.5701 -0.0138 -1.8992
 3843TIP3    H232945   5.359   6.410   0.505  1.8186 -1.4050 -1.7222
 3844TIP3   OH232946   6.620   2.668  11.570  0.1479  0.7954 -0.1647
 3844TIP3    H132947   6.700   2.720  11.576  0.2679  0.5738  0.1673
 3844TIP3    H232948   6.617   2.638  11.479  0.9447 -0.0068  0.0688
 3845TIP3   OH232949   1.909   5.256  15.999 -0.3029 -0.5199  0.3113
 3845TIP3    H132950   1.880   5.329  16.054 -0.1148 -1.2043  1.3417
 3845TIP3    H232951   1.843   5.251  15.930 -1.0357 -0.1906  0.9676
 3846TIP3   OH232952   2.973   0.406  16.091 -0.4029 -0.4571  0.0921
 3846TIP3    H132953   3.042   0.460  16.055 -3.4014  2.5545 -1.4120
 3846TIP3    H232954   2.969   0.430  16.184 -0.1122  0.0828 -0.0380
 3847TIP3   OH232955   4.109   0.616   2.528  0.0699  0.0828 -0.1778
 3847TIP3    H132956   4.040   0.577   2.582 -0.8564 -0.6841 -1.8492
 3847TIP3    H232957   4.144   0.542   2.478  0.4764  0.8780 -1.0754
 3848TIP3   OH232958   1.373   0.676   3.327 -0.3195  0.1314  0.2690
 3848TIP3    H132959   1.459   0.701   3.362  0.2279 -0.1548 -0.8164
 3848TIP3    H232960   1.348   0.749   3.271  0.2532 -0.7419 -1.1516
 3849TIP3   OH232961   4.553   3.916  11.360 -0.2284 -0.2242 -0.0348
 3849TIP3    H132962   4.591   3.844  11.412  1.4519 -1.5223 -2.9466
 3849TIP3    H232963   4.629   3.962  11.325 -1.3366  0.2154 -1.8697
 3850TIP3   OH232964   1.153   3.865  15.196 -0.3137  0.1024  0.4941
 3850TIP3    H132965   1.236   3.872  15.245 -0.5717  0.4694  0.8869
 3850TIP3    H232966   1.180   3.855  15.105  0.1679  0.1161  0.6317
 3851TIP3   OH232967   5.201   1.150  15.468  0.0057  0.3504  0.0657
 3851TIP3    H132968   5.219   1.062  15.501  1.7986  0.5960 -0.2078
 3851TIP3    H232969   5.166   1.198  15.543  0.6916 -0.1025  0.6735
 3852TIP3   OH232970   2.674   4.025   6.221  0.4783 -0.8176  0.8046
 3852TIP3    H132971   2.720   3.948   6.255  1.6971 -0.3111  0.3171
 3852TIP3    H232972   2.586   4.017   6.257  0.1087 -3.2790 -0.4927
 3853TIP3   OH232973   1.534   4.182   4.081 -0.1465  0.3510 -0.2042
 3853TIP3    H132974   1.598   4.186   4.011  0.6434  1.0343  0.5600
 3853TIP3    H232975   1.520   4.088   4.094 -1.4643  0.2187 -2.3140
 3854TIP3   OH232976   5.361   2.359  12.074  0.4873  0.2654 -0.2659
 3854TIP3    H132977   5.368   2.297  12.146 -0.1718 -0.4124 -0.7686
 3854TIP3    H232978   5.387   2.443  12.111  0.6568 -0.1769  0.6212
 3855TIP3   OH232979   6.341   4.023  11.494  0.3587  0.0235 -0.6364
 3855TIP3    H132980   6.348   3.963  11.420  0.9164  0.7385 -1.1698
 3855TIP3    H232981   6.426   4.019  11.537  0.0727 -0.3058 -0.0870
 3856TIP3   OH232982   0.283   4.841   1.970 -0.3983 -0.1326  0.4502
 3856TIP3    H132983   0.191   4.864   1.984 -0.1487  0.7205  0.7259
 3856TIP3    H232984   0.295   4.845   1.876 -1.0024 -1.6885  0.2744
 3857TIP3   OH232985   1.319   1.591  13.464 -0.4938  0.1308  0.0396
 3857TIP3    H132986   1.397   1.646  13.476 -1.3258  1.2236  0.5091
 3857TIP3    H232987   1.261   1.643  13.409  0.2004 -1.8020 -2.6062
 3858TIP3   OH232988   4.582   1.268   2.125 -0.1437  0.0788 -0.2825
 3858TIP3    H132989   4.591   1.184   2.080  1.0648  0.4631 -0.7910
 3858TIP3    H232990   4.672   1.295   2.142 -0.5227  1.4424 -0.4405
 3859TIP3   OH232991   1.223   0.660   2.240  0.0837  0.1082 -0.6857
 3859TIP3    H132992   1.267   0.592   2.188 -0.1195 -0.4262 -0.1676
 3859TIP3    H232993   1.151   0.614   2.283 -0.3957  0.7792 -0.7693
 3860TIP3   OH232994   6.743   4.369   4.335 -0.2202 -0.2442  0.0790
 3860TIP3    H132995   6.695   4.308   4.280 -1.4597 -1.0865  2.0074
 3860TIP3    H232996   6.832   4.335   4.337 -0.0200  0.1442 -1.8635
 3861TIP3   OH232997   1.862   6.367  15.726  0.3535 -0.2425 -0.1338
 3861TIP3    H132998   1.942   6.334  15.768  0.2039  0.5501  0.8220
 3861TIP3    H232999   1.892   6.404  15.643  1.1497  0.8887  0.6326
 3862TIP3   OH233000   5.478   0.770  14.360  0.0478 -0.1945 -0.1912
 3862TIP3    H133001   5.547   0.784  14.295  3.0735 -3.9494  1.9315
 3862TIP3    H233002   5.421   0.705  14.321 -0.2150  0.2284 -0.5141
 3863TIP3   OH233003   1.200   4.184  14.156  0.4691 -0.1956  0.2600
 3863TIP3    H133004   1.206   4.137  14.072 -1.5786 -0.6363  0.3407
 3863TIP3    H233005   1.210   4.116  14.222 -1.8798 -0.4663  0.3732
 3864TIP3   OH233006   5.884   3.096  11.962 -0.8884  0.1085 -0.1202
 3864TIP3    H133007   5.882   3.092  11.866 -2.5076  0.2831 -0.1117
 3864TIP3    H233008   5.804   3.143  11.985 -0.7472 -0.3573  1.3494
 3865TIP3   OH233009   3.939   4.153  12.265 -0.3811 -0.5057 -0.7807
 3865TIP3    H133010   4.010   4.138  12.328 -0.9718 -2.2701 -0.4998
 3865TIP3    H233011   3.899   4.236  12.293 -0.6336 -1.2566  1.1755
 3866TIP3   OH233012   5.111   0.671  16.745  0.2755 -0.1137 -0.2159
 3866TIP3    H133013   5.182   0.722  16.784 -2.2896  2.2202  1.6012
 3866TIP3    H233014   5.082   0.613  16.816  0.0566 -0.7577 -0.8226
 3867TIP3   OH233015   0.310   3.197   5.982  0.1051  0.1867 -0.0350
 3867TIP3    H133016   0.274   3.284   6.001 -1.5663 -0.2272 -1.2094
 3867TIP3    H233017   0.355   3.172   6.063 -1.3090  1.1999  1.1007
 3868TIP3   OH233018   4.160   5.694  14.374  0.3648  0.0340  0.1831
 3868TIP3    H133019   4.072   5.717  14.345  1.5200  0.9203 -2.8130
 3868TIP3    H233020   4.185   5.762  14.436 -0.6499  0.3471  0.2387
 3869TIP3   OH233021   6.269   4.022  16.962 -0.4090 -0.0901  0.5306
 3869TIP3    H133022   6.204   3.952  16.963 -1.2626  0.6791 -0.1951
 3869TIP3    H233023   6.353   3.977  16.958 -0.9178 -1.0844  0.9418
 3870TIP3   OH233024   1.525   3.467   5.591 -0.2390  0.2262 -0.2166
 3870TIP3    H133025   1.467   3.480   5.666 -0.2813  2.2120 -0.5698
 3870TIP3    H233026   1.588   3.400   5.620 -2.2252 -1.4090  0.4212
 3871TIP3   OH233027   1.164   4.047   3.798  0.2485  0.2956 -0.2581
 3871TIP3    H133028   1.222   4.117   3.769 -0.9338  1.0256 -0.9108
 3871TIP3    H233029   1.079   4.090   3.813 -0.2557 -0.8263  0.2135
 3872TIP3   OH233030   0.727   1.042   0.272 -0.3062  0.0497  0.0986
 3872TIP3    H133031   0.672   1.015   0.346  0.5734 -0.4652  0.5726
 3872TIP3    H233032   0.766   0.961   0.241  1.1007  0.5555  0.5137
 3873TIP3   OH233033   4.859   1.775  12.025  0.2323  0.1807  0.1202
 3873TIP3    H133034   4.864   1.852  11.968  2.0764 -0.5980 -0.8008
 3873TIP3    H233035   4.825   1.706  11.968  2.8831 -0.8159 -0.2913
 3874TIP3   OH233036   0.741   2.070  13.220  0.0358 -0.2337  0.0051
 3874TIP3    H133037   0.763   2.096  13.130 -1.7050  0.7744 -0.1597
 3874TIP3    H233038   0.735   1.975  13.217 -1.8853 -0.0918 -1.4184
 3875TIP3   OH233039   5.318   0.870   1.124 -0.1044  0.2392 -0.5005
 3875TIP3    H133040   5.312   0.904   1.214  0.9674 -0.2003 -0.2661
 3875TIP3    H233041   5.294   0.778   1.132 -0.3877  0.2933 -0.7285
 3876TIP3   OH233042   5.700   2.920  16.889 -0.0109 -0.7305  0.4297
 3876TIP3    H133043   5.636   2.915  16.960  2.1710  1.1040  2.6719
 3876TIP3    H233044   5.775   2.870  16.922  0.6934 -0.6146 -0.9865
 3877TIP3   OH233045   4.234   3.104   5.493  0.5030 -0.7983  0.1202
 3877TIP3    H133046   4.249   3.039   5.562 -1.3471 -1.9882 -0.5614
 3877TIP3    H233047   4.250   3.057   5.411 -0.1187 -0.2092 -0.3506
 3878TIP3   OH233048   6.476   4.877  15.974  0.3559  0.2966 -0.1906
 3878TIP3    H133049   6.460   4.849  16.064  0.0690  1.4260  0.1177
 3878TIP3    H233050   6.549   4.938  15.980  0.3264  0.3907 -0.7193
 3879TIP3   OH233051   3.023   3.545   5.091 -0.2249  0.1150  0.6636
 3879TIP3    H133052   3.068   3.493   5.025 -0.4819  0.3658  0.2922
 3879TIP3    H233053   2.936   3.562   5.054  0.3895  2.1526  0.1063
 3880TIP3   OH233054   6.001   0.101   0.223  0.1115  0.0602  0.2832
 3880TIP3    H133055   5.990   0.196   0.224  2.3307  0.3600 -0.8002
 3880TIP3    H233056   5.944   0.071   0.152 -0.6306  0.5598  0.6599
 3881TIP3   OH233057   0.943   3.794   0.117  0.0738  0.7516 -0.3385
 3881TIP3    H133058   0.992   3.872   0.089  0.9476  0.4036  0.2043
 3881TIP3    H233059   0.861   3.829   0.152 -0.5655  1.2717 -2.2761
 3882TIP3   OH233060   0.420   5.596  12.144  0.4615 -0.0790  0.0262
 3882TIP3    H133061   0.476   5.520  12.125  0.3877 -0.5823  1.7257
 3882TIP3    H233062   0.332   5.559  12.152  0.2872  0.3268 -0.0532
 3883TIP3   OH233063   3.095   0.596  12.947 -0.5861 -0.8446 -0.2275
 3883TIP3    H133064   3.024   0.658  12.960  0.5164 -0.0995  2.8398
 3883TIP3    H233065   3.064   0.515  12.988 -0.8450 -1.4475 -1.5837
 3884TIP3   OH233066   3.997   1.795   5.972 -0.4283  0.2123 -0.7438
 3884TIP3    H133067   3.972   1.844   5.893 -2.1648 -2.1455 -1.7219
 3884TIP3    H233068   4.029   1.712   5.938 -0.6942 -0.6222  1.0215
 3885TIP3   OH233069   2.215   4.865   6.209 -0.5328 -0.6301 -0.0382
 3885TIP3    H133070   2.245   4.846   6.298 -0.5051 -0.7141 -0.0648
 3885TIP3    H233071   2.268   4.940   6.181 -3.1316  1.8570  1.4077
 3886TIP3   OH233072   1.224   2.235   3.347 -0.6195  0.0633 -0.3872
 3886TIP3    H133073   1.298   2.295   3.353  1.1197 -1.9697 -1.1116
 3886TIP3    H233074   1.239   2.170   3.415 -0.4800 -1.7103 -2.0636
 3887TIP3   OH233075   6.654   1.140   1.700  0.1418 -0.3880  0.2050
 3887TIP3    H133076   6.735   1.154   1.749 -0.0432  2.7652 -0.2863
 3887TIP3    H233077   6.584   1.153   1.765 -0.0585  2.0426 -0.4625
 3888TIP3   OH233078   6.631   3.385   4.416 -0.0062 -0.1681 -0.6830
 3888TIP3    H133079   6.702   3.415   4.473 -0.2390 -1.1656  0.1337
 3888TIP3    H233080   6.645   3.433   4.334  0.3253  1.2636  0.1950
 3889TIP3   OH233081   2.789   1.028   4.547  0.3781  0.3078 -0.4188
 3889TIP3    H133082   2.782   1.122   4.565  1.4563  0.3392 -0.1211
 3889TIP3    H233083   2.750   1.017   4.460  2.1341  1.3669 -1.3643
 3890TIP3   OH233084   6.474   3.689   4.771 -0.3987  0.4689 -0.3660
 3890TIP3    H133085   6.539   3.726   4.712 -1.4060  1.6555 -0.7485
 3890TIP3    H233086   6.524   3.662   4.848  0.8931 -0.9065 -1.6478
 3891TIP3   OH233087   2.333   1.053  11.195  0.3267 -0.0353 -0.2721
 3891TIP3    H133088   2.274   1.127  11.176 -0.0554 -0.4703 -0.8229
 3891TIP3    H233089   2.279   0.976  11.177  0.3002 -0.4641  1.6132
 3892TIP3   OH233090   3.658   4.315   0.488  1.1655 -0.0012 -0.1313
 3892TIP3    H133091   3.586   4.353   0.539 -0.8804 -0.8514 -2.2645
 3892TIP3    H233092   3.717   4.277   0.553  1.7394  4.1152  1.8963
 3893TIP3   OH233093   4.468   5.929   1.433 -0.5874  0.4199 -0.0933
 3893TIP3    H133094   4.386   5.887   1.406 -0.6389 -0.2287  1.0139
 3893TIP3    H233095   4.439   6.002   1.489 -0.3966 -0.8923  1.7850
 3894TIP3   OH233096   1.849   5.882   2.969 -0.3217 -0.4684 -0.1003
 3894TIP3    H133097   1.769   5.935   2.965 -0.5868 -0.9808 -1.5544
 3894TIP3    H233098   1.898   5.905   2.890  0.9761 -0.1824  0.7537
 3895TIP3   OH233099   3.709   2.139   0.029  0.3388  0.4197  0.1067
 3895TIP3    H133100   3.780   2.090   0.071 -1.7315 -0.0087  3.2599
 3895TIP3    H233101   3.646   2.071   0.003 -1.2706  1.1682  2.0031
 3896TIP3   OH233102   0.482   0.736  14.967 -0.3787  0.2777 -0.5408
 3896TIP3    H133103   0.541   0.660  14.966  0.0509  0.5621  1.0579
 3896TIP3    H233104   0.525   0.798  15.026 -2.3282  0.4601  0.7233
 3897TIP3   OH233105   2.908   0.515  11.727 -0.3353  0.2575 -0.1432
 3897TIP3    H133106   2.921   0.600  11.684 -2.4204  0.0592 -1.2380
 3897TIP3    H233107   2.997   0.482  11.741  0.4870  2.1914 -0.5545
 3898TIP3   OH233108   3.662   2.229   2.457 -0.4193 -0.1639  0.1718
 3898TIP3    H133109   3.667   2.309   2.509  1.2850 -0.3061  0.2635
 3898TIP3    H233110   3.574   2.195   2.473 -1.1803  1.7178  0.0685
 3899TIP3   OH233111   5.452   5.065   1.053 -0.1084  0.4556  0.3226
 3899TIP3    H133112   5.490   5.069   0.965  0.8241 -0.2981  0.6905
 3899TIP3    H233113   5.378   5.005   1.044  1.3434 -1.4101  0.5365
 3900TIP3   OH233114   2.921   6.013   3.995  0.3117 -0.4986 -0.0012
 3900TIP3    H133115   2.830   6.034   3.971 -1.0333 -2.6541  2.8991
 3900TIP3    H233116   2.934   6.054   4.080  0.9619 -2.7638  1.0411
 3901TIP3   OH233117   2.188   2.012   3.570 -0.3089 -0.3511  0.1400
 3901TIP3    H133118   2.277   2.015   3.536 -0.3831  0.7103  0.0028
 3901TIP3    H233119   2.139   2.071   3.512 -0.9913 -0.5714  0.4945
 3902TIP3   OH233120   2.182   3.105   6.421  0.8723 -0.4337 -0.1905
 3902TIP3    H133121   2.106   3.159   6.398  0.4759 -0.6187  0.6562
 3902TIP3    H233122   2.152   3.015   6.407  1.7296 -0.4214 -2.1932
 3903TIP3   OH233123   0.876   4.672  12.694 -0.7407 -0.4557 -0.0981
 3903TIP3    H133124   0.854   4.633  12.609  0.0388 -1.5620  0.1932
 3903TIP3    H233125   0.939   4.741  12.673  0.4821 -1.6277 -0.2862
 3904TIP3   OH233126   3.360   6.217   6.183 -0.0020  0.3022 -0.2236
 3904TIP3    H133127   3.439   6.191   6.136 -0.8128  0.0579 -1.4554
 3904TIP3    H233128   3.289   6.204   6.121 -1.3088 -1.6852  1.6007
 3905TIP3   OH233129   3.113   4.487  15.870 -0.8281  0.1894  0.0081
 3905TIP3    H133130   3.146   4.441  15.792  0.9903  0.5882  0.5019
 3905TIP3    H233131   3.067   4.420  15.920 -0.1889 -0.5680 -0.3964
 3906TIP3   OH233132   1.831   2.296   1.381  0.6443  0.1000  0.0208
 3906TIP3    H133133   1.746   2.338   1.371 -0.8052 -2.4744  1.0853
 3906TIP3    H233134   1.872   2.341   1.455  0.4024  1.6420 -0.7752
 3907TIP3   OH233135   2.790   3.724  14.027 -0.0634  0.1748  0.0669
 3907TIP3    H133136   2.881   3.702  14.047  0.0863 -0.0276 -0.8439
 3907TIP3    H233137   2.742   3.643  14.043  0.0283  0.0630 -0.2297
 3908TIP3   OH233138   4.327   1.579   6.037  0.6252 -0.0412 -0.2506
 3908TIP3    H133139   4.241   1.578   5.995  1.0623  1.0368 -1.2141
 3908TIP3    H233140   4.324   1.506   6.099 -0.7232 -0.4643 -0.7775
 3909TIP3   OH233141   0.327   6.273  15.403  0.3785  0.3104 -0.5095
 3909TIP3    H133142   0.286   6.198  15.445 -1.1641  1.7828  0.7062
 3909TIP3    H233143   0.257   6.314  15.353  1.3459  0.6208 -1.6429
 3910TIP3   OH233144   0.287   0.433  10.668  0.3710  0.4859  0.3243
 3910TIP3    H133145   0.313   0.352  10.624  0.9298 -1.5861  4.2086
 3910TIP3    H233146   0.204   0.457  10.626  0.5494 -1.7263 -1.3986
 3911TIP3   OH233147   5.341   2.370  13.793  0.2392 -0.0429  0.5249
 3911TIP3    H133148   5.298   2.314  13.729  1.1814 -1.2794  0.9370
 3911TIP3    H233149   5.435   2.355  13.778  0.4648 -0.6567  2.4331
 3912TIP3   OH233150   6.022   3.846  12.920 -0.1188 -0.5277 -0.0037
 3912TIP3    H133151   6.115   3.830  12.901  0.5553  1.1430  1.7313
 3912TIP3    H233152   5.976   3.801  12.850  2.0148 -1.0134 -1.1613
 3913TIP3   OH233153   1.576   4.682  10.794  0.0777 -0.2506  0.2683
 3913TIP3    H133154   1.570   4.601  10.744  3.7784  0.2811 -1.1833
 3913TIP3    H233155   1.532   4.747  10.739 -1.7750 -0.9807  0.8525
 3914TIP3   OH233156   0.447   1.791   2.748  0.6446 -0.3757  0.8287
 3914TIP3    H133157   0.380   1.770   2.813  0.7866 -2.7090  0.2727
 3914TIP3    H233158   0.530   1.776   2.793  0.8368  2.7035  1.5778
 3915TIP3   OH233159   4.972   1.225   0.660 -0.5346 -0.2980 -0.3475
 3915TIP3    H133160   4.880   1.197   0.655 -0.8899  0.9042 -0.6112
 3915TIP3    H233161   4.980   1.267   0.746 -0.7972  1.5742 -1.2223
 3916TIP3   OH233162   3.688   2.602  13.324  0.0741  0.2205  0.8473
 3916TIP3    H133163   3.597   2.596  13.296 -0.2686  0.2697  1.9169
 3916TIP3    H233164   3.694   2.544  13.400  1.8106 -2.5982 -1.3185
 3917TIP3   OH233165   1.425   2.914  10.544 -0.0452  0.6029  0.3989
 3917TIP3    H133166   1.349   2.949  10.498  0.5428  2.5628  0.8369
 3917TIP3    H233167   1.477   2.870  10.477 -2.2684 -2.0520  0.3591
 3918TIP3   OH233168   3.534   2.968   5.489 -0.1847  0.1145 -0.7374
 3918TIP3    H133169   3.454   3.019   5.503 -0.0365 -0.1303  1.2597
 3918TIP3    H233170   3.507   2.878   5.505  0.1629 -0.1199 -1.5114
 3919TIP3   OH233171   4.242   5.555   3.993 -0.0190 -0.2242  0.2901
 3919TIP3    H133172   4.327   5.597   3.979  0.6702 -2.2643 -2.0575
 3919TIP3    H233173   4.259   5.488   4.059  0.7223 -1.9482 -1.5822
 3920TIP3   OH233174   2.999   1.458   6.363 -0.0706  0.2696 -0.3262
 3920TIP3    H133175   3.044   1.444   6.279  0.1290 -0.1833 -0.1428
 3920TIP3    H233176   3.056   1.517   6.411  0.7241 -0.9113  0.2142
 3921TIP3   OH233177   0.127   3.630  13.930  0.1236  0.4838  0.2843
 3921TIP3    H133178   0.167   3.682  13.860 -0.0342  1.4158  0.8788
 3921TIP3    H233179   0.098   3.694  13.995  0.1713 -0.3615  1.1624
 3922TIP3   OH233180   2.758   5.936   5.639 -0.0049 -0.1204  0.1194
 3922TIP3    H133181   2.692   5.986   5.688  1.1835  0.2618  1.3573
 3922TIP3    H233182   2.809   5.892   5.706 -1.5084 -3.6908 -0.9844
 3923TIP3   OH233183   0.745   0.097  14.777 -0.5823 -0.2615  0.2207
 3923TIP3    H133184   0.711   0.132  14.695  0.1602  1.0538  0.4640
 3923TIP3    H233185   0.679   0.034  14.806 -1.7925  0.7242 -0.3842
 3924TIP3   OH233186   1.613   2.441  12.085  0.3909 -0.2951  0.2656
 3924TIP3    H133187   1.619   2.535  12.067 -1.3025 -0.6047 -2.1525
 3924TIP3    H233188   1.686   2.402  12.037  0.9951 -0.2400  1.1336
 3925TIP3   OH233189   2.360   1.974   4.367  0.4202 -0.2404  0.4990
 3925TIP3    H133190   2.358   1.884   4.335  1.0254 -0.1295  0.1356
 3925TIP3    H233191   2.342   2.027   4.290 -1.2840 -0.1011  0.9777
 3926TIP3   OH233192   2.319   2.867   5.603  0.0292  0.1133 -0.3122
 3926TIP3    H133193   2.306   2.773   5.617  1.8470 -0.1944 -0.5207
 3926TIP3    H233194   2.270   2.886   5.523  1.0173 -1.0246 -1.2210
 3927TIP3   OH233195   4.484   1.228  10.664  0.0033 -0.1145  0.0280
 3927TIP3    H133196   4.522   1.300  10.613 -0.5062 -0.6922 -1.1856
 3927TIP3    H233197   4.558   1.169  10.680  0.7834  1.4277  2.4233
 3928TIP3   OH233198   0.326   5.480  13.867 -0.3549 -0.3601 -0.0316
 3928TIP3    H133199   0.362   5.561  13.902 -1.3272 -0.5691  1.5238
 3928TIP3    H233200   0.371   5.411  13.916 -1.5467 -0.6668  0.6530
 3929TIP3   OH233201   2.189   4.630  15.714  1.0312  0.6255  0.5898
 3929TIP3    H133202   2.261   4.567  15.710 -0.8617 -1.5052 -1.1343
 3929TIP3    H233203   2.232   4.715  15.725  3.8255 -0.5463 -0.7245
 3930TIP3   OH233204   2.732   2.718  14.233 -0.0364 -0.0237 -0.2965
 3930TIP3    H133205   2.705   2.670  14.155  0.4275  0.2569 -0.6296
 3930TIP3    H233206   2.826   2.730  14.222 -0.1639  1.0277 -0.2539
 3931TIP3   OH233207   4.526   0.655   2.228 -0.5642  0.1630 -0.1915
 3931TIP3    H133208   4.593   0.691   2.286 -0.9027  1.1809 -0.4274
 3931TIP3    H233209   4.490   0.581   2.276  3.0345 -2.5192 -1.4191
 3932TIP3   OH233210   0.981   4.230  15.799 -0.0558 -0.0330  0.2574
 3932TIP3    H133211   1.047   4.172  15.763 -1.5286 -1.0431 -0.8926
 3932TIP3    H233212   1.016   4.318  15.787  0.3187 -0.4486 -1.9541
 3933TIP3   OH233213   1.563   6.754   3.192 -0.3684 -0.4194  0.1943
 3933TIP3    H133214   1.514   6.675   3.167 -0.1874 -0.1090 -1.1759
 3933TIP3    H233215   1.497   6.812   3.228 -1.1234  0.1861 -2.1009
 3934TIP3   OH233216   0.623   5.163  11.583  0.0287 -0.0374  0.1674
 3934TIP3    H133217   0.562   5.090  11.580  1.9788 -1.7174  0.3421
 3934TIP3    H233218   0.706   5.124  11.612  1.1403  2.2044  0.1027
 3935TIP3   OH233219   0.083   5.528  15.735 -0.0156  0.0982 -0.4642
 3935TIP3    H133220   0.092   5.448  15.789  0.0360 -0.1331 -0.8172
 3935TIP3    H233221   0.124   5.505  15.652  0.1620  0.5574 -0.5031
 3936TIP3   OH233222   4.407   0.612   1.277 -0.3351 -0.3884  0.2325
 3936TIP3    H133223   4.362   0.546   1.224  3.4832 -3.0928  0.1013
 3936TIP3    H233224   4.492   0.622   1.234 -0.0453  3.1127  1.4970
 3937TIP3   OH233225   4.320   4.973  13.281 -0.3291  0.1229 -0.6433
 3937TIP3    H133226   4.387   5.041  13.275 -1.0986  1.2706  2.8496
 3937TIP3    H233227   4.362   4.903  13.331 -1.2461  0.2615  0.3389
 3938TIP3   OH233228   3.956   5.979   3.446 -0.0398  0.5263 -0.2999
 3938TIP3    H133229   4.025   6.010   3.386 -0.8662 -0.5010 -1.8066
 3938TIP3    H233230   3.879   5.970   3.391 -0.5744 -1.3677  0.7315
 3939TIP3   OH233231   6.303   5.120   4.193 -0.1145  0.0313 -0.3473
 3939TIP3    H133232   6.379   5.169   4.224  0.4429 -1.1722  0.2469
 3939TIP3    H233233   6.244   5.186   4.158 -0.2325  1.3363  2.1811
 3940TIP3   OH233234   0.191   1.259  15.958 -0.2584 -0.0115 -0.4406
 3940TIP3    H133235   0.191   1.303  15.874  0.3498  0.7720 -0.0351
 3940TIP3    H233236   0.196   1.329  16.023  0.5307 -0.6592  0.2166
 3941TIP3   OH233237   6.558   1.211  13.121 -0.0312  0.1417  1.0660
 3941TIP3    H133238   6.645   1.191  13.087 -0.4388 -0.4191  0.3236
 3941TIP3    H233239   6.561   1.304  13.144  0.7100  0.1610  0.8907
 3942TIP3   OH233240   2.886   0.608  16.306 -0.0475  0.4970  0.0800
 3942TIP3    H133241   2.878   0.628  16.399  0.1413 -0.1594  0.2406
 3942TIP3    H233242   2.947   0.673  16.272  0.1005  0.5608  0.4719
 3943TIP3   OH233243   3.783   6.701  15.610  0.4579 -0.3929  0.4533
 3943TIP3    H133244   3.756   6.729  15.522 -1.1309  0.1172  1.0766
 3943TIP3    H233245   3.835   6.774  15.643  1.0707 -0.5910 -0.0691
 3944TIP3   OH233246   6.092   0.114   1.056  0.5061  0.0639  0.8481
 3944TIP3    H133247   6.066   0.035   1.104 -1.6173  1.1766  1.5691
 3944TIP3    H233248   6.145   0.163   1.119  0.3582  0.0396  0.9923
 3945TIP3   OH233249   2.048   0.237   1.127  0.1108 -0.1734  0.1847
 3945TIP3    H133250   2.011   0.180   1.059 -0.7193  0.6316 -0.0491
 3945TIP3    H233251   2.019   0.325   1.102  2.8299  0.5880 -0.4339
 3946TIP3   OH233252   3.302   5.818  17.007 -0.1529  0.0405  0.1397
 3946TIP3    H133253   3.233   5.812  16.941 -0.7192 -0.8709  0.8037
 3946TIP3    H233254   3.256   5.809  17.091  0.8356 -1.2377  0.5539
 3947TIP3   OH233255   4.135   2.368  11.944  0.3935 -0.2271 -0.2451
 3947TIP3    H133256   4.202   2.352  12.011  0.1888  0.6466  0.1782
 3947TIP3    H233257   4.142   2.462  11.926  0.1077 -0.3676 -1.0919
 3948TIP3   OH233258   0.101   5.846   1.007 -0.5597  0.1746  0.5094
 3948TIP3    H133259   0.008   5.861   0.994 -0.2722  0.0981 -1.7624
 3948TIP3    H233260   0.144   5.921   0.966  0.4273 -0.1949  0.8246
 3949TIP3   OH233261   1.735   4.858   6.045 -0.1801  0.0362 -0.1380
 3949TIP3    H133262   1.765   4.948   6.033  1.0098 -0.3904 -0.4019
 3949TIP3    H233263   1.797   4.820   6.107 -0.6812 -0.6023 -0.0272
 3950TIP3   OH233264   3.229   5.036  11.629 -0.2544  0.1247 -0.3831
 3950TIP3    H133265   3.263   5.095  11.696  0.6264  0.1273 -0.8239
 3950TIP3    H233266   3.140   5.067  11.613 -1.2625 -1.2071  2.3323
 3951TIP3   OH233267   2.248   6.336  11.503  0.4754 -0.0012 -0.1766
 3951TIP3    H133268   2.253   6.424  11.466 -0.1107  0.1827  0.1732
 3951TIP3    H233269   2.154   6.316  11.503  0.3675  0.3691  2.0616
 3952TIP3   OH233270   4.024   4.177  16.857 -0.5923 -0.2440  0.5578
 3952TIP3    H133271   4.102   4.136  16.820 -0.4390  0.5200  0.0165
 3952TIP3    H233272   3.951   4.135  16.811 -0.3998  0.7378 -0.6803
 3953TIP3   OH233273   0.020   5.563  13.667  0.4637  0.1185 -0.0850
 3953TIP3    H133274  -0.012   5.473  13.656  0.3395  0.0202  0.9952
 3953TIP3    H233275  -0.033   5.614  13.606 -0.8344 -0.2621  0.6840
 3954TIP3   OH233276   0.611   3.700   5.919  0.1727 -0.0291 -0.8247
 3954TIP3    H133277   0.643   3.610   5.909 -1.0775 -0.5121 -0.5719
 3954TIP3    H233278   0.643   3.746   5.841  0.5654 -0.7729 -1.1058
 3955TIP3   OH233279   1.287   3.864   0.830 -0.1625 -0.0074  0.1477
 3955TIP3    H133280   1.258   3.785   0.874 -1.2061  0.8202  0.9818
 3955TIP3    H233281   1.292   3.840   0.737 -0.3544 -1.0729  0.4156
 3956TIP3   OH233282   6.100   4.696   4.884 -0.3587 -0.3761 -0.0264
 3956TIP3    H133283   6.150   4.735   4.812 -0.4723 -0.1611  0.0107
 3956TIP3    H233284   6.105   4.760   4.955 -1.8203  0.2700 -0.4844
 3957TIP3   OH233285   4.797   3.509  11.802  0.0003  0.5732  0.2121
 3957TIP3    H133286   4.738   3.438  11.776 -0.4153  1.3336 -0.9971
 3957TIP3    H233287   4.740   3.574  11.842 -0.4563  2.4832 -3.3419
 3958TIP3   OH233288   4.009   3.057   5.297  0.3036  0.5047  0.2769
 3958TIP3    H133289   4.040   3.101   5.376 -2.0435 -1.4572  2.3960
 3958TIP3    H233290   4.077   2.992   5.278 -0.1862 -0.5965  2.1129
 3959TIP3   OH233291   5.763   4.764   4.722 -0.1140 -0.2847  0.7651
 3959TIP3    H133292   5.673   4.741   4.745  0.7220 -2.0428  2.4298
 3959TIP3    H233293   5.810   4.761   4.805  1.5627  0.2242 -0.1464
 3960TIP3   OH233294   0.632   3.164  16.507 -0.0396  0.0755  0.5099
 3960TIP3    H133295   0.619   3.070  16.518  0.6417 -0.0662  0.1550
 3960TIP3    H233296   0.554   3.194  16.460 -0.8245 -0.0976  1.7028
 3961TIP3   OH233297   3.994   3.004   2.781  0.0573  0.1531 -0.1729
 3961TIP3    H133298   4.067   3.045   2.735 -0.4588  0.4664 -0.7121
 3961TIP3    H233299   3.917   3.054   2.754 -0.8421 -2.2549 -2.1991
 3962TIP3   OH233300   1.587   3.907  15.929  0.3012 -0.3830 -0.3537
 3962TIP3    H133301   1.586   3.881  16.021 -2.8874 -0.2257 -0.2712
 3962TIP3    H233302   1.598   3.826  15.881  0.2044 -0.6806  0.1258
 3963TIP3   OH233303   3.215   3.075   5.924  0.2907 -0.7258  0.7004
 3963TIP3    H133304   3.231   3.075   6.019  4.6103  0.5679  0.1046
 3963TIP3    H233305   3.293   3.117   5.887 -1.8884 -0.0425 -3.3616
 3964TIP3   OH233306   2.101   5.324   6.028  0.4605 -0.5934 -0.3484
 3964TIP3    H133307   2.111   5.322   6.123 -1.2756 -1.2205 -0.1504
 3964TIP3    H233308   2.171   5.268   5.995  3.1875  2.2475  0.3071
 3965TIP3   OH233309   3.343   0.266   3.809 -0.5292  0.2847 -0.2938
 3965TIP3    H133310   3.303   0.190   3.765 -0.8363 -0.4259  1.1861
 3965TIP3    H233311   3.427   0.277   3.766 -0.2221 -1.2861 -0.1180
 3966TIP3   OH233312   5.600   5.699   1.556  0.1623  0.3076 -0.6178
 3966TIP3    H133313   5.528   5.637   1.569 -0.2434  0.5739 -1.5235
 3966TIP3    H233314   5.677   5.654   1.588 -0.5838  0.4776  1.5308
 3967TIP3   OH233315   2.303   1.574  10.455 -0.2654  1.1205  0.3881
 3967TIP3    H133316   2.213   1.581  10.488 -0.0825  4.0573  0.3282
 3967TIP3    H233317   2.358   1.612  10.523  0.7187  1.3130 -0.4922
 3968TIP3   OH233318   4.351   4.721   3.283 -0.0556  0.1928  0.3840
 3968TIP3    H133319   4.374   4.790   3.345  2.6598  0.1597 -0.5237
 3968TIP3    H233320   4.342   4.643   3.338  0.3567  0.5682  0.9980
 3969TIP3   OH233321   3.499   1.875   1.145 -0.0080 -0.0770  0.2098
 3969TIP3    H133322   3.544   1.912   1.221 -0.2245  1.0958 -0.2084
 3969TIP3    H233323   3.568   1.835   1.093 -0.0462 -2.1388  1.7138
 3970TIP3   OH233324   0.798   3.430   5.315  0.5882 -0.1312 -0.8502
 3970TIP3    H133325   0.736   3.376   5.267 -1.0144 -1.2091  2.2918
 3970TIP3    H233326   0.746   3.505   5.346  1.5267  0.4364 -0.6311
 3971TIP3   OH233327   5.316   1.464  13.804 -0.2430 -0.1043  0.6503
 3971TIP3    H133328   5.257   1.435  13.874 -1.4303 -0.9823 -0.6819
 3971TIP3    H233329   5.315   1.392  13.741  1.7160  0.1830  0.2687
 3972TIP3   OH233330   5.265   5.216  10.636 -0.6306 -0.0796 -0.1797
 3972TIP3    H133331   5.290   5.309  10.637 -1.9704  0.2839  0.3935
 3972TIP3    H233332   5.170   5.217  10.640 -0.5846 -1.5113  1.9726
 3973TIP3   OH233333   6.558   3.007  14.088 -0.0859  0.2806 -0.7816
 3973TIP3    H133334   6.530   3.054  14.009 -2.2162  1.3373  0.5605
 3973TIP3    H233335   6.632   3.058  14.121 -0.3562  0.8804 -1.0969
 3974TIP3   OH233336   4.286   3.031   2.200  0.1262  0.5040  0.3829
 3974TIP3    H133337   4.359   3.059   2.145 -0.9964  0.0237 -1.4141
 3974TIP3    H233338   4.208   3.050   2.147 -0.9244 -1.0181  1.3464
 3975TIP3   OH233339   4.398   2.531  14.150  0.4689  0.0109 -0.7457
 3975TIP3    H133340   4.447   2.456  14.183  1.5878  1.0721  0.0481
 3975TIP3    H233341   4.380   2.510  14.058  3.5312  0.1299 -1.4443
 3976TIP3   OH233342   1.099   5.009   0.246  0.5733  0.1246 -0.0941
 3976TIP3    H133343   1.126   5.035   0.334  0.8688  1.7442 -0.6381
 3976TIP3    H233344   1.036   5.075   0.219 -0.3384 -0.9692 -0.6856
 3977TIP3   OH233345   0.997   2.516  14.941  1.0401 -0.0554 -0.4604
 3977TIP3    H133346   1.039   2.473  14.867  0.0431  0.0044 -1.0757
 3977TIP3    H233347   1.045   2.598  14.951  1.2791 -0.1337 -0.9405
 3978TIP3   OH233348   0.878   6.184   0.361 -0.3552 -0.4077  0.1707
 3978TIP3    H133349   0.872   6.177   0.266  2.2557  1.6152 -0.2226
 3978TIP3    H233350   0.848   6.273   0.380  2.1066  0.3265  0.8463
 3979TIP3   OH233351   5.842   5.604  16.409 -0.6217  0.1361  0.2187
 3979TIP3    H133352   5.765   5.623  16.356 -0.5939 -1.4469 -0.4394
 3979TIP3    H233353   5.915   5.606  16.346 -0.6392 -2.1962  0.0548
 3980TIP3   OH233354   0.242   4.303   1.929 -0.2902 -0.1760 -0.2214
 3980TIP3    H133355   0.233   4.308   2.024  3.1291  1.4147  0.0794
 3980TIP3    H233356   0.248   4.209   1.911  0.5432 -0.4295  1.2856
 3981TIP3   OH233357   2.225   4.374   1.246  0.2371 -0.1584  0.8176
 3981TIP3    H133358   2.199   4.360   1.154 -0.4934  0.8007  0.8681
 3981TIP3    H233359   2.166   4.318   1.296  1.6373 -1.8523  0.6253
 3982TIP3   OH233360   5.162   5.812   3.913  0.1718  0.2799  0.2242
 3982TIP3    H133361   5.167   5.897   3.956  3.1371  0.1867  0.1082
 3982TIP3    H233362   5.174   5.831   3.820 -0.5506 -0.1355  0.0404
 3983TIP3   OH233363   4.807   5.366   4.727  0.0738  0.1247  0.6401
 3983TIP3    H133364   4.884   5.382   4.673 -0.3699  1.2212  0.3148
 3983TIP3    H233365   4.832   5.293   4.784  0.7662 -0.6034 -0.5855
 3984TIP3   OH233366   5.863   4.067   5.398 -0.4761  0.4261 -0.0237
 3984TIP3    H133367   5.917   4.125   5.344  0.1979  0.9147  1.1555
 3984TIP3    H233368   5.791   4.123   5.427 -1.0236  0.0710 -0.6820
 3985TIP3   OH233369   2.607   4.821   4.147  1.0399  0.1251  0.5345
 3985TIP3    H133370   2.533   4.881   4.161 -1.0412 -2.5400  1.4597
 3985TIP3    H233371   2.605   4.802   4.053  0.8238  0.4335  0.4774
 3986TIP3   OH233372   4.277   0.839  15.545  0.2136 -0.5325 -0.5169
 3986TIP3    H133373   4.233   0.779  15.485  0.0545 -0.0603 -0.8700
 3986TIP3    H233374   4.339   0.783  15.592  0.4113 -0.8880 -1.1889
 3987TIP3   OH233375   3.438   6.675   1.894 -0.2930  0.0006 -0.1742
 3987TIP3    H133376   3.467   6.585   1.880 -1.8882 -0.4887 -0.4597
 3987TIP3    H233377   3.350   6.666   1.931 -0.0248  1.4284  0.8674
 3988TIP3   OH233378   6.435   5.679  12.297  0.7887  0.0551 -0.4968
 3988TIP3    H133379   6.461   5.626  12.373 -3.9319 -0.7291  0.6884
 3988TIP3    H233380   6.445   5.770  12.326 -0.2325 -0.2402  0.8160
 3989TIP3   OH233381   3.187   2.639   0.072  0.3114 -0.1566 -0.2052
 3989TIP3    H133382   3.239   2.560   0.085  0.7465  0.1672  0.0279
 3989TIP3    H233383   3.238   2.708   0.113  0.4121  0.4179 -1.2853
 3990TIP3   OH233384   0.802   3.728   0.772 -0.0623 -0.1351 -0.1134
 3990TIP3    H133385   0.871   3.784   0.807 -2.0805  2.6682 -0.5340
 3990TIP3    H233386   0.754   3.697   0.848  0.3092 -0.3463  0.0373
 3991TIP3   OH233387   5.330   2.479   0.037  0.1277  0.0581 -1.3503
 3991TIP3    H133388   5.365   2.472   0.126  0.4331 -1.0716 -1.5405
 3991TIP3    H233389   5.270   2.404   0.029 -1.2714  1.1770 -1.5024
 3992TIP3   OH233390   2.054   0.113  12.533  0.1488  0.1965  0.0739
 3992TIP3    H133391   1.998   0.037  12.553 -0.4044 -0.1227 -2.3997
 3992TIP3    H233392   1.992   0.185  12.520  0.4931  0.4829  0.0302
 3993TIP3   OH233393   3.122   1.192   1.880 -0.1868  0.3215 -0.0856
 3993TIP3    H133394   3.032   1.219   1.861 -0.8692 -0.3874  1.9619
 3993TIP3    H233395   3.147   1.138   1.805 -0.2639  3.1742 -2.2481
 3994TIP3   OH233396   4.818   2.042  12.196 -0.0954 -0.6619 -0.3382
 3994TIP3    H133397   4.819   1.954  12.158 -0.3761 -0.3880 -0.9889
 3994TIP3    H233398   4.901   2.081  12.168  1.2847 -1.6470  2.1960
 3995TIP3   OH233399   3.653   0.632  11.760 -0.3762 -0.1737 -0.6065
 3995TIP3    H133400   3.610   0.717  11.764  0.4657  0.1601  1.7640
 3995TIP3    H233401   3.737   0.650  11.718 -1.2070 -0.2819 -2.3521
 3996TIP3   OH233402   2.022   4.876   0.488  0.2761  0.7933  0.6196
 3996TIP3    H133403   2.017   4.785   0.517  0.5174  0.2475 -0.9721
 3996TIP3    H233404   2.091   4.915   0.542  0.7860 -0.2153  0.6953
 3997TIP3   OH233405   4.528   3.519  17.181 -0.2865  0.8009  0.7939
 3997TIP3    H133406   4.490   3.431  17.192  0.2702  0.6169  1.2881
 3997TIP3    H233407   4.517   3.561  17.266 -0.1038  1.0341  0.7020
 3998TIP3   OH233408   2.152   4.120  12.080 -0.5792  0.0732 -0.0262
 3998TIP3    H133409   2.119   4.157  12.163 -0.8328  0.6888 -0.3944
 3998TIP3    H233410   2.147   4.025  12.093  2.1332  0.1138  1.7509
 3999TIP3   OH233411   5.013   4.074  11.836  0.2348  0.0880  0.7330
 3999TIP3    H133412   4.998   4.032  11.921  0.9050  3.4617  2.5697
 3999TIP3    H233413   4.925   4.091  11.802 -0.0661  1.5734  2.2213
 4000TIP3   OH233414   0.227   4.834   1.680 -0.0899  0.3105 -0.3382
 4000TIP3    H133415   0.228   4.906   1.617 -0.0360  0.5450 -0.0748
 4000TIP3    H233416   0.148   4.849   1.732 -0.2377  0.0106 -0.4762
 4001TIP3   OH233417   0.267   6.372   5.800  0.2682 -0.0065 -0.2459
 4001TIP3    H133418   0.230   6.302   5.854 -0.3486 -0.0608 -0.7245
 4001TIP3    H233419   0.303   6.435   5.862  0.9544 -0.8150  0.1919
 4002TIP3   OH233420   1.160   5.088   3.180  0.2444  0.4650 -0.2519
 4002TIP3    H133421   1.218   5.022   3.219 -1.0294 -1.4126 -1.4081
 4002TIP3    H233422   1.119   5.131   3.255 -0.8643 -1.8915  0.5619
 4003TIP3   OH233423   4.493   5.762   3.065  0.5857  0.6443  0.1413
 4003TIP3    H133424   4.514   5.835   3.123 -0.1796 -0.6590  2.1262
 4003TIP3    H233425   4.575   5.714   3.056  0.6136  0.6143  0.5284
 4004TIP3   OH233426   5.345   3.095   4.070  0.2408 -0.9789 -0.3319
 4004TIP3    H133427   5.381   3.031   4.131  0.7356 -0.0355  0.3725
 4004TIP3    H233428   5.384   3.073   3.986  1.9702 -0.3798  0.2884
 4005TIP3   OH233429   3.583   6.707  12.453  0.0049  0.2952 -0.2815
 4005TIP3    H133430   3.607   6.714  12.360  0.1974  0.8054 -0.1947
 4005TIP3    H233431   3.609   6.618  12.478 -0.5757 -0.0478 -0.8705
 4006TIP3   OH233432   5.599   6.597  12.740  0.2411 -0.2977 -1.0846
 4006TIP3    H133433   5.692   6.598  12.760 -0.5911  1.1042  3.2348
 4006TIP3    H233434   5.582   6.509  12.706  2.5212 -1.6975  1.2466
 4007TIP3   OH233435   4.384   0.227  15.492 -0.0108 -0.1911  0.3220
 4007TIP3    H133436   4.392   0.161  15.561  1.5421  1.1208  1.4603
 4007TIP3    H233437   4.293   0.255  15.497 -0.9499 -2.8887 -0.8300
 4008TIP3   OH233438   6.048   2.246   1.585 -0.1547 -0.0859 -0.0042
 4008TIP3    H133439   6.038   2.286   1.498 -1.0924 -1.4139 -0.5162
 4008TIP3    H233440   6.142   2.255   1.604  0.0760  0.1543 -1.1846
 4009TIP3   OH233441   6.534   3.254  14.424 -0.0946 -0.5736  1.0046
 4009TIP3    H133442   6.557   3.286  14.511 -2.2995  1.1437  1.0178
 4009TIP3    H233443   6.556   3.326  14.365 -1.9624 -0.3016  0.6059
 4010TIP3   OH233444   4.668   4.472   2.802 -0.3952  0.9808  0.3637
 4010TIP3    H133445   4.673   4.377   2.799  0.7321  0.9699  2.0654
 4010TIP3    H233446   4.611   4.490   2.877 -1.7737  1.6329 -0.8229
 4011TIP3   OH233447   4.469   5.248   0.776  0.3505 -0.7213  0.8756
 4011TIP3    H133448   4.424   5.231   0.859  1.5464 -0.1613  1.6533
 4011TIP3    H233449   4.506   5.163   0.752  0.2934 -0.8067  1.0875
 4012TIP3   OH233450   2.646   6.163  12.299  0.6432  0.7522 -0.3349
 4012TIP3    H133451   2.564   6.209  12.317  0.1327 -0.0113 -0.6615
 4012TIP3    H233452   2.629   6.115  12.218  1.5915  0.9944 -0.6857
 4013TIP3   OH233453   6.168   1.851   2.435  0.4174 -0.6273  0.4534
 4013TIP3    H133454   6.105   1.917   2.465 -0.3684 -1.3616  0.4436
 4013TIP3    H233455   6.163   1.855   2.339  1.4628  0.3253  0.4257
 4014TIP3   OH233456   3.589   0.747   5.667 -0.1342  0.1417  0.0368
 4014TIP3    H133457   3.555   0.773   5.752  0.0444  0.4535  0.0119
 4014TIP3    H233458   3.519   0.694   5.629  0.2330 -0.9536  0.8482
 4015TIP3   OH233459   3.367   2.587  12.586  0.3105 -0.0812 -0.0345
 4015TIP3    H133460   3.303   2.566  12.518  0.2371 -0.4411  0.1444
 4015TIP3    H233461   3.408   2.503  12.607  0.5395  0.0779  0.1594
 4016TIP3   OH233462   0.291   4.963   0.014 -0.0138 -0.5889  0.3799
 4016TIP3    H133463   0.297   5.040  -0.041 -0.1405 -2.3038 -2.0970
 4016TIP3    H233464   0.373   4.961   0.063  1.0798 -0.3013 -1.4361
 4017TIP3   OH233465   1.577   0.843  14.426 -0.0219  0.1582 -0.0796
 4017TIP3    H133466   1.543   0.887  14.504 -0.4844 -0.1407 -0.1111
 4017TIP3    H233467   1.639   0.777  14.460 -0.1203  0.1212  0.0259
 4018TIP3   OH233468   4.620   4.760  16.712  0.7444 -0.2800  0.5208
 4018TIP3    H133469   4.566   4.795  16.783  0.8060 -0.0947  0.4761
 4018TIP3    H233470   4.707   4.796  16.729  0.5834  0.4279 -0.1095
 4019TIP3   OH233471   4.207   5.215  14.636 -0.2113  0.5705 -0.1918
 4019TIP3    H133472   4.194   5.287  14.575 -0.2836  0.8139  0.1040
 4019TIP3    H233473   4.201   5.257  14.723  0.4876  0.3418 -0.0224
 4020TIP3   OH233474   1.063   4.484  11.198 -0.2499  0.3816  0.4527
 4020TIP3    H133475   1.154   4.514  11.199 -0.6146  1.5099  2.2936
 4020TIP3    H233476   1.061   4.410  11.258 -0.3769 -0.1668 -0.2269
 4021TIP3   OH233477   6.578   4.613   4.933  0.2045  0.3209  0.3118
 4021TIP3    H133478   6.636   4.541   4.956  0.6165  0.5223 -0.0994
 4021TIP3    H233479   6.522   4.625   5.010 -1.2071 -1.7547 -0.3515
 4022TIP3   OH233480   4.505   0.479   4.277  0.7696  0.2636 -0.1763
 4022TIP3    H133481   4.436   0.441   4.223  2.6968 -0.9441 -1.8568
 4022TIP3    H233482   4.517   0.417   4.349  0.0406  0.5384  0.1855
 4023TIP3   OH233483   2.548   6.158   6.703 -0.0552  0.0978  0.1356
 4023TIP3    H133484   2.501   6.238   6.681  0.7820 -0.3515 -3.5712
 4023TIP3    H233485   2.483   6.088   6.691  0.0654 -0.0514  0.3450
 4024TIP3   OH233486   6.407   0.638  15.215 -0.0453  0.1798  0.4179
 4024TIP3    H133487   6.318   0.665  15.237 -0.2073  0.4724 -0.5923
 4024TIP3    H233488   6.403   0.542  15.214  0.0187  0.1528  1.8593
 4025TIP3   OH233489   5.931   2.029  17.163 -0.3405 -0.3864 -0.3051
 4025TIP3    H133490   5.928   2.042  17.068 -1.9966  1.2668 -0.0447
 4025TIP3    H233491   6.018   2.061  17.188 -0.4483  0.5648 -1.0925
 4026TIP3   OH233492   6.602   0.432  11.285  0.0492  0.7243 -0.1390
 4026TIP3    H133493   6.661   0.443  11.360 -0.3185  2.2204 -0.0372
 4026TIP3    H233494   6.638   0.358  11.236  0.0575 -0.5391  1.7351
 4027TIP3   OH233495   0.076   6.719  13.248 -0.2526 -0.0065  0.4559
 4027TIP3    H133496   0.075   6.698  13.342  0.6519 -0.8559  0.2946
 4027TIP3    H233497   0.168   6.740  13.230 -0.2983 -0.4954 -0.3665
 4028TIP3   OH233498   4.595   4.811   5.133 -0.1602  0.1086 -0.2434
 4028TIP3    H133499   4.586   4.891   5.184 -1.6228  0.3620 -0.8828
 4028TIP3    H233500   4.677   4.824   5.084  1.2787 -0.1600  2.0041
 4029TIP3   OH233501   5.531   0.537  13.407  0.0889 -0.2843  0.0550
 4029TIP3    H133502   5.554   0.556  13.316  0.0025  0.8080  0.2664
 4029TIP3    H233503   5.615   0.531  13.452  0.1165 -0.4834 -0.0185
 4030TIP3   OH233504   1.701   0.940   6.491  0.5014  0.3389 -0.0186
 4030TIP3    H133505   1.689   0.964   6.399 -1.4756 -2.7569 -0.6428
 4030TIP3    H233506   1.621   0.969   6.534 -0.0078 -1.1285  0.0564
 4031TIP3   OH233507   1.327   5.328   2.241  0.1858 -0.4067  0.2110
 4031TIP3    H133508   1.351   5.279   2.162  0.5776  0.5209 -0.2506
 4031TIP3    H233509   1.403   5.318   2.299  0.0409 -0.8000  0.3340
 4032TIP3   OH233510   2.715   5.221  14.537 -0.2040  0.7328  0.3479
 4032TIP3    H133511   2.666   5.245  14.615 -0.8090 -1.5310  0.6872
 4032TIP3    H233512   2.666   5.260  14.465 -0.7812  1.0925  0.9329
 4033TIP3   OH233513   5.206   5.007  15.489  0.3522 -0.1982 -0.0231
 4033TIP3    H133514   5.205   5.075  15.422  0.5766  0.7236  0.8962
 4033TIP3    H233515   5.153   4.936  15.452 -0.9290  0.9778 -0.4648
 4034TIP3   OH233516   4.617   2.167   5.922  0.4934 -0.1453 -0.0255
 4034TIP3    H133517   4.623   2.134   6.012  2.9217 -0.9115 -0.4345
 4034TIP3    H233518   4.525   2.192   5.912 -0.2436 -1.8690  2.0327
 4035TIP3   OH233519   1.704   6.566   2.951 -0.8123 -0.5611  0.1336
 4035TIP3    H133520   1.728   6.494   2.892 -0.1844 -0.1181 -0.1528
 4035TIP3    H233521   1.713   6.529   3.039  2.6731  0.0844  0.1245
 4036TIP3   OH233522   6.734   2.314   0.904  0.0392  0.4172 -0.0231
 4036TIP3    H133523   6.775   2.379   0.961  1.0331 -1.7587  1.8340
 4036TIP3    H233524   6.784   2.319   0.822  2.2205 -0.1770  1.2105
 4037TIP3   OH233525   2.586   2.715  14.466  0.2737 -0.1596  1.0706
 4037TIP3    H133526   2.501   2.678  14.439 -0.4873  0.7548  2.1367
 4037TIP3    H233527   2.638   2.716  14.386 -0.3257 -1.7919  0.6248
 4038TIP3   OH233528   2.465   6.699  16.932  0.4258  0.0300 -0.1079
 4038TIP3    H133529   2.529   6.765  16.906 -0.0174  0.9017  1.0019
 4038TIP3    H233530   2.414   6.684  16.852  0.6709  0.8605 -0.4296
 4039TIP3   OH233531   3.521   2.280   1.311 -0.4639 -0.4677  0.2774
 4039TIP3    H133532   3.445   2.334   1.332 -1.4567 -1.6380 -0.2047
 4039TIP3    H233533   3.535   2.292   1.217 -0.2477 -0.4755  0.3091
 4040TIP3   OH233534   6.401   3.012  14.406  0.5187 -0.5953  0.7845
 4040TIP3    H133535   6.422   2.937  14.350 -0.8511  0.3628 -1.0664
 4040TIP3    H233536   6.467   3.077  14.385 -0.3529 -0.0114 -0.1916
 4041TIP3   OH233537   2.882   5.660  16.950  0.5904 -0.2150  0.0149
 4041TIP3    H133538   2.899   5.566  16.944 -3.1850 -0.8999 -1.3414
 4041TIP3    H233539   2.914   5.695  16.867  0.1356 -0.6441 -0.3471
 4042TIP3   OH233540   6.364   5.361  11.511  0.2692  0.2634  0.0445
 4042TIP3    H133541   6.399   5.280  11.474  0.5434  0.1669  0.5184
 4042TIP3    H233542   6.413   5.431  11.466  2.0055  0.1074  1.6159
 4043TIP3   OH233543   3.494   0.202  14.339  0.0305 -0.4025 -0.0320
 4043TIP3    H133544   3.443   0.283  14.333  1.4633  0.5767  0.6699
 4043TIP3    H233545   3.555   0.207  14.265  1.1715 -0.0790  0.9208
 4044TIP3   OH233546   1.524   1.395   3.307 -0.3126 -0.0455 -0.6752
 4044TIP3    H133547   1.581   1.380   3.382 -2.1757 -3.3685  0.1897
 4044TIP3    H233548   1.455   1.452   3.341  0.1098  0.3708 -0.5107
 4045TIP3   OH233549   6.574   5.586   2.415 -0.1578  0.3903  0.0838
 4045TIP3    H133550   6.590   5.503   2.369  0.2902  0.3927  0.2359
 4045TIP3    H233551   6.543   5.559   2.501 -0.6867  0.3834 -0.1073
 4046TIP3   OH233552   2.594   3.540  13.167 -0.7570  0.2767  0.1489
 4046TIP3    H133553   2.597   3.521  13.261 -0.1510  1.0231  0.2823
 4046TIP3    H233554   2.569   3.633  13.162 -0.3282  0.3606 -0.4190
 4047TIP3   OH233555   6.206   6.360  14.868  0.4035 -0.6244 -0.4522
 4047TIP3    H133556   6.168   6.383  14.953 -0.6297 -1.7827 -0.5821
 4047TIP3    H233557   6.135   6.373  14.806  1.3311  0.7988 -1.2421
 4048TIP3   OH233558   3.310   4.635  15.482 -0.2619  0.5674  0.1395
 4048TIP3    H133559   3.300   4.676  15.568  0.1673 -0.3144  0.6160
 4048TIP3    H233560   3.318   4.708  15.421  0.9612  1.1782  1.0291
 4049TIP3   OH233561   2.590   0.904  11.066 -0.1353 -0.3787  0.0493
 4049TIP3    H133562   2.508   0.929  11.110 -0.2228 -1.4001  0.4765
 4049TIP3    H233563   2.569   0.905  10.973 -0.4363  0.0668  0.1209
 4050TIP3   OH233564   3.375   2.714  16.666  0.5259 -0.3849  0.1553
 4050TIP3    H133565   3.426   2.649  16.715  1.4074 -0.7096 -1.1608
 4050TIP3    H233566   3.369   2.789  16.725  0.3993 -1.2686  1.2838
 4051TIP3   OH233567   0.821   6.397  10.553  0.2032 -0.0320  0.0769
 4051TIP3    H133568   0.725   6.407  10.548  0.2798  1.3459  0.8641
 4051TIP3    H233569   0.837   6.306  10.529 -1.1850  0.1256 -1.5709
 4052TIP3   OH233570   3.319   2.221  13.675  0.2203 -0.1449 -0.4028
 4052TIP3    H133571   3.226   2.205  13.690  0.1487  0.1963 -0.4846
 4052TIP3    H233572   3.330   2.314  13.691  0.9864 -0.5919  1.9254
 4053TIP3   OH233573   5.351   3.483   4.893  0.6956  0.1456  0.0741
 4053TIP3    H133574   5.415   3.421   4.929  0.5141  1.6829  3.2285
 4053TIP3    H233575   5.307   3.518   4.970  0.3310  3.6890 -1.6665
 4054TIP3   OH233576   3.708   0.330  15.351  0.6161 -0.0042 -0.2189
 4054TIP3    H133577   3.748   0.379  15.279 -0.2446  1.0655  0.0201
 4054TIP3    H233578   3.719   0.386  15.427  0.5394 -0.6443  0.2708
 4055TIP3   OH233579   3.867   3.442  15.274 -0.2998  0.3797 -0.3856
 4055TIP3    H133580   3.937   3.507  15.284 -0.0890  0.3289 -1.5088
 4055TIP3    H233581   3.875   3.411  15.184 -0.8698 -0.6729 -0.0856
 4056TIP3   OH233582   0.139   3.282  14.378  0.1082  0.5499  0.2318
 4056TIP3    H133583   0.097   3.366  14.361 -1.7603 -0.0254  1.7281
 4056TIP3    H233584   0.066   3.222  14.393  1.4430 -1.0051  0.6270
 4057TIP3   OH233585   1.395   6.473  12.020 -1.0953 -0.0393 -0.0972
 4057TIP3    H133586   1.432   6.387  12.000  0.9001  0.8326 -0.2889
 4057TIP3    H233587   1.462   6.535  11.989 -2.1073  1.5541  0.8708
 4058TIP3   OH233588   2.307   3.736  14.159  0.8121  0.1448  0.3081
 4058TIP3    H133589   2.228   3.765  14.113 -0.0266 -2.4687 -0.0138
 4058TIP3    H233590   2.274   3.696  14.240  1.7904 -0.8413  0.2400
 4059TIP3   OH233591   3.199   3.481  13.017 -0.0706  0.2811  0.2773
 4059TIP3    H133592   3.211   3.505  12.925 -0.5746  1.3822  0.4932
 4059TIP3    H233593   3.272   3.523  13.063  1.8309 -2.5986  0.0235
 4060TIP3   OH233594   2.540   3.230   5.360 -0.6793 -0.3562  0.2584
 4060TIP3    H133595   2.631   3.215   5.386 -0.9642  0.7589  1.9738
 4060TIP3    H233596   2.546   3.297   5.292 -0.1396 -1.2053 -0.5467
 4061TIP3   OH233597   3.010   6.395   0.159 -0.0663  0.1051 -0.3889
 4061TIP3    H133598   3.033   6.311   0.199 -1.9482  0.2870  1.1318
 4061TIP3    H233599   3.033   6.384   0.067  1.6692 -1.3361  0.1766
 4062TIP3   OH233600   4.236   0.614   2.115 -0.3309 -0.1274 -0.2193
 4062TIP3    H133601   4.237   0.555   2.190  1.4088 -1.5190 -1.2732
 4062TIP3    H233602   4.304   0.679   2.134 -0.8885  0.3838  0.0497
 4063TIP3   OH233603   5.470   5.454  14.483  0.4704 -0.3270  0.6351
 4063TIP3    H133604   5.531   5.493  14.421  0.2500  0.8001  1.1193
 4063TIP3    H233605   5.492   5.361  14.484 -0.4626 -0.6084 -2.2117
 4064TIP3   OH233606   2.554   5.423  17.003 -0.0423  0.1064 -0.2566
 4064TIP3    H133607   2.546   5.349  17.063  2.3221  0.0982  0.0945
 4064TIP3    H233608   2.471   5.470  17.011 -0.2161 -0.5556  2.1295
 4065TIP3   OH233609   0.717   1.733   2.892  0.5722  0.3937  0.5723
 4065TIP3    H133610   0.733   1.674   2.818 -0.6674  1.6260 -0.7062
 4065TIP3    H233611   0.699   1.675   2.965  2.4778 -0.8671  0.0816
 4066TIP3   OH233612   0.211   3.908   5.136 -0.1441  0.1518  0.4848
 4066TIP3    H133613   0.185   3.977   5.198  0.8796  0.9573  0.0343
 4066TIP3    H233614   0.129   3.877   5.099 -0.5686  1.7467  0.0529
 4067TIP3   OH233615   2.851   0.970   0.271 -0.5271 -0.0474 -0.1877
 4067TIP3    H133616   2.773   0.995   0.321  0.6828  1.0871  1.1954
 4067TIP3    H233617   2.911   0.934   0.337  0.6148  0.3161 -1.0099
 4068TIP3   OH233618   4.689   1.810   1.295 -0.2788  0.1887  0.8246
 4068TIP3    H133619   4.661   1.871   1.226  1.3326 -2.2527 -2.1378
 4068TIP3    H233620   4.647   1.727   1.271  2.8466 -1.4787  0.9620
 4069TIP3   OH233621   0.024   3.385   1.389 -0.1320 -1.1506  0.6364
 4069TIP3    H133622  -0.017   3.472   1.388  0.8907 -0.6151  2.2347
 4069TIP3    H233623   0.114   3.401   1.362  0.0256 -1.7331  0.8216
 4070TIP3   OH233624   3.010   4.478   3.111 -0.9117  0.0809  0.5043
 4070TIP3    H133625   2.957   4.552   3.140 -1.0033  0.5655 -0.8670
 4070TIP3    H233626   2.949   4.423   3.061 -0.9728 -1.2059  1.9327
 4071TIP3   OH233627   6.618   3.831   5.774  0.1528  0.3666  0.0701
 4071TIP3    H133628   6.542   3.810   5.828  0.8599 -0.2892  0.8179
 4071TIP3    H233629   6.621   3.759   5.710  0.9229 -0.3264  0.8763
 4072TIP3   OH233630   4.902   6.502  13.364 -0.1456 -0.0267  0.0059
 4072TIP3    H133631   4.988   6.530  13.331 -1.1328 -1.0073 -3.5409
 4072TIP3    H233632   4.916   6.413  13.395  0.1873 -0.0949 -0.3327
 4073TIP3   OH233633   2.790   0.060   5.763  0.0440  0.1755 -0.2450
 4073TIP3    H133634   2.766   0.116   5.836 -0.4477  2.1228 -1.8724
 4073TIP3    H233635   2.886   0.063   5.760  0.0649  0.0378  0.3531
 4074TIP3   OH233636   4.972   2.803   0.434 -0.4426 -0.2903  0.3995
 4074TIP3    H133637   4.936   2.854   0.506  0.5255  0.5372  0.2991
 4074TIP3    H233638   4.976   2.864   0.361 -0.6195 -0.8963 -0.1233
 4075TIP3   OH233639   4.918   3.799   3.047  0.1156 -0.6056 -0.3726
 4075TIP3    H133640   4.970   3.736   2.997 -0.2231 -0.6537 -0.6693
 4075TIP3    H233641   4.883   3.859   2.981  0.8840  0.2273 -0.0319
 4076TIP3   OH233642   3.167   2.196   1.577  0.0746 -0.3199 -0.8510
 4076TIP3    H133643   3.134   2.142   1.649  0.2671 -1.9100 -1.9204
 4076TIP3    H233644   3.197   2.276   1.619 -1.0025 -0.6863  0.6863
 4077TIP3   OH233645   0.827   0.628   0.039  0.9683  0.2536 -0.0232
 4077TIP3    H133646   0.776   0.616  -0.041 -0.6740  0.2691  0.9902
 4077TIP3    H233647   0.827   0.543   0.081  2.2793  0.1157 -0.2819
 4078TIP3   OH233648   2.752   5.307  14.136 -0.1518  0.5142 -0.3517
 4078TIP3    H133649   2.834   5.324  14.181  0.4161 -0.9151 -0.8311
 4078TIP3    H233650   2.730   5.391  14.094  0.2811  1.3153  0.9905
 4079TIP3   OH233651   0.164   4.331   2.597  0.0847  0.3816  0.2744
 4079TIP3    H133652   0.142   4.374   2.680 -0.4610  1.0674 -0.2263
 4079TIP3    H233653   0.258   4.343   2.588  0.3518 -0.7654  1.4023
 4080TIP3   OH233654   3.346   5.081   4.240  0.8744 -0.2570 -0.3823
 4080TIP3    H133655   3.395   5.006   4.205  2.3027 -0.1402  1.3464
 4080TIP3    H233656   3.351   5.147   4.171  0.3314 -1.4152 -1.5709
 4081TIP3   OH233657   6.274   0.024   6.590  0.3885 -0.5750 -0.4539
 4081TIP3    H133658   6.289  -0.037   6.517 -2.1098  0.4368 -1.8959
 4081TIP3    H233659   6.184   0.055   6.576 -0.8396 -1.7259  4.0950
 4082TIP3   OH233660   6.671   2.090  13.442  0.1146 -0.1987  0.3169
 4082TIP3    H133661   6.591   2.059  13.485  1.3529 -2.9079  0.7765
 4082TIP3    H233662   6.640   2.141  13.367 -2.0324 -1.3770  0.3735
 4083TIP3   OH233663   6.141   1.173  14.540  0.1674  0.1595 -0.0750
 4083TIP3    H133664   6.057   1.201  14.503 -0.6676 -0.7729  1.0557
 4083TIP3    H233665   6.179   1.117  14.473 -1.1076 -1.1219  0.2395
 4084TIP3   OH233666   3.085   6.151   3.846 -0.1342 -0.2053  0.8150
 4084TIP3    H133667   3.025   6.099   3.898 -0.9447  2.3511  2.5411
 4084TIP3    H233668   3.145   6.190   3.910  0.4542  0.9828 -0.4207
 4085TIP3   OH233669   5.226   5.449  11.908 -0.3078  0.2121 -0.0614
 4085TIP3    H133670   5.245   5.391  11.982 -1.6275  0.2423  0.3167
 4085TIP3    H233671   5.200   5.532  11.948 -3.3590 -0.4827 -0.4458
 4086TIP3   OH233672   5.616   5.473  17.174  0.5792  0.0022 -0.1683
 4086TIP3    H133673   5.634   5.511  17.260 -1.9994 -1.2567  0.9863
 4086TIP3    H233674   5.578   5.544  17.123 -0.0650  0.1485  0.5117
 4087TIP3   OH233675   5.922   1.983   2.506 -0.2940 -0.3161  0.5071
 4087TIP3    H133676   5.895   1.902   2.550 -0.9348 -0.0978  0.5284
 4087TIP3    H233677   5.892   1.972   2.416 -0.0895 -0.2422  0.4311
 4088TIP3   OH233678   0.637   6.394   2.731  0.4027  0.5068 -0.1495
 4088TIP3    H133679   0.558   6.424   2.775  0.3208  0.9965 -0.6154
 4088TIP3    H233680   0.667   6.319   2.782 -0.3650  0.3138  0.0217
 4089TIP3   OH233681   3.711   6.114   5.059 -0.3934 -0.0137  0.7197
 4089TIP3    H133682   3.672   6.133   5.144 -0.2176 -0.2032  0.8417
 4089TIP3    H233683   3.803   6.137   5.069 -0.2235 -0.7388  0.7988
 4090TIP3   OH233684   4.913   2.112   1.580  0.0405 -0.1468  0.2572
 4090TIP3    H133685   4.829   2.150   1.605 -0.5672 -1.5052  0.3177
 4090TIP3    H233686   4.978   2.159   1.633 -0.7568  0.3513  0.7998
 4091TIP3   OH233687   2.317   6.227  15.247  0.1797 -0.1914  0.6169
 4091TIP3    H133688   2.398   6.197  15.288 -0.0204 -1.0007  0.4504
 4091TIP3    H233689   2.324   6.322  15.243  1.4745 -0.3116 -0.1406
 4092TIP3   OH233690   4.859   1.094   1.626  0.2369  0.4225 -0.4317
 4092TIP3    H133691   4.903   1.080   1.543 -0.4652 -1.6017 -0.4833
 4092TIP3    H233692   4.771   1.126   1.603 -0.6969 -2.1556 -0.5657
 4093TIP3   OH233693   0.664   3.837   4.139 -0.2865  0.3047  0.2968
 4093TIP3    H133694   0.678   3.818   4.232  1.5174  0.2867  0.0372
 4093TIP3    H233695   0.572   3.816   4.124 -1.2339  2.5392  2.6081
 4094TIP3   OH233696   5.789   4.057   1.129  0.0503 -0.0297  0.0590
 4094TIP3    H133697   5.823   4.096   1.210  1.3655 -1.8246  0.4011
 4094TIP3    H233698   5.706   4.017   1.155  0.7440 -1.0942  0.6576
 4095TIP3   OH233699   5.169   2.721   2.468  0.2867 -0.3759 -0.2557
 4095TIP3    H133700   5.191   2.656   2.401  0.8667 -0.9503  0.4780
 4095TIP3    H233701   5.105   2.677   2.524  0.0828 -0.0327 -0.2193
 4096TIP3   OH233702   4.441   3.429  15.764 -0.2195  0.0647 -0.1717
 4096TIP3    H133703   4.451   3.513  15.810 -1.4788 -1.2618  2.6698
 4096TIP3    H233704   4.457   3.450  15.672  3.7776  2.5845  0.9579
 4097TIP3   OH233705   0.417   1.505   2.070 -0.3323  0.4447  0.4389
 4097TIP3    H133706   0.351   1.571   2.047  0.4754  1.3834  0.7732
 4097TIP3    H233707   0.481   1.510   1.999 -0.0222  0.3539  0.7137
 4098TIP3   OH233708   0.063   0.152   5.177 -0.2540  0.2760  0.0270
 4098TIP3    H133709   0.017   0.082   5.221 -2.2900  2.2968  1.1947
 4098TIP3    H233710  -0.005   0.216   5.154  1.7675  2.8414  0.8721
 4099TIP3   OH233711   1.220   5.674  15.112  0.0074 -0.1985 -0.2083
 4099TIP3    H133712   1.151   5.630  15.063  1.0893 -1.7842 -0.3651
 4099TIP3    H233713   1.299   5.661  15.059  1.1881 -1.9238  1.9190
 4100TIP3   OH233714   1.810   1.834   3.987  0.1499 -0.3772 -0.1396
 4100TIP3    H133715   1.873   1.888   4.034  0.1795  0.7139 -1.3947
 4100TIP3    H233716   1.806   1.872   3.900 -2.4523 -0.2338 -0.0095
 4101TIP3   OH233717   5.525   6.133  14.976 -0.4026  0.2471  0.1787
 4101TIP3    H133718   5.571   6.153  15.057 -0.4516  2.3853 -0.3119
 4101TIP3    H233719   5.578   6.064  14.935 -0.4637 -0.9647  2.0572
 4102TIP3   OH233720   0.937   2.705  16.168 -0.3997 -0.1114  0.2776
 4102TIP3    H133721   0.978   2.735  16.249 -1.4056  0.2507  0.6595
 4102TIP3    H233722   1.010   2.694  16.107  0.3480 -0.2248  1.1800
 4103TIP3   OH233723   5.659   5.572   0.181  0.3748 -0.2986  0.5004
 4103TIP3    H133724   5.614   5.649   0.215 -2.6240 -1.2487 -1.1634
 4103TIP3    H233725   5.687   5.523   0.259 -1.8454  0.1317  1.5808
 4104TIP3   OH233726   3.596   1.573  10.612 -0.1039  0.1159 -0.3383
 4104TIP3    H133727   3.528   1.514  10.581 -0.5988 -0.1317  1.1679
 4104TIP3    H233728   3.668   1.515  10.639 -1.0136  0.1127  2.1633
 4105TIP3   OH233729   3.341   3.846  11.625  0.3316 -0.3332 -0.1175
 4105TIP3    H133730   3.366   3.760  11.591  0.6623  0.3743 -1.7589
 4105TIP3    H233731   3.376   3.848  11.714 -0.2123 -2.1192  0.1449
 4106TIP3   OH233732   5.706   2.947   0.602 -0.0879 -0.5551  0.4373
 4106TIP3    H133733   5.687   3.031   0.644 -0.3524  0.3515 -1.4583
 4106TIP3    H233734   5.797   2.955   0.573 -0.4459 -0.5363 -0.6725
 4107TIP3   OH233735   0.163   6.709  12.831 -0.1777 -0.4984 -0.3039
 4107TIP3    H133736   0.124   6.721  12.918  1.2579  0.4573  0.2281
 4107TIP3    H233737   0.257   6.701  12.848  0.0969 -0.4542 -1.7671
 4108TIP3   OH233738   1.013   2.359  12.209 -0.6052 -0.2752 -0.4551
 4108TIP3    H133739   1.022   2.338  12.302 -1.3516 -3.9228 -1.1226
 4108TIP3    H233740   1.008   2.454  12.207  0.2462 -0.0577  3.1572
 4109TIP3   OH233741   1.333   1.630   4.559 -0.2310 -0.1510  0.3592
 4109TIP3    H133742   1.347   1.715   4.599 -1.4797 -1.6228  4.1230
 4109TIP3    H233743   1.256   1.641   4.503 -0.9383  0.9575  1.5356
 4110TIP3   OH233744   4.647   0.126   3.252 -0.1249 -0.3143 -0.2398
 4110TIP3    H133745   4.726   0.092   3.292  1.4168  2.0398 -1.1674
 4110TIP3    H233746   4.663   0.220   3.243 -2.2068 -0.0962 -2.2300
 4111TIP3   OH233747   5.816   6.438   5.919  0.4842  0.1778 -0.5045
 4111TIP3    H133748   5.911   6.447   5.917  0.6272 -0.6629  1.2652
 4111TIP3    H233749   5.801   6.343   5.925 -0.4653  0.3135 -0.5576
 4112TIP3   OH233750   5.584   3.409   0.613  0.2426 -0.2121 -0.7834
 4112TIP3    H133751   5.547   3.464   0.682  3.0914 -0.0572  0.7069
 4112TIP3    H233752   5.530   3.330   0.614 -0.3291  0.1806  1.0158
 4113TIP3   OH233753   4.845   0.207  11.119 -0.2064 -0.1589  0.4582
 4113TIP3    H133754   4.832   0.221  11.025  1.4454 -1.5396  0.0006
 4113TIP3    H233755   4.832   0.113  11.131  0.7462 -0.1796  1.4088
 4114TIP3   OH233756   4.970   5.709  13.293 -0.0350  0.1313 -0.4589
 4114TIP3    H133757   4.987   5.731  13.202  0.8068  1.4899  0.0151
 4114TIP3    H233758   5.053   5.675  13.326  0.0207  0.8385  0.1461
 4115TIP3   OH233759   5.647   2.033  16.537  0.5237 -0.4602  0.0579
 4115TIP3    H133760   5.566   1.993  16.506  0.0727 -0.0373  0.6778
 4115TIP3    H233761   5.637   2.036  16.632  0.8756  0.4358  0.0697
 4116TIP3   OH233762   1.877   3.645   2.158 -0.3083 -0.2900 -0.5326
 4116TIP3    H133763   1.823   3.581   2.204  0.7456 -2.4218 -2.1756
 4116TIP3    H233764   1.947   3.593   2.117  2.5533  2.2927  0.8916
 4117TIP3   OH233765   0.607   3.393   4.224  0.0940  0.1405 -0.4342
 4117TIP3    H133766   0.594   3.299   4.213 -0.1461  0.3688 -2.3458
 4117TIP3    H233767   0.582   3.431   4.140  2.3058  1.6946 -0.4538
 4118TIP3   OH233768   2.604   2.200   0.421 -0.2278  0.3038 -0.5266
 4118TIP3    H133769   2.522   2.184   0.467 -1.6570  1.6201 -2.5290
 4118TIP3    H233770   2.582   2.187   0.329  2.4251 -1.7357 -0.9480
 4119TIP3   OH233771   1.953   0.175   6.127 -0.0662 -0.5371 -0.4139
 4119TIP3    H133772   2.008   0.169   6.205  1.1857 -0.4623 -1.2647
 4119TIP3    H233773   1.977   0.099   6.074  1.0776  0.8340 -1.9386
 4120TIP3   OH233774   6.652   4.209   0.237 -0.3716 -0.2669  0.2046
 4120TIP3    H133775   6.595   4.198   0.161 -1.4181 -2.6728  1.2844
 4120TIP3    H233776   6.710   4.132   0.234 -1.2055 -1.0163  2.4553
 4121TIP3   OH233777   6.700   0.276  17.057 -0.0605 -0.4331 -0.0248
 4121TIP3    H133778   6.772   0.339  17.056 -0.6609  0.2615 -1.6913
 4121TIP3    H233779   6.675   0.270  17.150  0.9138  0.7330  0.3239
 4122TIP3   OH233780   6.234   2.956  15.495 -0.0255  0.2514  0.0008
 4122TIP3    H133781   6.253   2.903  15.418 -0.1623  1.3155 -0.7783
 4122TIP3    H233782   6.233   2.894  15.568  0.0227 -0.7701 -0.8657
 4123TIP3   OH233783   4.740   1.592  13.018  0.2203  0.3067 -0.6863
 4123TIP3    H133784   4.820   1.572  12.969  0.7259  0.0153  0.2438
 4123TIP3    H233785   4.746   1.685  13.037  1.1647 -0.0529  0.8342
 4124TIP3   OH233786   1.703   1.258  16.620  0.0273 -0.2626 -0.2045
 4124TIP3    H133787   1.792   1.231  16.641  1.1196  1.9298 -1.7935
 4124TIP3    H233788   1.691   1.340  16.668  0.1648  1.2886 -2.7182
 4125TIP3   OH233789   0.270   4.026   1.901 -0.0408 -0.2943  0.3234
 4125TIP3    H133790   0.291   3.955   1.961 -1.4490 -0.3516  0.7703
 4125TIP3    H233791   0.177   4.013   1.880 -0.3693  1.5248  0.5767
 4126TIP3   OH233792   0.570   0.136   4.595  0.2270 -0.0966  0.2422
 4126TIP3    H133793   0.622   0.213   4.618 -0.1978  0.3510 -0.3020
 4126TIP3    H233794   0.576   0.080   4.673  2.0522 -0.3365 -0.0421
 4127TIP3   OH233795   4.850   4.490   6.028 -0.1591 -0.8765  0.3291
 4127TIP3    H133796   4.829   4.545   5.952 -1.8945 -0.6629  0.9529
 4127TIP3    H233797   4.868   4.403   5.991 -0.0638 -0.5450 -0.4040
 4128TIP3   OH233798   2.171   4.885   5.267 -0.1374 -0.4022 -0.0404
 4128TIP3    H133799   2.082   4.853   5.283 -0.2894  1.6601  3.5596
 4128TIP3    H233800   2.162   4.980   5.260  1.7195 -0.2353 -0.3735
 4129TIP3   OH233801   0.632   5.625  11.355  0.1262  0.1292  0.8453
 4129TIP3    H133802   0.661   5.636  11.265  3.0439 -1.9000  1.4703
 4129TIP3    H233803   0.595   5.536  11.358 -2.6304  1.2256  1.0233
 4130TIP3   OH233804   6.589   6.046  15.401  0.3578 -0.1788  0.4462
 4130TIP3    H133805   6.623   6.078  15.317  0.9250 -1.9740 -0.0305
 4130TIP3    H233806   6.495   6.035  15.387  0.3622  0.0692  0.2211
 4131TIP3   OH233807   6.620   6.243  15.585  0.4293  0.0722  0.2186
 4131TIP3    H133808   6.566   6.219  15.660  0.6993 -0.8836  0.1129
 4131TIP3    H233809   6.610   6.170  15.524  1.1688  0.2854 -0.1638
 4132TIP3   OH233810   6.265   5.434  11.146  0.8177 -0.4706  0.2384
 4132TIP3    H133811   6.338   5.372  11.143  1.6876  0.5180  0.3774
 4132TIP3    H233812   6.205   5.398  11.212  1.9268 -0.5103  1.2510
 4133TIP3   OH233813   5.591   2.664   4.330  0.2335  0.4336  0.3643
 4133TIP3    H133814   5.637   2.606   4.391 -0.3924  0.0119  0.4342
 4133TIP3    H233815   5.651   2.672   4.255  1.6717  2.1398  1.6466
 4134TIP3   OH233816   6.369   1.756  16.410 -0.2344  0.6368 -0.4235
 4134TIP3    H133817   6.457   1.719  16.416  0.9535  3.5750  0.9980
 4134TIP3    H233818   6.312   1.688  16.446  1.8598  0.1020  2.0120
 4135TIP3   OH233819   2.263   3.919  15.622 -0.0111  0.0012  0.3326
 4135TIP3    H133820   2.351   3.936  15.656 -0.8120  0.8877  2.0158
 4135TIP3    H233821   2.257   3.972  15.543  1.7720 -1.8548 -1.0982
 4136TIP3   OH233822   0.337   0.232  17.041 -0.2577  0.3346  0.0330
 4136TIP3    H133823   0.243   0.248  17.036 -0.2542  0.1141 -0.7906
 4136TIP3    H233824   0.345   0.139  17.066 -0.2569  0.4234  0.3676
 4137TIP3   OH233825   2.346   2.299   6.487 -0.1562 -0.3480  0.3885
 4137TIP3    H133826   2.390   2.304   6.403  1.0425 -0.5803  0.9956
 4137TIP3    H233827   2.411   2.262   6.547 -1.0079 -0.2410  1.4071
 4138TIP3   OH233828   4.509   1.145  13.727 -0.0885 -0.0656 -0.3427
 4138TIP3    H133829   4.586   1.099  13.692  0.1188  2.4135 -3.3421
 4138TIP3    H233830   4.543   1.198  13.799  0.7910  0.2061 -0.9606
 4139TIP3   OH233831   4.411   5.346   3.460  0.6689 -0.0977 -0.7780
 4139TIP3    H133832   4.353   5.274   3.482  1.7076 -0.8742 -0.5629
 4139TIP3    H233833   4.486   5.305   3.418  2.6146  0.5352  1.9144
 4140TIP3   OH233834   3.436   3.496   1.042  0.4382  0.5550  0.3464
 4140TIP3    H133835   3.460   3.524   0.953  1.4818 -0.9063  0.1426
 4140TIP3    H233836   3.350   3.455   1.031 -0.2207  1.9119  0.3209
 4141TIP3   OH233837   1.597   0.778   3.431 -0.3101 -0.4752 -0.0207
 4141TIP3    H133838   1.593   0.865   3.472  0.7772 -0.5109  0.1723
 4141TIP3    H233839   1.639   0.794   3.346 -1.5498 -0.5719 -0.6643
 4142TIP3   OH233840   5.128   4.226  11.314 -0.3478  0.5611  0.3234
 4142TIP3    H133841   5.127   4.145  11.364 -1.3606  0.4159  0.0752
 4142TIP3    H233842   5.206   4.272  11.344  0.4695 -0.7049  0.1473
 4143TIP3   OH233843   3.016   3.816  16.485 -0.2172  0.3809 -0.7205
 4143TIP3    H133844   2.987   3.817  16.394  1.1325  2.3493 -1.1536
 4143TIP3    H233845   3.100   3.861  16.484  0.9693 -1.7240  1.1368
 4144TIP3   OH233846   4.209   0.651  15.339 -0.0207 -0.3537 -0.2058
 4144TIP3    H133847   4.230   0.603  15.259 -0.0838  0.3766 -0.6730
 4144TIP3    H233848   4.156   0.590  15.391  0.0189 -0.8324 -0.7229
 4145TIP3   OH233849   6.415   2.275   6.149 -0.2742  0.1499  0.2823
 4145TIP3    H133850   6.364   2.257   6.228  0.3323 -1.8545  0.2288
 4145TIP3    H233851   6.506   2.262   6.175 -0.0514 -0.2551 -0.6715
 4146TIP3   OH233852   4.578   2.159  12.185  0.1875  0.0656  0.1338
 4146TIP3    H133853   4.661   2.112  12.191 -0.3401 -0.9282 -0.3209
 4146TIP3    H233854   4.602   2.252  12.194  1.4767 -0.1241 -1.2991
 4147TIP3   OH233855   1.402   2.298  12.294  0.1458  0.0335 -0.1560
 4147TIP3    H133856   1.370   2.340  12.374 -0.1850 -0.5936  0.0475
 4147TIP3    H233857   1.387   2.362  12.225  1.7707  1.1527  0.5075
 4148TIP3   OH233858   5.772   5.273   4.761 -0.2450 -0.1024  0.1860
 4148TIP3    H133859   5.775   5.199   4.700 -0.9046  1.5094 -1.8598
 4148TIP3    H233860   5.833   5.337   4.724 -1.8507  1.5495  0.3543
 4149TIP3   OH233861   6.703   6.132   1.514 -0.1167  0.4134  0.4021
 4149TIP3    H133862   6.608   6.142   1.522 -0.1248 -0.1129  0.9925
 4149TIP3    H233863   6.719   6.130   1.420 -0.6513  0.8775  0.2985
 4150TIP3   OH233864   1.892   0.467  15.249 -0.0389  0.2202  0.7029
 4150TIP3    H133865   1.824   0.517  15.293  1.4811  1.7025  1.4226
 4150TIP3    H233866   1.908   0.514  15.168 -1.0096 -1.0607 -0.2599
 4151TIP3   OH233867   6.238   0.725   2.468 -0.0196 -0.0487  0.9336
 4151TIP3    H133868   6.173   0.694   2.531 -1.6238  0.5133 -0.4280
 4151TIP3    H233869   6.188   0.772   2.402  1.6561 -0.4450 -0.6689
 4152TIP3   OH233870   4.038   3.810  16.815  0.1596 -0.4116 -0.1375
 4152TIP3    H133871   4.029   3.870  16.889 -0.0498 -0.0005 -0.4985
 4152TIP3    H233872   3.948   3.794  16.786  0.3119  0.3855 -1.0704
 4153TIP3   OH233873   1.566   2.274   1.703  0.3897  0.3265 -0.1638
 4153TIP3    H133874   1.504   2.346   1.688  0.1211 -0.3038 -2.3198
 4153TIP3    H233875   1.556   2.219   1.625  0.8866 -1.8270  1.2834
 4154TIP3   OH233876   1.228   4.282  11.721 -0.6223 -0.4244  0.2407
 4154TIP3    H133877   1.290   4.209  11.711 -1.5076 -1.1669  0.0917
 4154TIP3    H233878   1.233   4.328  11.637 -0.8747 -0.9652 -0.0762
 4155TIP3   OH233879   5.338   5.758  15.079  0.2283 -0.4185 -0.0265
 4155TIP3    H133880   5.289   5.839  15.072  0.2603 -0.2850  1.3371
 4155TIP3    H233881   5.351   5.730  14.988 -3.4039 -1.1054 -0.3994
 4156TIP3   OH233882   0.339   1.406  13.063 -0.6385 -0.3342 -0.2775
 4156TIP3    H133883   0.306   1.483  13.016 -1.4332 -0.0608  0.7008
 4156TIP3    H233884   0.314   1.332  13.007 -0.2210  0.0911 -1.0300
 4157TIP3   OH233885   6.612   2.983  11.407  0.0826 -0.6089  0.3639
 4157TIP3    H133886   6.557   3.059  11.386 -1.5184 -1.4872  1.3026
 4157TIP3    H233887   6.615   2.933  11.325  0.0017 -0.2282  0.1247
 4158TIP3   OH233888   4.151   4.586   3.644  0.6207 -0.0599 -0.2517
 4158TIP3    H133889   4.080   4.568   3.706  0.1191  1.9501 -0.2196
 4158TIP3    H233890   4.146   4.514   3.581 -0.8016 -0.5029  0.3407
 4159TIP3   OH233891   4.594   1.735   5.284  0.0123  0.0528  0.0957
 4159TIP3    H133892   4.546   1.754   5.364 -0.9651 -0.2004 -0.4284
 4159TIP3    H233893   4.684   1.721   5.313  0.2343  2.6580  0.8595
 4160TIP3   OH233894   3.910   2.406  15.291  0.6320 -0.7142  0.6831
 4160TIP3    H133895   4.002   2.381  15.284  0.8511  0.0805  0.6620
 4160TIP3    H233896   3.891   2.452  15.209  0.6083  0.3698  1.2899
 4161TIP3   OH233897   1.652   6.164  12.878  0.3187 -0.1126 -0.9687
 4161TIP3    H133898   1.746   6.180  12.866  0.5725 -1.6486 -1.0924
 4161TIP3    H233899   1.647   6.082  12.927 -0.9636 -0.2581 -1.3184
 4162TIP3   OH233900   0.043   0.249  11.490 -0.4098  0.2064 -0.0529
 4162TIP3    H133901   0.109   0.222  11.426  0.5106 -1.0252  1.3869
 4162TIP3    H233902   0.085   0.235  11.575 -2.9922 -1.8271  0.9264
 4163TIP3   OH233903   2.767   2.930  14.606 -0.1261 -0.7131 -0.2890
 4163TIP3    H133904   2.789   2.995  14.540  0.9479  0.2246  0.9499
 4163TIP3    H233905   2.686   2.890  14.575  0.9778 -1.1114 -2.7212
 4164TIP3   OH233906   3.300   4.005   4.060 -0.2649 -1.0000 -0.8853
 4164TIP3    H133907   3.209   3.992   4.085 -0.0254 -0.8122  0.0859
 4164TIP3    H233908   3.297   4.021   3.965 -1.5116  1.6771 -0.4245
 4165TIP3   OH233909   4.072   3.457  12.987  0.4098  0.7818  0.0660
 4165TIP3    H133910   4.162   3.486  13.003  0.4195  0.7411  0.0856
 4165TIP3    H233911   4.038   3.434  13.073  0.5464  0.3162 -0.0012
 4166TIP3   OH233912   0.188   2.969  10.961 -0.7342  0.7781 -0.1180
 4166TIP3    H133913   0.153   2.932  10.880 -0.0371  0.1202 -0.1259
 4166TIP3    H233914   0.282   2.952  10.956 -0.6853  0.7610  0.8236
 4167TIP3   OH233915   0.855   3.240  13.999 -0.0074 -0.0389  0.5375
 4167TIP3    H133916   0.908   3.307  13.955  1.7372 -0.4116  2.0240
 4167TIP3    H233917   0.918   3.175  14.030 -1.3418 -0.5465  2.2850
 4168TIP3   OH233918   2.361   0.205  13.550  0.5555 -0.4779  0.3440
 4168TIP3    H133919   2.438   0.169  13.594  0.8745 -1.4390 -0.9445
 4168TIP3    H233920   2.344   0.143  13.479 -0.6529  0.4045 -0.1513
 4169TIP3   OH233921   1.246   6.212   2.217 -0.3537 -0.2260 -0.1845
 4169TIP3    H133922   1.157   6.193   2.245  0.0612 -2.3614 -0.2833
 4169TIP3    H233923   1.286   6.127   2.200  1.4201  0.7323 -1.0670
 4170TIP3   OH233924   0.463   5.442   0.387 -0.0262 -0.8729 -0.3204
 4170TIP3    H133925   0.432   5.412   0.473 -0.2646  1.4973  0.4570
 4170TIP3    H233926   0.385   5.480   0.346  0.5333 -0.1825 -0.7528
 4171TIP3   OH233927   6.541   2.307  14.152 -0.4418 -0.4971 -0.3050
 4171TIP3    H133928   6.531   2.233  14.212  1.2749 -0.1420  0.4437
 4171TIP3    H233929   6.467   2.364  14.172  1.5029  0.9086  3.3860
 4172TIP3   OH233930   5.672   0.023  13.918  0.1141 -0.2053  0.6045
 4172TIP3    H133931   5.586   0.015  13.961  0.6767 -0.5702  1.6826
 4172TIP3    H233932   5.732   0.046  13.989  0.7145  1.2128 -0.3409
 4173TIP3   OH233933   1.851   3.257  14.423  0.3006 -0.0041  0.2966
 4173TIP3    H133934   1.843   3.291  14.512 -0.7075  2.0812 -0.5507
 4173TIP3    H233935   1.792   3.311  14.371 -0.1323 -2.0532 -1.4255
 4174TIP3   OH233936   5.546   6.044   3.323  0.3187 -0.1078 -0.1423
 4174TIP3    H133937   5.595   6.119   3.290 -0.2598  0.6071  0.6321
 4174TIP3    H233938   5.500   6.076   3.400 -1.6040 -0.6916 -1.0026
 4175TIP3   OH233939   5.900   5.750  14.403 -1.0761  0.6440 -0.0576
 4175TIP3    H133940   5.848   5.830  14.393 -0.3264  1.2143  0.4740
 4175TIP3    H233941   5.876   5.716  14.489  0.5482  1.7722  0.8879
 4176TIP3   OH233942   6.599   4.563  13.697  0.2039  0.8714 -0.3352
 4176TIP3    H133943   6.579   4.656  13.693  2.2690  1.2868 -2.4554
 4176TIP3    H233944   6.518   4.520  13.670 -0.7936  2.0375  0.7317
 4177TIP3   OH233945   5.350   6.407  15.100 -0.2086  0.2459  0.3095
 4177TIP3    H133946   5.406   6.330  15.113  0.7294  0.7772 -0.5668
 4177TIP3    H233947   5.287   6.380  15.033  0.1490  0.2681 -0.0298
 4178TIP3   OH233948   3.392   3.401   0.039  0.3455  0.2242  0.4095
 4178TIP3    H133949   3.475   3.447   0.053  0.4883 -0.2829  1.2603
 4178TIP3    H233950   3.412   3.334  -0.027 -0.1438  2.1081 -1.7456
 4179TIP3   OH233951   0.713   0.936   5.369  0.0381  0.1876 -0.2817
 4179TIP3    H133952   0.624   0.965   5.350  0.2887 -0.3440 -2.4916
 4179TIP3    H233953   0.762   0.957   5.289  0.9998 -3.0661 -0.6284
 4180TIP3   OH233954   3.146   5.629  13.309 -0.5652 -0.7166  0.9363
 4180TIP3    H133955   3.112   5.633  13.399  1.4040  0.0488  1.6862
 4180TIP3    H233956   3.115   5.710  13.268  0.3289  0.0014  1.6328
 4181TIP3   OH233957   6.500   2.108  15.836  0.0906 -0.1418  0.0965
 4181TIP3    H133958   6.544   2.028  15.865  1.8346  0.7290 -0.0772
 4181TIP3    H233959   6.461   2.145  15.916 -0.1587 -0.8182  0.2868
 4182TIP3   OH233960   5.180   4.262   0.949  0.3599 -0.2889  0.3039
 4182TIP3    H133961   5.151   4.242   1.038  0.5626 -0.5107  0.3207
 4182TIP3    H233962   5.167   4.356   0.940  2.0330  0.0439  1.1842
 4183TIP3   OH233963   1.839   4.119   2.196 -0.1698 -0.0629  0.5363
 4183TIP3    H133964   1.771   4.053   2.180 -0.4264  0.2688  0.2596
 4183TIP3    H233965   1.803   4.175   2.265 -0.2984  0.2812  0.1936
 4184TIP3   OH233966   6.709   5.212  12.807  0.3591 -0.3037 -0.5324
 4184TIP3    H133967   6.684   5.154  12.735  1.1707 -0.1654 -0.9310
 4184TIP3    H233968   6.627   5.227  12.855 -0.4548  0.6113 -2.1415
 4185TIP3   OH233969   3.884   2.003   0.209 -0.4100 -0.0654 -0.5783
 4185TIP3    H133970   3.833   2.005   0.290 -0.9257 -1.9301 -0.8371
 4185TIP3    H233971   3.966   1.961   0.233 -0.9067 -1.4241 -1.1860
 4186TIP3   OH233972   0.577   6.479   6.509  1.1536  0.4171  0.5966
 4186TIP3    H133973   0.617   6.516   6.430 -0.1237 -0.5156 -0.5123
 4186TIP3    H233974   0.489   6.517   6.511  1.5005  1.1760  2.1083
 4187TIP3   OH233975   4.880   2.027  11.893 -0.2508  0.4871  0.3131
 4187TIP3    H133976   4.898   2.105  11.841 -0.8900 -0.4927 -1.4161
 4187TIP3    H233977   4.784   2.023  11.897 -0.2575 -0.9853 -0.8402
 4188TIP3   OH233978   1.511   6.251  14.708 -0.4634  0.1450  0.6681
 4188TIP3    H133979   1.587   6.299  14.743 -0.0165 -0.5220  0.6265
 4188TIP3    H233980   1.467   6.216  14.785  0.6522 -1.5216  0.5773
 4189TIP3   OH233981   1.364   1.959   6.304 -0.3992  0.0151 -0.1541
 4189TIP3    H133982   1.415   2.040   6.303 -0.1325 -0.1283  1.2250
 4189TIP3    H233983   1.408   1.903   6.368 -1.4203 -0.6684 -0.0383
 4190TIP3   OH233984   0.503   6.150   1.702 -0.4522 -0.0761 -0.0051
 4190TIP3    H133985   0.562   6.202   1.649  1.5003 -1.0615  1.1378
 4190TIP3    H233986   0.480   6.206   1.776  0.3000 -0.2234  0.3461
 4191TIP3   OH233987   0.814   2.875   0.827  0.3456  0.4327 -0.0970
 4191TIP3    H133988   0.845   2.796   0.871  2.2630  1.5974  0.6745
 4191TIP3    H233989   0.861   2.876   0.743 -0.2865  0.3316 -0.4567
 4192TIP3   OH233990   5.890   2.043   1.674  0.4302 -0.0657 -0.3140
 4192TIP3    H133991   5.946   2.118   1.697 -0.4382  0.2775  0.7390
 4192TIP3    H233992   5.833   2.077   1.604  1.0154 -0.1794 -0.8448
 4193TIP3   OH233993   5.552   1.577   5.543  0.3566 -0.6381  0.0356
 4193TIP3    H133994   5.638   1.602   5.578  0.3590  0.9602 -1.0586
 4193TIP3    H233995   5.572   1.540   5.457 -0.1243  0.8402 -0.7331
 4194TIP3   OH233996   5.597   1.072  17.224  0.2252  0.4089  0.0923
 4194TIP3    H133997   5.593   1.058  17.318  1.5712 -0.4534  0.0294
 4194TIP3    H233998   5.690   1.075  17.204 -0.0482  1.1830 -1.1306
 4195TIP3   OH233999   2.930   4.163   6.273  0.0191  0.3401 -0.4759
 4195TIP3    H134000   2.954   4.151   6.365 -1.1659  1.5601  0.0065
 4195TIP3    H234001   2.866   4.094   6.256  0.5104 -0.1170 -0.5014
 4196TIP3   OH234002   0.086   6.134   3.752  0.0348  0.1027  0.0443
 4196TIP3    H134003   0.145   6.060   3.763 -0.7261 -0.4633  0.3790
 4196TIP3    H234004   0.134   6.208   3.788  0.1790 -0.5160  1.1505
 4197TIP3   OH234005   2.766   3.679   0.480 -0.1421 -0.0831  0.5118
 4197TIP3    H134006   2.751   3.585   0.487 -0.9534 -0.0973 -1.0810
 4197TIP3    H234007   2.718   3.705   0.401  1.5139  1.3648 -0.0547
 4198TIP3   OH234008   2.256   4.707  15.066 -0.2019  0.3907  0.4724
 4198TIP3    H134009   2.285   4.753  14.987  1.5998 -1.5867 -0.0786
 4198TIP3    H234010   2.261   4.773  15.135  3.2299  0.8604 -0.1236
 4199TIP3   OH234011   5.841   6.034   4.028  0.0537 -0.0331  0.1697
 4199TIP3    H134012   5.823   5.960   3.970  0.5560  0.3157 -0.4493
 4199TIP3    H234013   5.809   6.110   3.979  3.5655  0.6815 -1.2188
 4200TIP3   OH234014   1.400   0.251  12.666  0.2378  0.0588 -0.1371
 4200TIP3    H134015   1.421   0.283  12.578 -0.3755  1.5249  0.2256
 4200TIP3    H234016   1.320   0.298  12.690  0.4049 -0.3189  1.2100
 4201TIP3   OH234017   5.408   4.931   1.303  0.1607 -0.0952  0.5917
 4201TIP3    H134018   5.372   4.843   1.295  0.6089 -0.2822  0.5786
 4201TIP3    H234019   5.483   4.931   1.243  0.3137  0.2149  0.7810
 4202TIP3   OH234020   3.799   1.519   1.869 -0.1848  0.0297  0.1398
 4202TIP3    H134021   3.710   1.522   1.904 -0.4621  1.1403 -0.6465
 4202TIP3    H234022   3.788   1.534   1.775  0.9206  1.0277  0.1689
 4203TIP3   OH234023   2.698   5.820  14.034  0.2908 -0.4690 -0.4148
 4203TIP3    H134024   2.682   5.800  13.942 -0.5415 -0.7570 -0.2140
 4203TIP3    H234025   2.635   5.766  14.081 -0.1404  0.6068  0.2546
 4204TIP3   OH234026   1.155   2.084  12.140  0.2775  0.1022 -0.0177
 4204TIP3    H134027   1.103   2.038  12.206 -0.0404  2.4116  1.4073
 4204TIP3    H234028   1.246   2.059  12.159  0.1458  0.4029  1.0420
 4205TIP3   OH234029   2.758   6.198  15.104  0.2037  0.2323 -0.3049
 4205TIP3    H134030   2.786   6.171  15.191 -0.2704  0.6667 -0.0174
 4205TIP3    H234031   2.807   6.278  15.087  1.5859 -0.7708 -1.1464
 4206TIP3   OH234032   0.206   5.081  14.050  0.1648  0.4904  0.4170
 4206TIP3    H134033   0.128   5.097  14.103 -0.9358  1.7467 -1.5183
 4206TIP3    H234034   0.180   5.107  13.961  1.2927 -3.4503 -1.1657
 4207TIP3   OH234035   1.307   0.558   0.881 -0.1234  0.2563 -0.3721
 4207TIP3    H134036   1.226   0.581   0.927 -0.5753 -1.4428 -0.3008
 4207TIP3    H234037   1.280   0.547   0.789  0.7937  3.7617 -1.1703
 4208TIP3   OH234038   6.479   6.648   3.775 -0.1588 -0.1489 -0.9153
 4208TIP3    H134039   6.554   6.638   3.717 -0.2867 -3.3883 -0.5800
 4208TIP3    H234040   6.517   6.674   3.859  0.4656 -0.5009 -1.0883
 4209TIP3   OH234041   2.844   0.863   2.968  0.0666  0.5171 -0.4996
 4209TIP3    H134042   2.762   0.815   2.975  1.4758 -2.0055 -0.5913
 4209TIP3    H234043   2.824   0.936   2.910 -2.1472  0.0495 -0.3696
 4210TIP3   OH234044   4.465   1.579   4.587  0.8642 -0.0272  0.3934
 4210TIP3    H134045   4.521   1.625   4.525  0.1755  0.5445  0.1854
 4210TIP3    H234046   4.450   1.644   4.657 -0.2841  0.1312 -0.0030
 4211TIP3   OH234047   5.283   0.355   6.086  0.2488 -0.1268 -0.5067
 4211TIP3    H134048   5.212   0.419   6.085 -1.1917 -1.6866  0.1718
 4211TIP3    H234049   5.256   0.289   6.150  1.6331 -1.4974 -1.2893
 4212TIP3   OH234050   5.958   3.757   4.626  0.4052  0.2039 -0.3838
 4212TIP3    H134051   5.904   3.753   4.547 -0.7808  0.9236  0.3591
 4212TIP3    H234052   5.965   3.667   4.655 -0.3096  0.0923 -0.5549
 4213TIP3   OH234053   5.161   2.617  12.820  0.0083 -0.2497 -0.1427
 4213TIP3    H134054   5.076   2.622  12.863 -0.0098  0.4227 -0.2366
 4213TIP3    H234055   5.225   2.635  12.889  0.0854 -0.9583 -0.0292
 4214TIP3   OH234056   5.980   2.072   3.223 -0.6100  0.4555 -0.1848
 4214TIP3    H134057   5.931   2.100   3.300  0.1978  1.9459 -0.2117
 4214TIP3    H234058   6.035   2.000   3.254  2.4877  3.4754  1.5309
 4215TIP3   OH234059   5.966   3.816   2.043 -0.5170 -0.1615  0.1997
 4215TIP3    H134060   5.897   3.794   1.981 -0.1821  0.5866 -0.4615
 4215TIP3    H234061   6.004   3.732   2.069 -1.0347 -0.5125 -0.1845
 4216TIP3   OH234062   4.708   1.816  10.883  0.1586  0.1261 -0.1957
 4216TIP3    H134063   4.786   1.861  10.916  0.8099 -0.0798 -1.4499
 4216TIP3    H234064   4.670   1.876  10.820 -0.6752  0.1940  0.3589
 4217TIP3   OH234065   4.075   4.904  15.776 -0.1735 -0.2050  0.3109
 4217TIP3    H134066   4.004   4.843  15.798 -2.2039  2.5736  1.7227
 4217TIP3    H234067   4.059   4.928  15.685 -0.8322  0.1059  0.5078
 4218TIP3   OH234068   2.287   3.789  16.962  0.0914 -0.7290 -0.3049
 4218TIP3    H134069   2.360   3.850  16.961 -1.9407  1.7646 -0.0131
 4218TIP3    H234070   2.287   3.753  17.051  1.1623 -1.0453 -0.4199
 4219TIP3   OH234071   2.840   5.063   1.532 -0.0297  0.7451 -0.3129
 4219TIP3    H134072   2.770   5.068   1.597  0.2126  1.3034 -0.0965
 4219TIP3    H234073   2.802   5.102   1.454  0.8457  3.2916  0.5010
 4220TIP3   OH234074   3.870   2.994   4.609  0.1575 -0.2160 -0.2662
 4220TIP3    H134075   3.799   3.056   4.596  0.8632  1.4258  3.1801
 4220TIP3    H234076   3.827   2.913   4.638 -0.3785  0.7893  1.8794
 4221TIP3   OH234077   4.691   2.762   4.285  0.0385 -0.1317 -0.3911
 4221TIP3    H134078   4.741   2.804   4.215 -1.1282 -1.4594 -2.0578
 4221TIP3    H234079   4.630   2.829   4.314  1.6948  1.0007  0.6018
 4222TIP3   OH234080   2.588   0.509  13.070 -0.1917 -0.5405 -0.2199
 4222TIP3    H134081   2.630   0.466  12.995  0.5905 -1.6098  0.8162
 4222TIP3    H234082   2.533   0.440  13.109 -0.6955  0.0487  0.1209
 4223TIP3   OH234083   4.958   5.900  12.364  0.2685  0.3757  0.3537
 4223TIP3    H134084   4.909   5.956  12.303  0.6201 -1.0748 -1.2792
 4223TIP3    H234085   4.892   5.839  12.398  0.6750 -0.8076 -0.9410
 4224TIP3   OH234086   5.769   0.553   0.288 -0.0556 -0.5343 -0.8040
 4224TIP3    H134087   5.678   0.534   0.311  0.4130 -1.0556  0.6791
 4224TIP3    H234088   5.766   0.639   0.245 -1.1090 -0.0720  0.1900
 4225TIP3   OH234089   3.444   5.509  13.827 -0.3363  0.0592  0.4219
 4225TIP3    H134090   3.407   5.568  13.761  1.9075 -0.1684 -1.0728
 4225TIP3    H234091   3.445   5.561  13.908 -0.2467  1.3927 -0.4195
 4226TIP3   OH234092   1.265   2.731   6.294  0.3274 -0.2523  0.3134
 4226TIP3    H134093   1.352   2.698   6.272 -0.0398  0.0953 -1.7608
 4226TIP3    H234094   1.271   2.825   6.279 -0.3100 -0.1795  0.5120
 4227TIP3   OH234095   1.162   1.602   5.939  0.2559 -0.1743 -0.2095
 4227TIP3    H134096   1.126   1.684   5.903  0.8519  0.2987  0.2714
 4227TIP3    H234097   1.087   1.560   5.981 -0.0454  0.1479 -0.4171
 4228TIP3   OH234098   1.378   1.054  12.720  0.4121 -0.4408 -0.4925
 4228TIP3    H134099   1.449   1.113  12.743  0.1487 -0.1797 -0.3444
 4228TIP3    H234100   1.334   1.035  12.803 -2.1954  2.6438 -1.0686
 4229TIP3   OH234101   4.362   2.179   5.847 -0.0803 -0.1280  0.1986
 4229TIP3    H134102   4.294   2.112   5.848 -0.2666  0.0466 -0.5648
 4229TIP3    H234103   4.319   2.256   5.809  0.2751  0.2732  0.5941
 4230TIP3   OH234104   1.344   3.669  15.845 -0.0926 -0.2592 -0.1145
 4230TIP3    H134105   1.426   3.621  15.862  0.1914  0.3780  0.3579
 4230TIP3    H234106   1.277   3.601  15.844  0.6472 -1.0039 -2.1730
 4231TIP3   OH234107   5.716   4.735  16.867 -0.2652 -0.6267  0.6847
 4231TIP3    H134108   5.761   4.691  16.939 -1.0789  0.6896  2.0171
 4231TIP3    H234109   5.628   4.697  16.868  0.1553 -1.6501 -0.5469
 4232TIP3   OH234110   6.344   3.384   1.266  0.5746  0.1584 -0.7221
 4232TIP3    H134111   6.346   3.477   1.245  0.5226  0.0570 -1.1721
 4232TIP3    H234112   6.261   3.371   1.311  0.5476  0.3143 -0.7274
 4233TIP3   OH234113   5.488   6.210  12.124 -0.4350 -0.0081 -0.1737
 4233TIP3    H134114   5.493   6.244  12.213 -1.5045 -0.4856  0.0820
 4233TIP3    H234115   5.450   6.122  12.134 -0.4554 -0.1086 -1.0802
 4234TIP3   OH234116   1.542   2.798   5.299  0.1998  0.3141 -0.1255
 4234TIP3    H134117   1.449   2.792   5.277 -0.2111  0.6610  1.4226
 4234TIP3    H234118   1.568   2.885   5.268 -0.1343  0.4241 -0.1046
 4235TIP3   OH234119   5.692   6.385  15.867 -0.2919 -0.1488  0.1043
 4235TIP3    H134120   5.750   6.340  15.930  2.5768  1.8177 -1.0011
 4235TIP3    H234121   5.717   6.349  15.782 -1.1648  0.2402 -0.3166
 4236TIP3   OH234122   1.157   2.407   3.731  0.3638 -0.6107  0.0546
 4236TIP3    H134123   1.168   2.438   3.641  0.7226  0.6226  0.5035
 4236TIP3    H234124   1.064   2.387   3.738  0.2899 -0.4846 -0.5325
 4237TIP3   OH234125   2.803   5.805   2.178 -0.1201 -0.6354  0.0566
 4237TIP3    H134126   2.880   5.755   2.207 -0.3123 -0.8938  0.1220
 4237TIP3    H234127   2.758   5.746   2.117  0.1571 -0.1850 -0.5966
 4238TIP3   OH234128   2.655   1.308  16.321  0.4067 -0.1643 -0.2867
 4238TIP3    H134129   2.586   1.242  16.328  1.6158 -1.5009 -0.8241
 4238TIP3    H234130   2.614   1.380  16.272 -0.9318 -0.4843  0.3354
 4239TIP3   OH234131   0.433   5.858  13.706  0.3774  0.3846 -0.2406
 4239TIP3    H134132   0.440   5.928  13.771  0.5946 -2.3004  2.7379
 4239TIP3    H234133   0.346   5.820  13.721  1.3791 -1.8372  0.1977
 4240TIP3   OH234134   2.212   2.621   4.795  0.0371 -0.2963 -0.0476
 4240TIP3    H134135   2.155   2.695   4.817  0.5529 -0.1771  0.9612
 4240TIP3    H234136   2.299   2.660   4.788  0.2937 -0.7904  0.3801
 4241TIP3   OH234137   6.718   2.020  16.062 -0.3327  0.4122  0.3245
 4241TIP3    H134138   6.650   2.038  16.127  0.3742  1.0529  0.9012
 4241TIP3    H234139   6.740   2.106  16.026 -0.0319  0.1748 -0.0668
 4242TIP3   OH234140   5.437   4.183   5.631  0.2260 -0.2221  0.3919
 4242TIP3    H134141   5.417   4.090   5.629  1.5032 -0.5059  0.5953
 4242TIP3    H234142   5.359   4.224   5.667 -1.1364 -0.9994 -1.5907
 4243TIP3   OH234143   4.453   2.780  12.456 -0.7017  0.1110 -0.3034
 4243TIP3    H134144   4.385   2.767  12.522  0.3396  0.8929  0.9566
 4243TIP3    H234145   4.427   2.861  12.411 -0.0069  1.0726  0.9774
 4244TIP3   OH234146   2.670   2.920   5.834 -0.1059 -0.8986  0.1291
 4244TIP3    H134147   2.603   2.982   5.807  0.3487 -0.8292 -0.8887
 4244TIP3    H234148   2.738   2.974   5.875 -0.5994 -0.9509  1.0136
 4245TIP3   OH234149   4.578   1.286  10.995  0.1909  0.8222 -0.0196
 4245TIP3    H134150   4.664   1.285  10.953  0.4889  0.8977  0.5822
 4245TIP3    H234151   4.519   1.322  10.929  0.2118 -1.3118 -1.2272
 4246TIP3   OH234152   0.223   1.532  11.228  0.5188  0.1637 -0.2522
 4246TIP3    H134153   0.271   1.454  11.201  1.1846  0.4397  0.1177
 4246TIP3    H234154   0.272   1.605  11.191 -0.1516  0.4065 -0.6724
 4247TIP3   OH234155   6.497   3.740   0.500  0.2903  0.0683  0.3678
 4247TIP3    H134156   6.579   3.775   0.536 -0.7343  0.2459  2.5996
 4247TIP3    H234157   6.478   3.663   0.553 -0.9711  0.0144 -0.1448
 4248TIP3   OH234158   1.367   2.951  14.559 -0.3345  0.1387 -0.7045
 4248TIP3    H134159   1.281   2.942  14.602  2.0786  1.0079  4.8005
 4248TIP3    H234160   1.368   3.040  14.525 -1.9403 -0.1920 -1.6583
 4249TIP3   OH234161   3.883   3.204  16.877 -0.2740  0.2436 -0.1592
 4249TIP3    H134162   3.876   3.223  16.783  0.8013  0.8502 -0.1235
 4249TIP3    H234163   3.975   3.180  16.889 -0.9586 -2.3679  0.2864
 4250TIP3   OH234164   5.769   5.083  15.878 -0.5658  0.7400  0.2363
 4250TIP3    H134165   5.688   5.125  15.850 -0.0454  1.9925  0.5541
 4250TIP3    H234166   5.831   5.101  15.807 -0.7912 -0.9763 -0.4234
 4251TIP3   OH234167   3.167   3.586  12.745 -0.1073 -0.6720 -0.3867
 4251TIP3    H134168   3.206   3.644  12.679  0.0463 -0.4643 -0.1150
 4251TIP3    H234169   3.073   3.593  12.731 -0.0587 -0.9636 -0.8676
 4252TIP3   OH234170   4.247   1.658   1.748  0.4254  0.1801 -0.2465
 4252TIP3    H134171   4.302   1.736   1.754  1.1656 -0.4197  1.0884
 4252TIP3    H234172   4.176   1.673   1.810  0.9879 -0.5312  0.5739
 4253TIP3   OH234173   5.973   4.039  14.449 -0.3935  0.8108 -0.1814
 4253TIP3    H134174   5.985   4.047  14.544  0.4268 -0.7235 -0.1344
 4253TIP3    H234175   6.045   4.090  14.412 -0.3796  0.9433  0.0274
 4254TIP3   OH234176   1.914   3.608   0.579 -0.5549 -0.3707 -0.1255
 4254TIP3    H134177   1.827   3.572   0.563 -0.9588  0.6141 -0.1828
 4254TIP3    H234178   1.942   3.643   0.495 -1.2091  1.6562  0.4746
 4255TIP3   OH234179   5.027   2.979  16.824 -0.0753  0.0366  0.2156
 4255TIP3    H134180   4.985   2.983  16.910 -0.1823 -0.2347  0.1758
 4255TIP3    H234181   5.095   3.047  16.827 -0.2226  0.1740  0.4351
 4256TIP3   OH234182   0.231   3.838   6.713 -0.9452 -0.3800  0.1309
 4256TIP3    H134183   0.201   3.753   6.747 -0.2542 -0.8476 -0.4056
 4256TIP3    H234184   0.163   3.900   6.739 -1.2576 -1.0324  0.8800
 4257TIP3   OH234185   5.395   2.643  14.841  0.1462 -0.5946 -0.0217
 4257TIP3    H134186   5.394   2.695  14.921  1.8376 -1.1276  0.3881
 4257TIP3    H234187   5.303   2.636  14.815 -0.3185  0.5169  1.2559
 4258TIP3   OH234188   5.262   5.416   0.597 -0.0574 -0.5617 -0.6130
 4258TIP3    H134189   5.300   5.350   0.538 -0.5459 -1.4941  0.1009
 4258TIP3    H234190   5.168   5.411   0.580  0.0349  1.0436 -1.6623
 4259TIP3   OH234191   0.117   2.912  16.520 -0.1568 -0.4863  0.2295
 4259TIP3    H134192   0.095   2.976  16.452 -0.3035 -1.6265 -0.7998
 4259TIP3    H234193   0.173   2.848  16.476 -1.0678 -1.7815  0.9243
 4260TIP3   OH234194   6.366   5.796   2.848  0.2140  0.3068 -0.0650
 4260TIP3    H134195   6.385   5.707   2.876 -1.1559 -0.5518 -1.7814
 4260TIP3    H234196   6.385   5.850   2.925  0.1848 -1.5427  1.2660
 4261TIP3   OH234197   4.484   2.487  12.001 -0.6601  0.5549 -0.3127
 4261TIP3    H134198   4.544   2.560  11.988 -0.9304  0.8193 -0.0919
 4261TIP3    H234199   4.444   2.503  12.086 -0.6053  0.0627 -0.1942
 4262TIP3   OH234200   0.062   0.010  16.312 -0.2266 -0.3363  0.5280
 4262TIP3    H134201   0.026   0.057  16.237  0.2039  1.0420  1.1664
 4262TIP3    H234202  -0.012  -0.037  16.349 -1.1385  1.4886  1.0914
 4263TIP3   OH234203   3.614   5.139  14.017  0.2421 -0.3694  0.0244
 4263TIP3    H134204   3.707   5.120  14.024  0.3277  0.6149  2.1536
 4263TIP3    H234205   3.571   5.060  14.051  0.3189 -0.5299 -0.2508
 4264TIP3   OH234206   5.136   1.393   1.674  0.3164 -0.5174  0.5515
 4264TIP3    H134207   5.084   1.346   1.740 -0.0687 -2.1190 -0.8648
 4264TIP3    H234208   5.220   1.408   1.717 -0.4834 -0.0577  2.0085
 4265TIP3   OH234209   5.857   3.229  16.238 -1.1675  0.4817 -0.2633
 4265TIP3    H134210   5.871   3.172  16.162 -0.8004  0.3937 -0.1307
 4265TIP3    H234211   5.809   3.304  16.204  0.1385  1.0599 -0.8343
 4266TIP3   OH234212   2.815   5.002  15.031  0.2755 -0.9464  0.5795
 4266TIP3    H134213   2.909   5.022  15.036  0.4581 -1.2828 -1.4242
 4266TIP3    H234214   2.794   4.967  15.118  1.7242  0.3046  1.4701
 4267TIP3   OH234215   4.544   1.826   0.315 -0.1561  0.0767  0.4061
 4267TIP3    H134216   4.548   1.779   0.232 -3.2907 -0.2929  0.3947
 4267TIP3    H234217   4.614   1.891   0.310  0.1407 -0.4108 -2.2300
 4268TIP3   OH234218   4.259   2.921  14.746 -0.8705 -0.7135 -0.3622
 4268TIP3    H134219   4.185   2.980  14.735 -1.7428 -1.2954  2.0246
 4268TIP3    H234220   4.220   2.834  14.746  0.1120 -1.1648 -1.4125
 4269TIP3   OH234221   5.675   2.600  16.960 -0.1475  0.0130  0.0184
 4269TIP3    H134222   5.670   2.634  16.871  1.5456  0.3461  0.0417
 4269TIP3    H234223   5.676   2.505  16.949 -1.3826  0.0226 -0.2314
 4270TIP3   OH234224   2.948   6.574   5.926 -0.3850 -0.1731  0.1804
 4270TIP3    H134225   2.940   6.652   5.981  0.1369  0.6985 -0.9500
 4270TIP3    H234226   2.886   6.512   5.963 -1.6108  1.1772  0.4211
 4271TIP3   OH234227   0.830   5.425   0.880  0.3837 -0.0746  0.0699
 4271TIP3    H134228   0.744   5.447   0.844  1.1242  2.1232 -0.4427
 4271TIP3    H234229   0.868   5.364   0.817  0.4802  1.4812 -1.4316
 4272TIP3   OH234230   4.953   2.468   6.075  0.5661 -0.0604  0.0312
 4272TIP3    H134231   5.004   2.538   6.115  1.5160 -1.1006  0.6627
 4272TIP3    H234232   4.866   2.506   6.062  1.0501  1.2065  0.4321
 4273TIP3   OH234233   5.236   1.382  14.082 -0.5425 -0.3128 -0.0233
 4273TIP3    H134234   5.210   1.401  14.172  1.8612 -2.0034  1.0760
 4273TIP3    H234235   5.187   1.302  14.059 -1.9957  0.7270 -0.6512
 4274TIP3   OH234236   2.781   0.646  11.435  0.3833  0.0296 -0.6683
 4274TIP3    H134237   2.849   0.580  11.447  0.2524  0.2723  1.6455
 4274TIP3    H234238   2.699   0.602  11.456  0.1983  0.6558 -0.0387
 4275TIP3   OH234239   0.585   1.544   3.913  0.5888 -0.0145 -0.3933
 4275TIP3    H134240   0.667   1.494   3.916  1.1534  0.8191 -1.4317
 4275TIP3    H234241   0.575   1.580   4.001  0.9967 -0.6619 -0.0800
 4276TIP3   OH234242   3.561   1.342  16.029  1.0463 -0.5318 -0.1558
 4276TIP3    H134243   3.512   1.404  16.084  0.4014 -1.1937  0.0297
 4276TIP3    H234244   3.584   1.270  16.088  0.0961 -1.3841 -0.8097
 4277TIP3   OH234245   1.846   4.936   4.853  0.4115  0.1327  0.2533
 4277TIP3    H134246   1.863   4.842   4.844  1.6270  0.4451 -0.9172
 4277TIP3    H234247   1.871   4.957   4.943  0.1308 -0.6557  0.5212
 4278TIP3   OH234248   3.255   2.539   4.092  0.4232 -0.0146  0.1685
 4278TIP3    H134249   3.248   2.589   4.173  2.2214 -0.1973  0.4635
 4278TIP3    H234250   3.191   2.468   4.102 -0.3072  0.7289  0.8371
 4279TIP3   OH234251   6.198   2.918   5.533  0.1472 -0.5908  0.1926
 4279TIP3    H134252   6.109   2.929   5.566 -0.4411  2.5352 -2.1714
 4279TIP3    H234253   6.252   2.910   5.611 -1.7431  1.8491  1.8214
 4280TIP3   OH234254   3.730   3.857   5.663  0.0944  0.0950 -0.3570
 4280TIP3    H134255   3.715   3.912   5.740 -0.7850 -0.1224 -0.3669
 4280TIP3    H234256   3.698   3.770   5.690 -0.0938 -0.0111 -0.9188
 4281TIP3   OH234257   1.063   3.405  16.954  0.8291  0.5366  0.3793
 4281TIP3    H134258   1.138   3.364  16.999  0.0920 -0.8791  0.3322
 4281TIP3    H234259   1.005   3.332  16.932 -0.1979  1.5417 -0.2989
 4282TIP3   OH234260   4.339   4.491   1.843  0.1222  0.4237 -0.5731
 4282TIP3    H134261   4.371   4.525   1.759 -0.9378  0.8566 -0.8042
 4282TIP3    H234262   4.304   4.568   1.887  0.6959  0.1982  0.2821
 4283TIP3   OH234263   4.010   3.138   1.752  0.4539  0.0030  0.0145
 4283TIP3    H134264   4.044   3.212   1.702  0.3468 -0.1378 -0.2661
 4283TIP3    H234265   3.977   3.078   1.686  0.1768 -0.1148  0.2623
 4284TIP3   OH234266   6.070   0.990  12.788  0.2375  0.5539 -0.0509
 4284TIP3    H134267   6.137   0.963  12.850 -1.5936 -0.4302  1.5721
 4284TIP3    H234268   6.051   1.081  12.811  2.0505  1.3098 -1.4903
 4285TIP3   OH234269   3.474   2.190   5.334 -0.5528  0.6447  0.1972
 4285TIP3    H134270   3.544   2.228   5.388 -0.3675  2.7382 -1.4752
 4285TIP3    H234271   3.511   2.108   5.302  0.2096  0.5292  1.3156
 4286TIP3   OH234272   6.144   5.345  16.468  0.3310 -0.0982  0.2742
 4286TIP3    H134273   6.083   5.312  16.533  0.6820  0.0188  0.6657
 4286TIP3    H234274   6.141   5.281  16.397 -0.9830  0.4225 -0.1497
 4287TIP3   OH234275   6.576   0.490   6.350 -0.5461 -0.4539  0.2223
 4287TIP3    H134276   6.659   0.443   6.364 -0.4716 -0.3490  0.1318
 4287TIP3    H234277   6.510   0.432   6.387 -0.3405 -0.1486  1.0868
 4288TIP3   OH234278   4.763   5.897   3.601 -0.9037  0.3623  0.6735
 4288TIP3    H134279   4.728   5.814   3.635  2.3645 -1.5942 -0.5222
 4288TIP3    H234280   4.797   5.942   3.678 -0.7832 -0.3940  1.0714
 4289TIP3   OH234281   3.085   4.974   1.481  0.4565  0.0504  0.2147
 4289TIP3    H134282   3.118   5.051   1.434 -1.1324  1.1395  0.8164
 4289TIP3    H234283   2.992   4.993   1.496 -0.0107 -2.0930  0.1977
 4290TIP3   OH234284   0.153   6.548  17.022 -0.3567  0.3929  0.4056
 4290TIP3    H134285   0.077   6.504  16.984 -0.1532  1.0401 -0.7843
 4290TIP3    H234286   0.217   6.551  16.951  0.4428  0.6701  1.1308
 4291TIP3   OH234287   1.672   5.964   1.064  0.3058 -0.2283 -0.4068
 4291TIP3    H134288   1.581   5.987   1.082  0.4550 -0.4714  0.6997
 4291TIP3    H234289   1.683   5.879   1.106  1.1836  0.0416 -0.0796
 4292TIP3   OH234290   5.755   5.819   5.987  0.0480 -0.0454  0.0025
 4292TIP3    H134291   5.765   5.897   6.041 -1.8944 -0.9017  1.6736
 4292TIP3    H234292   5.821   5.758   6.019  1.7510  0.9855 -1.4895
 4293TIP3   OH234293   6.310   4.801   2.204  0.4891  0.2956 -0.5924
 4293TIP3    H134294   6.254   4.759   2.269  1.4191  0.2191  0.1656
 4293TIP3    H234295   6.390   4.749   2.203  0.9002  0.9189 -1.0383
 4294TIP3   OH234296   5.862   0.856  13.805  0.3729 -0.8044  0.3533
 4294TIP3    H134297   5.940   0.911  13.801 -0.0613 -0.1810  0.3410
 4294TIP3    H234298   5.822   0.864  13.719 -0.8490  0.5875  1.0301
 4295TIP3   OH234299   6.571   5.579   0.062 -0.6578 -0.1029  0.0279
 4295TIP3    H134300   6.538   5.507   0.009  0.6252 -0.5280 -0.2283
 4295TIP3    H234301   6.515   5.653   0.040 -1.3068 -0.7510 -0.5155
 4296TIP3   OH234302   1.274   3.486  13.066  0.1839  0.9387 -0.5105
 4296TIP3    H134303   1.201   3.504  13.126  0.4491 -0.6443  0.2950
 4296TIP3    H234304   1.352   3.512  13.115  0.5593 -2.1271  0.5911
 4297TIP3   OH234305   2.599   1.411   1.013  0.3470 -0.1957  0.0687
 4297TIP3    H134306   2.524   1.354   0.997 -0.1974  0.6452 -0.4404
 4297TIP3    H234307   2.561   1.492   1.047  1.1883 -0.4770  1.7279
 4298TIP3   OH234308   4.560   2.042  14.466  0.1419 -0.0611  0.0688
 4298TIP3    H134309   4.561   2.006  14.377 -0.1453  0.5622 -0.1906
 4298TIP3    H234310   4.645   2.085  14.475  0.0951  0.0399  0.0288
 4299TIP3   OH234311   6.703   4.735  15.410  0.0277 -0.1866  0.1562
 4299TIP3    H134312   6.736   4.692  15.331  1.7558  0.5958  0.4167
 4299TIP3    H234313   6.754   4.816  15.416 -2.5588  1.5077  0.1392
 4300TIP3   OH234314   1.305   0.335   1.046 -0.2816  0.4941  0.3952
 4300TIP3    H134315   1.315   0.410   0.988  1.2733  0.0841  0.1166
 4300TIP3    H234316   1.329   0.260   0.992  1.1224  0.1047  1.5389
 4301TIP3   OH234317   3.233   2.403  16.783 -0.2942 -0.3573 -0.6251
 4301TIP3    H134318   3.291   2.329  16.768 -0.3806 -0.2813 -1.3677
 4301TIP3    H234319   3.253   2.433  16.872 -0.5111 -1.4943 -0.1914
 4302TIP3   OH234320   0.719   2.716   1.944  0.4004 -0.1837 -0.9050
 4302TIP3    H134321   0.711   2.721   2.039  0.4968  4.3965 -1.0274
 4302TIP3    H234322   0.802   2.760   1.925  0.3403 -0.9583 -3.1221
 4303TIP3   OH234323   0.220   2.139   1.000  0.3325 -0.1744 -0.0669
 4303TIP3    H134324   0.253   2.216   0.954 -0.8668  0.3425 -0.0868
 4303TIP3    H234325   0.256   2.145   1.088 -3.5429  3.0084  1.4389
 4304TIP3   OH234326   5.363   2.540   0.585 -0.3943  0.0299 -0.3761
 4304TIP3    H134327   5.339   2.495   0.504 -1.3621 -2.3820  1.2124
 4304TIP3    H234328   5.459   2.543   0.583 -0.4215  1.6142 -2.4124
 4305TIP3   OH234329   1.853   4.161   3.119  0.5536  0.9643 -0.3379
 4305TIP3    H134330   1.846   4.138   3.211 -1.1656 -2.4516 -1.2156
 4305TIP3    H234331   1.772   4.206   3.098  0.2209  0.2637 -0.5576
 4306TIP3   OH234332   0.187   3.309  15.490 -0.2331 -0.2338  0.0986
 4306TIP3    H134333   0.248   3.273  15.426  1.5924  0.4365  1.4331
 4306TIP3    H234334   0.236   3.312  15.572 -2.2576 -0.2937  1.3741
 4307TIP3   OH234335   1.510   4.614   0.009  0.1092  0.4664 -0.5582
 4307TIP3    H134336   1.557   4.545  -0.037  0.5021 -0.2216  0.8391
 4307TIP3    H234337   1.527   4.596   0.102 -1.6082  1.1463 -0.1084
 4308TIP3   OH234338   5.564   3.564  17.111  0.2668  0.1673 -0.5572
 4308TIP3    H134339   5.548   3.470  17.123 -1.3682  0.2993 -1.5843
 4308TIP3    H234340   5.632   3.568  17.044  0.3440 -0.2954 -0.5103
 4309TIP3   OH234341   6.367   4.666   3.872 -0.1983  0.2539 -0.2587
 4309TIP3    H134342   6.410   4.737   3.920  0.9319 -0.0832 -0.7582
 4309TIP3    H234343   6.439   4.621   3.827 -0.8291 -1.5337  0.4683
 4310TIP3   OH234344   1.428   5.775   5.596 -0.6976 -0.2474 -0.0124
 4310TIP3    H134345   1.479   5.693   5.599 -0.7451 -0.2473  1.1259
 4310TIP3    H234346   1.337   5.746   5.597 -0.7199 -0.1847  1.0194
 4311TIP3   OH234347   1.365   0.270  10.811  0.7578 -0.2248  0.1904
 4311TIP3    H134348   1.356   0.364  10.800  0.1630 -0.3656 -0.5676
 4311TIP3    H234349   1.287   0.233  10.770  1.3821 -1.0840 -0.2599
 4312TIP3   OH234350   1.403   5.954   2.569  0.0843 -0.5154  0.0441
 4312TIP3    H134351   1.443   5.874   2.534  0.3837 -0.3359 -0.0232
 4312TIP3    H234352   1.309   5.938   2.564  0.1552 -1.2050  0.8166
 4313TIP3   OH234353   5.115   0.843   0.941  0.0892  0.0972  0.2171
 4313TIP3    H134354   5.200   0.857   0.983 -0.6620  1.6141  1.2785
 4313TIP3    H234355   5.100   0.749   0.949  1.7377 -0.2279 -0.1524
 4314TIP3   OH234356   1.740   3.224   2.315 -0.2056  0.9730 -0.4420
 4314TIP3    H134357   1.824   3.185   2.338 -0.4403 -0.0297 -1.2656
 4314TIP3    H234358   1.675   3.169   2.357 -0.4365  2.4888  1.2650
 4315TIP3   OH234359   2.507   5.457   5.488  0.5271 -0.8988  0.4371
 4315TIP3    H134360   2.565   5.532   5.473  1.0553 -1.1744  1.0535
 4315TIP3    H234361   2.521   5.435   5.580 -0.1721 -1.2997  0.4494
 4316TIP3   OH234362   0.076   2.917  14.228 -0.6754 -0.4165  0.0879
 4316TIP3    H134363  -0.007   2.909  14.180 -0.4932  0.9536 -0.4723
 4316TIP3    H234364   0.049   2.946  14.316 -1.0366 -3.2708  0.9739
 4317TIP3   OH234365   5.089   3.304   2.842 -0.1332  0.2692  0.1771
 4317TIP3    H134366   5.154   3.332   2.905  0.0447 -1.2484  0.6839
 4317TIP3    H234367   5.016   3.366   2.853  0.7733  1.3189  0.3387
 4318TIP3   OH234368   3.613   5.180  16.581  0.1182  0.5113 -0.1997
 4318TIP3    H134369   3.633   5.201  16.672  1.1960 -2.5177  0.2970
 4318TIP3    H234370   3.532   5.128  16.586  0.8994 -0.7779 -0.8307
 4319TIP3   OH234371   3.028   5.270   2.967  0.8625  0.1117  0.0883
 4319TIP3    H134372   3.007   5.240   3.055 -0.4152  1.3848  0.2321
 4319TIP3    H234373   3.052   5.362   2.978 -1.5513  0.9320 -1.1617
 4320TIP3   OH234374   2.603   1.063   0.911  0.1708  0.7720 -0.1645
 4320TIP3    H134375   2.603   1.117   0.832 -2.2838  0.5373 -0.3800
 4320TIP3    H234376   2.641   0.980   0.884  0.9019  1.2748 -0.6781
 4321TIP3   OH234377   0.537   1.459   2.985 -0.2299 -0.0329  0.8758
 4321TIP3    H134378   0.570   1.405   3.057 -0.2311  0.0776  0.9587
 4321TIP3    H234379   0.455   1.495   3.018 -0.2819 -0.0640  0.7810
 4322TIP3   OH234380   6.193   3.675  13.102 -0.6724  0.0363  0.1999
 4322TIP3    H134381   6.118   3.625  13.069  0.1591  0.0383 -1.7434
 4322TIP3    H234382   6.230   3.619  13.171 -0.5384 -1.4369 -1.0443
 4323TIP3   OH234383   2.788   6.358  13.520 -0.4960 -0.0391 -0.0485
 4323TIP3    H134384   2.797   6.339  13.613  0.8819 -2.0030 -0.5537
 4323TIP3    H234385   2.875   6.384  13.492 -0.6703 -0.4484 -0.9889
 4324TIP3   OH234386   5.919   3.815  14.179  0.6306 -0.1408 -0.3779
 4324TIP3    H134387   5.925   3.721  14.164 -3.2378 -0.6817  0.7804
 4324TIP3    H234388   5.942   3.826  14.272 -1.7544 -0.4245  0.3024
 4325TIP3   OH234389   2.866   6.761  10.798 -0.2280 -0.2822 -0.1880
 4325TIP3    H134390   2.890   6.818  10.725  0.8477  0.4998  0.7688
 4325TIP3    H234391   2.781   6.795  10.828 -0.5301 -0.4204 -0.8793
 4326TIP3   OH234392   1.793   5.332   2.615  0.2424  0.3218 -0.6307
 4326TIP3    H134393   1.867   5.285   2.655  0.2572  0.5082 -0.4404
 4326TIP3    H234394   1.822   5.423   2.610 -0.0472  0.4281 -0.3867
 4327TIP3   OH234395   0.095   6.753   3.823 -0.5186 -0.2637 -0.1733
 4327TIP3    H134396   0.152   6.755   3.901  0.0509  0.1892 -0.6000
 4327TIP3    H234397   0.052   6.838   3.822 -2.0860 -1.0123  0.7833
 4328TIP3   OH234398   2.604   6.055   5.069  0.1852 -0.2302  0.5066
 4328TIP3    H134399   2.695   6.065   5.042 -0.4461 -0.2031 -1.6744
 4328TIP3    H234400   2.575   6.144   5.089 -0.0283  0.0826 -1.0945
 4329TIP3   OH234401   5.219   5.530   0.311  0.0377 -0.4602 -0.2931
 4329TIP3    H134402   5.289   5.585   0.346  0.9655 -0.2805 -2.3346
 4329TIP3    H234403   5.256   5.442   0.310  1.0501 -0.0514 -3.3187
 4330TIP3   OH234404   3.039   3.609  14.029 -0.3060  0.1613 -0.0758
 4330TIP3    H134405   3.020   3.560  13.950 -0.8433 -2.5723  1.6947
 4330TIP3    H234406   3.127   3.582  14.054  0.0707  1.4088  0.0098
 4331TIP3   OH234407   5.609   3.414  15.755  0.2713  0.0698  0.2494
 4331TIP3    H134408   5.609   3.319  15.768  0.1278  0.1399  0.7823
 4331TIP3    H234409   5.528   3.431  15.707  2.2555 -0.5387 -3.4693
 4332TIP3   OH234410   3.789   1.245  15.881 -0.3495  0.1269 -0.0747
 4332TIP3    H134411   3.808   1.152  15.896  0.2735  0.2348 -0.1628
 4332TIP3    H234412   3.702   1.259  15.919  0.2533 -0.1089  1.3968
 4333TIP3   OH234413   5.486   0.168   3.563 -0.6718 -0.7804 -0.4212
 4333TIP3    H134414   5.531   0.247   3.533  0.9354 -1.7738 -0.6464
 4333TIP3    H234415   5.497   0.106   3.491  0.2446 -2.0449  0.8015
 4334TIP3   OH234416   6.673   2.912  16.645 -0.6064  0.0479 -0.0101
 4334TIP3    H134417   6.647   2.822  16.664 -0.6320 -0.0588 -0.5370
 4334TIP3    H234418   6.747   2.903  16.585  0.2055  0.3602  0.9438
 4335TIP3   OH234419   2.895   2.385  11.592 -0.3688 -0.5708  0.2625
 4335TIP3    H134420   2.931   2.308  11.548 -0.2374 -0.2893 -0.1249
 4335TIP3    H234421   2.890   2.452  11.524  2.8124  0.8759  1.3862
 4336TIP3   OH234422   4.339   4.658  13.734 -0.1458  0.3504 -0.6232
 4336TIP3    H134423   4.290   4.576  13.722 -1.0346  1.0626 -2.0613
 4336TIP3    H234424   4.280   4.713  13.785  0.3407  0.1980  0.1088
 4337TIP3   OH234425   1.783   1.282   1.820 -0.3711 -0.4882  0.0384
 4337TIP3    H134426   1.751   1.348   1.758  0.6128  1.2275  1.3079
 4337TIP3    H234427   1.773   1.199   1.774  0.0302  0.7156 -2.2829
 4338TIP3   OH234428   2.539   5.572   4.183  0.0811  0.5020 -0.6383
 4338TIP3    H134429   2.579   5.654   4.156  1.7455 -0.1572 -0.1999
 4338TIP3    H234430   2.603   5.530   4.240 -0.5063 -1.3570 -1.2805
 4339TIP3   OH234431   0.513   1.349  15.940 -0.3020 -0.3805 -0.0039
 4339TIP3    H134432   0.520   1.344  15.845  2.6511  0.0307  0.1384
 4339TIP3    H234433   0.471   1.434  15.957  0.3728  0.1444 -0.9210
 4340TIP3   OH234434   3.501   5.027  13.601 -0.0919 -0.4171 -0.2025
 4340TIP3    H134435   3.596   5.026  13.591  0.0163  1.1772  0.4779
 4340TIP3    H234436   3.482   5.116  13.633 -1.7495 -0.8895  0.1338
 4341TIP3   OH234437   6.783   0.461  14.170 -0.0345  0.4134 -0.1777
 4341TIP3    H134438   6.781   0.407  14.091  1.7810  1.5360 -1.0271
 4341TIP3    H234439   6.806   0.401  14.240  0.5541 -0.1788 -0.8749
 4342TIP3   OH234440   5.571   4.717  16.575 -0.3035  0.3224  0.1775
 4342TIP3    H134441   5.570   4.792  16.634  2.6727  1.1863 -0.7867
 4342TIP3    H234442   5.642   4.735  16.514 -1.7881 -1.6628 -2.2412
 4343TIP3   OH234443   3.873   3.812  14.500  0.0505 -0.5815 -0.1770
 4343TIP3    H134444   3.961   3.824  14.465 -0.7344  0.5996 -1.8618
 4343TIP3    H234445   3.862   3.884  14.562 -0.1671  0.0016 -0.8891
 4344TIP3   OH234446   1.616   5.650  14.372 -0.4531  0.4502 -0.2781
 4344TIP3    H134447   1.610   5.657  14.277  0.8861  2.9609 -0.2089
 4344TIP3    H234448   1.709   5.636  14.390 -0.5204  1.2230  0.7199
 4345TIP3   OH234449   1.025   6.702   6.151 -0.3675  0.3232 -0.4652
 4345TIP3    H134450   1.028   6.753   6.232 -0.0326 -1.3601  0.6200
 4345TIP3    H234451   1.111   6.660   6.146 -1.1047 -1.2051 -0.6169
 4346TIP3   OH234452   4.039   6.126  16.132  0.4105  0.3662 -0.1592
 4346TIP3    H134453   4.036   6.039  16.173  1.8152  0.8609  1.0355
 4346TIP3    H234454   4.130   6.155  16.144  0.7271  0.7468 -3.1905
 4347TIP3   OH234455   6.236   3.606  11.176 -0.2853 -0.4805 -0.1479
 4347TIP3    H134456   6.324   3.584  11.145 -0.1740  0.6460 -0.6299
 4347TIP3    H234457   6.222   3.697  11.149 -0.0908  0.6410  3.3269
 4348TIP3   OH234458   1.936   5.675  13.437 -0.3771  0.1795  0.1849
 4348TIP3    H134459   1.869   5.613  13.409 -0.0997  0.1897 -0.5112
 4348TIP3    H234460   1.938   5.741  13.368 -0.6340  0.9400  0.8962
 4349TIP3   OH234461   4.310   1.432  16.375  0.1607  0.1111  0.3229
 4349TIP3    H134462   4.253   1.456  16.302  0.8456  1.6711  0.3030
 4349TIP3    H234463   4.254   1.441  16.453  0.0039  0.3436  0.1819
 4350TIP3   OH234464   5.272   1.933  12.315 -0.3522 -0.4229  0.0964
 4350TIP3    H134465   5.362   1.929  12.282 -0.4533 -1.5743 -0.0610
 4350TIP3    H234466   5.232   1.851  12.285 -1.3268 -0.1168  0.5394
 4351TIP3   OH234467   5.834   5.544   1.554  0.7240  0.1811  0.0479
 4351TIP3    H134468   5.881   5.466   1.583 -0.2099 -0.7414 -0.8777
 4351TIP3    H234469   5.895   5.589   1.495  1.3573  0.2955  0.7829
 4352TIP3   OH234470   0.935   3.660  11.181  0.0755  0.4934  0.5198
 4352TIP3    H134471   0.923   3.581  11.234 -0.8949 -0.1085 -0.5692
 4352TIP3    H234472   0.977   3.628  11.101 -0.2646  1.0990  0.0976
 4353TIP3   OH234473   1.931   3.328   2.717  0.0410  0.6019  0.0599
 4353TIP3    H134474   1.938   3.345   2.811 -0.7843 -0.6855  0.3721
 4353TIP3    H234475   1.873   3.397   2.684  1.1576  1.6674  0.3076
 4354TIP3   OH234476   6.681   3.870  12.855 -0.2367  0.3662 -0.2892
 4354TIP3    H134477   6.645   3.915  12.779  1.4936 -0.9705 -1.9316
 4354TIP3    H234478   6.763   3.916  12.874 -0.0764 -0.0590  0.0600
 4355TIP3   OH234479   5.561   5.877   4.844  0.2229  0.2758 -0.6779
 4355TIP3    H134480   5.628   5.883   4.776 -1.6659  1.7048 -2.5047
 4355TIP3    H234481   5.480   5.859   4.796 -0.7396 -1.2995  1.4598
 4356TIP3   OH234482   3.517   5.046   2.264 -0.5189  0.0259  0.1918
 4356TIP3    H134483   3.435   5.060   2.217 -0.2226 -0.0946 -0.3762
 4356TIP3    H234484   3.510   4.958   2.300 -0.5765 -0.0407  0.0175
 4357TIP3   OH234485   4.877   1.503  12.760  0.2190  0.3412  0.3632
 4357TIP3    H134486   4.833   1.420  12.779  1.0512 -0.0716  0.4802
 4357TIP3    H234487   4.912   1.492  12.671 -1.1172  1.1891 -0.2949
 4358TIP3   OH234488   5.866   2.733   5.935 -0.0987  0.2908 -0.5744
 4358TIP3    H134489   5.943   2.768   5.981 -0.0032  0.3130 -0.7464
 4358TIP3    H234490   5.896   2.649   5.899 -1.1064 -1.2134  2.0363
 4359TIP3   OH234491   5.300   5.258  11.448  0.2068  0.0621 -0.1091
 4359TIP3    H134492   5.226   5.214  11.488 -0.8747 -0.5859 -2.6803
 4359TIP3    H234493   5.266   5.342  11.418  0.4227 -0.3221 -1.4819
 4360TIP3   OH234494   0.664   2.991   5.042  0.8773  0.4312  0.3731
 4360TIP3    H134495   0.597   2.930   5.073  0.3687  0.8454  0.0962
 4360TIP3    H234496   0.695   2.953   4.959 -1.2726  1.8560 -1.1314
 4361TIP3   OH234497   6.495   2.729   0.733 -0.0413 -0.5774 -0.1910
 4361TIP3    H134498   6.424   2.745   0.796 -0.5210 -0.7967 -0.6765
 4361TIP3    H234499   6.467   2.651   0.686 -0.0806  0.0733 -1.2563
 4362TIP3   OH234500   4.568   4.661  13.106  0.1328  0.2309  0.7079
 4362TIP3    H134501   4.638   4.696  13.160  0.3094  1.4411 -0.2969
 4362TIP3    H234502   4.538   4.583  13.153  2.8699 -0.9268  0.6081
 4363TIP3   OH234503   5.419   0.138   2.737 -0.2511 -0.4991 -0.3613
 4363TIP3    H134504   5.485   0.121   2.804 -1.4663 -2.5892  0.3740
 4363TIP3    H234505   5.451   0.092   2.660 -0.0627 -0.1829 -0.4694
 4364TIP3   OH234506   3.591   1.347   2.259 -0.3665 -0.2522 -0.4297
 4364TIP3    H134507   3.564   1.436   2.235  0.4804  0.1032 -0.0655
 4364TIP3    H234508   3.658   1.324   2.195  0.7185  0.0710  0.5711
 4365TIP3   OH234509   6.399   4.473  15.782  0.8041 -0.2942 -0.4110
 4365TIP3    H134510   6.325   4.523  15.816 -0.7533 -1.9184 -1.3035
 4365TIP3    H234511   6.451   4.536  15.732  0.4248  1.0101  0.8232
 4366TIP3   OH234512   6.392   0.882   4.656 -0.2794 -0.6312  0.3155
 4366TIP3    H134513   6.383   0.879   4.751 -0.5144 -1.1570  0.2778
 4366TIP3    H234514   6.391   0.790   4.629 -0.5053 -0.4715 -0.2195
 4367TIP3   OH234515   2.786   1.649   6.322  0.9464 -0.2436  0.2928
 4367TIP3    H134516   2.827   1.573   6.362 -1.3911  0.3629  4.0720
 4367TIP3    H234517   2.838   1.723   6.351  2.8591 -0.2543 -2.8943
 4368TIP3   OH234518   4.475   6.604   3.336  0.7825 -0.2421  0.3920
 4368TIP3    H134519   4.406   6.538   3.326  0.5166 -0.3041  2.3436
 4368TIP3    H234520   4.434   6.686   3.311  0.8915 -0.6930 -1.3325
 4369TIP3   OH234521   3.681   0.240  14.132  0.8914  0.0108 -0.2326
 4369TIP3    H134522   3.749   0.173  14.124 -0.5623 -1.6963  1.4853
 4369TIP3    H234523   3.724   0.321  14.103  3.7326 -0.9867  1.0640
 4370TIP3   OH234524   3.955   0.889  13.412 -0.3000 -0.6614  0.1571
 4370TIP3    H134525   4.050   0.898  13.423 -0.4278  1.6479 -0.4924
 4370TIP3    H234526   3.919   0.912  13.497 -0.2446 -3.0998  0.8948
 4371TIP3   OH234527   1.049   1.383   1.936  0.0563 -0.8888 -0.2576
 4371TIP3    H134528   1.055   1.356   2.027 -1.3429 -1.4967 -0.3316
 4371TIP3    H234529   1.038   1.478   1.940  1.5423 -0.7288  0.1354
 4372TIP3   OH234530   5.218   5.317  12.193 -0.3666  0.0580 -0.5773
 4372TIP3    H134531   5.263   5.289  12.273 -1.1786  1.2315  0.2971
 4372TIP3    H234532   5.142   5.259  12.186 -0.7022  0.4409 -0.0966
 4373TIP3   OH234533   6.457   0.056  13.025 -0.3793 -0.0428 -0.0826
 4373TIP3    H134534   6.413   0.016  13.100 -0.3049 -0.0449 -0.0387
 4373TIP3    H234535   6.391   0.112  12.985  0.1279  1.5322  1.1742
 4374TIP3   OH234536   1.579   0.449  12.234  0.4012 -0.1381 -0.4021
 4374TIP3    H134537   1.583   0.415  12.324  1.7397  0.2833 -0.2876
 4374TIP3    H234538   1.505   0.404  12.194  0.7647 -1.4924  0.4354
 4375TIP3   OH234539   0.450   4.573   3.845  0.1130 -0.7324 -0.0891
 4375TIP3    H134540   0.404   4.657   3.845 -1.6372 -1.6476  0.2432
 4375TIP3    H234541   0.507   4.576   3.922  1.4795  0.8896 -1.1649
 4376TIP3   OH234542   2.659   5.656   5.770  0.0599 -0.6033  0.2809
 4376TIP3    H134543   2.615   5.710   5.836 -0.9681 -3.4357  1.9942
 4376TIP3    H234544   2.588   5.606   5.729  0.5223  1.8413 -3.8226
 4377TIP3   OH234545   0.119   0.835  11.968 -0.9210  0.1452  0.0949
 4377TIP3    H134546   0.126   0.929  11.983 -0.6476  0.4744 -1.8724
 4377TIP3    H234547   0.210   0.806  11.960 -1.0389  0.0649 -1.1351
 4378TIP3   OH234548   3.374   1.965  12.018  0.8418  0.8148  0.3330
 4378TIP3    H134549   3.444   1.910  12.054  0.2034 -0.2928 -0.0860
 4378TIP3    H234550   3.405   1.989  11.931  0.5388 -0.0239 -0.0188
 4379TIP3   OH234551   1.307   5.746  15.776 -0.1333  0.4762 -0.2032
 4379TIP3    H134552   1.237   5.811  15.776  0.3582  1.0193 -0.5840
 4379TIP3    H234553   1.315   5.720  15.684  0.7169  1.0276 -0.2894
 4380TIP3   OH234554   4.402   1.422   1.191 -0.0191  0.4177 -0.9252
 4380TIP3    H134555   4.368   1.368   1.263  0.1019 -0.2780 -1.3847
 4380TIP3    H234556   4.360   1.507   1.204 -0.4962  0.1131 -0.4005
 4381TIP3   OH234557   2.895   6.455  11.958  0.8383  0.1088 -0.5724
 4381TIP3    H134558   2.925   6.516  12.025  2.1637 -0.7843 -0.3443
 4381TIP3    H234559   2.800   6.470  11.952  0.6176 -0.1436  1.8260
 4382TIP3   OH234560   0.703   6.491   6.165 -0.0052  0.0816  0.5109
 4382TIP3    H134561   0.750   6.411   6.184  0.3985  0.0418 -0.5839
 4382TIP3    H234562   0.709   6.543   6.245  1.4148 -0.1566  0.5654
 4383TIP3   OH234563   5.305   5.717  16.588  0.0255 -0.0837 -0.6226
 4383TIP3    H134564   5.324   5.629  16.557  1.5105 -0.6005  1.5951
 4383TIP3    H234565   5.374   5.771  16.549  1.5586 -0.6346  1.2447
 4384TIP3   OH234566   3.865   0.045  14.826 -0.6534  0.5209  0.1873
 4384TIP3    H134567   3.903   0.011  14.745 -0.4013  1.0733  0.0650
 4384TIP3    H234568   3.938   0.046  14.888 -1.0716 -0.7888  0.7042
 4385TIP3   OH234569   1.246   0.533   4.979 -0.1754 -0.4018  0.4601
 4385TIP3    H134570   1.237   0.444   4.944  2.8290 -0.4742 -0.2749
 4385TIP3    H234571   1.335   0.536   5.014  0.0402  2.5458 -0.2170
 4386TIP3   OH234572   2.644   6.553   1.540  0.4385 -0.2701 -0.1492
 4386TIP3    H134573   2.580   6.563   1.470 -2.7025 -2.2059  2.2572
 4386TIP3    H234574   2.653   6.641   1.577 -2.1780 -0.2064  0.4835
 4387TIP3   OH234575   1.152   0.389  11.862  0.3180  0.3032 -0.0380
 4387TIP3    H134576   1.092   0.350  11.799  0.4006  0.6126 -0.3120
 4387TIP3    H234577   1.215   0.438  11.809  0.0702  1.0076  0.2992
 4388TIP3   OH234578   1.558   1.201   2.347  0.5356 -0.3460  0.4681
 4388TIP3    H134579   1.473   1.239   2.366  0.4170 -0.7234  0.6840
 4388TIP3    H234580   1.571   1.134   2.414  1.5052  0.4966  1.1339
 4389TIP3   OH234581   0.196   4.418   3.805 -0.3750 -0.1281 -0.2839
 4389TIP3    H134582   0.153   4.375   3.878  0.6850 -1.8187 -0.6417
 4389TIP3    H234583   0.278   4.450   3.841 -0.2528 -0.1772 -0.5177
 4390TIP3   OH234584   3.281   0.187  16.007  0.2243  0.4058  0.3262
 4390TIP3    H134585   3.333   0.247  16.061  0.0574 -0.7588  1.8195
 4390TIP3    H234586   3.316   0.198  15.918  0.8807  1.9525  0.7580
 4391TIP3   OH234587   2.680   0.398   4.493  0.2216  0.2317  0.3871
 4391TIP3    H134588   2.693   0.463   4.562  1.9482  0.6235 -0.2808
 4391TIP3    H234589   2.634   0.446   4.424  1.5247  0.7735 -0.1198
 4392TIP3   OH234590   1.984   3.457  11.527 -0.0554 -0.0188  0.2569
 4392TIP3    H134591   2.043   3.529  11.504 -0.4800 -0.2097 -1.5571
 4392TIP3    H234592   1.896   3.495  11.523 -0.3975 -0.9710 -2.2771
 4393TIP3   OH234593   4.110   2.763  14.485  0.2697 -0.2397  0.0083
 4393TIP3    H134594   4.134   2.845  14.441  0.1894  0.4439  1.2222
 4393TIP3    H234595   4.027   2.783  14.529 -0.0394 -1.1480 -0.1581
 4394TIP3   OH234596   1.239   3.817   2.712 -0.5416  0.5163  0.2252
 4394TIP3    H134597   1.146   3.821   2.737 -1.0312  3.6299 -1.8160
 4394TIP3    H234598   1.285   3.809   2.796 -2.5976  0.0880  1.3618
 4395TIP3   OH234599   1.198   2.620   1.970 -0.3988  0.0839 -0.4034
 4395TIP3    H134600   1.160   2.583   1.890  0.1975  2.4246 -1.8165
 4395TIP3    H234601   1.288   2.587   1.971 -0.0157  1.0812 -1.3923
 4396TIP3   OH234602   4.526   1.371  11.966 -0.4593 -0.2174  0.3862
 4396TIP3    H134603   4.476   1.451  11.979 -0.4385 -0.0651 -0.4697
 4396TIP3    H234604   4.531   1.332  12.053  0.2965  1.1591  0.9748
 4397TIP3   OH234605   0.134   1.089   4.815  0.0907 -0.3633 -0.2706
 4397TIP3    H134606   0.222   1.118   4.840  0.3877  0.5854 -2.3277
 4397TIP3    H234607   0.148   1.000   4.781  0.0763 -0.6230  0.3829
 4398TIP3   OH234608   4.847   1.895  14.126  0.6477  0.0092  0.1490
 4398TIP3    H134609   4.783   1.888  14.056 -0.8481 -0.0188  1.4837
 4398TIP3    H234610   4.812   1.839  14.196  1.1348  1.5079  1.6188
 4399TIP3   OH234611   4.448   5.697   6.285  0.1523  0.5503  0.4579
 4399TIP3    H134612   4.407   5.782   6.268  0.2869  0.7499  1.1186
 4399TIP3    H234613   4.392   5.657   6.352 -0.4798 -0.3033 -0.5645
 4400TIP3   OH234614   0.323   3.421   4.309 -0.5297 -0.5770  0.1845
 4400TIP3    H134615   0.417   3.405   4.308 -0.8646 -2.6972  0.6468
 4400TIP3    H234616   0.284   3.334   4.319 -2.5021  0.4222  1.3895
 4401TIP3   OH234617   3.773   4.101  13.637  0.1672  0.3337  0.3780
 4401TIP3    H134618   3.778   4.187  13.680  2.1836  0.1631  0.5340
 4401TIP3    H234619   3.781   4.121  13.544 -1.8116  0.4918  0.2091
 4402TIP3   OH234620   1.718   6.680   2.488 -0.1563  0.3981 -0.1027
 4402TIP3    H134621   1.771   6.760   2.495  1.1666 -0.3386 -1.3582
 4402TIP3    H234622   1.755   6.621   2.554 -1.6002  1.0409  1.3302
 4403TIP3   OH234623   6.265   5.205   6.228  0.1721  0.0178  0.3527
 4403TIP3    H134624   6.282   5.134   6.289  0.1339 -0.1029  0.2213
 4403TIP3    H234625   6.338   5.266   6.241 -0.6814  0.7811  1.6670
 4404TIP3   OH234626   0.766   5.485  17.216 -0.3617 -0.3278 -0.3861
 4404TIP3    H134627   0.801   5.457  17.301 -0.3167  2.7908  0.7180
 4404TIP3    H234628   0.673   5.502  17.233 -0.8136 -1.6542 -1.4897
 4405TIP3   OH234629   0.955   3.740   4.943 -0.3831 -0.0460 -0.3085
 4405TIP3    H134630   0.922   3.731   5.033  1.6148  0.0622  0.4508
 4405TIP3    H234631   0.947   3.653   4.906 -1.5262 -0.0216 -0.1600
 4406TIP3   OH234632   5.710   0.992  14.625 -0.1828 -0.2239  0.5396
 4406TIP3    H134633   5.759   0.926  14.675  3.2274  2.3938  0.8648
 4406TIP3    H234634   5.769   1.068  14.622 -1.8282  1.0208 -4.2487
 4407TIP3   OH234635   3.439   6.124   0.462 -0.0620 -0.0791  0.4528
 4407TIP3    H134636   3.448   6.216   0.485 -0.5901  0.1362 -0.1917
 4407TIP3    H234637   3.527   6.096   0.437 -0.0683  0.4857 -0.2043
 4408TIP3   OH234638   2.853   3.764   4.017  0.1689  0.1154  0.3307
 4408TIP3    H134639   2.883   3.854   4.011  1.4732 -0.4572 -2.1761
 4408TIP3    H234640   2.932   3.713   4.033 -0.5644 -0.6181  1.7750
 4409TIP3   OH234641   2.584   5.424   1.956 -0.4568  0.0291 -0.2597
 4409TIP3    H134642   2.535   5.486   1.902 -0.2148  1.4256  1.0886
 4409TIP3    H234643   2.554   5.441   2.046  1.0011 -0.4888  0.3464
 4410TIP3   OH234644   3.039   3.870  16.900  0.2239  0.1467  0.7538
 4410TIP3    H134645   2.975   3.896  16.834 -1.3549 -1.5942  1.5517
 4410TIP3    H234646   3.050   3.948  16.954 -0.5987  0.7304  0.1042
 4411TIP3   OH234647   5.634   2.294  10.561 -0.6723  0.2193 -0.2949
 4411TIP3    H134648   5.708   2.247  10.523  1.1836  2.3096  0.6064
 4411TIP3    H234649   5.557   2.257  10.518  0.7855 -2.7172 -0.5158
 4412TIP3   OH234650   3.583   6.279   0.126 -0.1352  0.2904 -0.5137
 4412TIP3    H134651   3.539   6.358   0.094 -0.1545  1.2839  1.8593
 4412TIP3    H234652   3.521   6.240   0.188  0.7610 -0.3787 -0.0195
 4413TIP3   OH234653   2.563   2.319   3.014  0.2482  0.2606  0.1347
 4413TIP3    H134654   2.564   2.321   2.919  4.1101 -1.7558  0.0023
 4413TIP3    H234655   2.606   2.401   3.040  0.8470 -0.0305  0.0711
 4414TIP3   OH234656   6.160   1.044   5.039  0.6579 -0.2135  0.0249
 4414TIP3    H134657   6.113   1.105   5.095 -1.0273 -0.5826 -0.9465
 4414TIP3    H234658   6.151   1.080   4.951  0.9026 -1.0889 -0.3640
 4415TIP3   OH234659   5.122   4.477  10.622 -0.6589  0.5467 -0.4720
 4415TIP3    H134660   5.139   4.399  10.570  0.0029  1.3186 -1.4401
 4415TIP3    H234661   5.127   4.549  10.559  1.1159  1.5908  0.8431
 4416TIP3   OH234662   5.154   3.262  13.821 -0.1391  0.2579  0.6392
 4416TIP3    H134663   5.218   3.255  13.750 -0.5998  0.4081  0.2124
 4416TIP3    H234664   5.081   3.207  13.794  0.2506 -0.7526  1.6148
 4417TIP3   OH234665   3.616   4.949  10.521  0.1728  0.7057  0.3013
 4417TIP3    H134666   3.565   5.027  10.497 -0.1699  0.4810  0.2934
 4417TIP3    H234667   3.593   4.933  10.612 -0.5458  0.0141  0.0029
 4418TIP3   OH234668   5.653   0.987  12.496 -0.2989 -0.4924 -0.0997
 4418TIP3    H134669   5.630   1.076  12.467  1.1045  0.3609  1.3439
 4418TIP3    H234670   5.589   0.931  12.452 -0.3342  1.0876 -2.1507
 4419TIP3   OH234671   3.174   0.973   3.072 -0.0285  0.8344 -0.3698
 4419TIP3    H134672   3.120   1.051   3.059  0.3023  1.1656  0.2099
 4419TIP3    H234673   3.145   0.912   3.005 -0.1701  1.5230 -0.9390
 4420TIP3   OH234674   3.078   6.201  11.847  0.2545  0.1892 -0.1946
 4420TIP3    H134675   3.067   6.273  11.785  0.6937 -0.0788 -0.5909
 4420TIP3    H234676   3.108   6.244  11.928  0.5886  0.4498 -0.4511
 4421TIP3   OH234677   3.947   3.821  12.628  0.3664  0.5256  0.4352
 4421TIP3    H134678   3.885   3.754  12.656  0.7287 -0.7765 -1.7825
 4421TIP3    H234679   4.008   3.830  12.701 -0.2417 -0.8830  1.1322
 4422TIP3   OH234680   1.689   0.154   5.957  0.2813 -0.0189 -0.5168
 4422TIP3    H134681   1.717   0.219   5.892  0.1387 -0.3235 -0.8856
 4422TIP3    H234682   1.742   0.173   6.034 -1.0280  1.6901 -0.0064
 4423TIP3   OH234683   1.914   3.324   5.539 -0.1309 -0.6432 -0.0594
 4423TIP3    H134684   1.842   3.307   5.600 -0.6750 -0.4713 -0.6441
 4423TIP3    H234685   1.981   3.368   5.592 -2.0124  2.7017 -0.3476
 4424TIP3   OH234686   6.279   3.001   3.795  0.2753  0.1895 -0.4562
 4424TIP3    H134687   6.339   2.942   3.841 -0.3990  0.9558  1.4568
 4424TIP3    H234688   6.218   3.030   3.862 -1.0796  0.9337 -1.9653
 4425TIP3   OH234689   3.605   4.996  15.416  0.1325  0.2732 -0.2293
 4425TIP3    H134690   3.655   4.959  15.343  0.6728  0.7358 -0.1023
 4425TIP3    H234691   3.514   4.990  15.388  0.2766 -0.3521 -0.5727
 4426TIP3   OH234692   5.981   2.707   2.503  0.3497  0.0316  0.4118
 4426TIP3    H134693   5.936   2.743   2.427  1.1881  1.0344  0.3766
 4426TIP3    H234694   6.066   2.678   2.468  0.5524  0.0741  0.8695
 4427TIP3   OH234695   3.057   6.533  10.807  0.0598  0.0680 -0.0275
 4427TIP3    H134696   3.098   6.517  10.723 -0.5254  0.1078 -0.3243
 4427TIP3    H234697   3.002   6.610  10.793 -1.6971 -1.1857 -0.2062
 4428TIP3   OH234698   1.659   5.306   5.306 -0.1024  0.0418 -0.0878
 4428TIP3    H134699   1.729   5.351   5.259 -1.2795  0.5987 -1.3219
 4428TIP3    H234700   1.679   5.321   5.399  1.1508  0.5840 -0.4375
 4429TIP3   OH234701   4.833   5.504  10.917 -0.4544 -0.6045  0.0767
 4429TIP3    H134702   4.782   5.465  10.846 -0.5232 -0.2664 -0.0588
 4429TIP3    H234703   4.784   5.484  10.996  0.0360 -1.6832  0.1162
 4430TIP3   OH234704   5.215   4.383   1.431  0.0586 -0.0093  0.1801
 4430TIP3    H134705   5.305   4.400   1.402  0.0650  1.4368  0.9433
 4430TIP3    H234706   5.162   4.444   1.380 -0.3137  0.1651  0.7745
 4431TIP3   OH234707   3.388   3.672   1.260  0.0261 -0.2474 -0.1019
 4431TIP3    H134708   3.407   3.619   1.182 -2.2215 -1.4265  0.0909
 4431TIP3    H234709   3.337   3.613   1.316  0.5338  1.0069  1.7047
 4432TIP3   OH234710   1.708   6.536   4.502  0.3265 -0.1429  0.9787
 4432TIP3    H134711   1.633   6.558   4.558  0.4392 -0.7509  1.3683
 4432TIP3    H234712   1.766   6.612   4.510 -0.8422  0.9213 -0.3649
 4433TIP3   OH234713   5.244   0.654  16.403  1.1045  0.8592  0.0883
 4433TIP3    H134714   5.190   0.658  16.324 -0.1932 -0.7401  0.8319
 4433TIP3    H234715   5.270   0.744  16.420 -2.3991  1.9047  0.3668
 4434TIP3   OH234716   3.416   0.027   3.215 -0.1621  0.1526  0.2124
 4434TIP3    H134717   3.413   0.123   3.219 -0.8446  0.1299  0.2824
 4434TIP3    H234718   3.427  -0.000   3.306 -0.2030  0.1540  0.2177
 4435TIP3   OH234719   1.371   0.836   5.933  0.7005  0.0972 -0.0961
 4435TIP3    H134720   1.339   0.856   6.021  1.8012 -0.8211  0.5279
 4435TIP3    H234721   1.380   0.921   5.891  0.6346  0.5801  0.8502
 4436TIP3   OH234722   4.497   6.246  14.576 -0.1891  0.4287  0.1429
 4436TIP3    H134723   4.445   6.167  14.563 -0.9653  0.7843  1.0438
 4436TIP3    H234724   4.498   6.259  14.671 -0.8867  2.0493 -0.0484
 4437TIP3   OH234725   4.393   3.036   1.258  0.3243  0.2201  0.2155
 4437TIP3    H134726   4.404   3.127   1.231 -0.6448 -0.0778 -1.2836
 4437TIP3    H234727   4.357   3.041   1.346  3.0391  1.2441  1.3020
 4438TIP3   OH234728   1.764   3.959   3.651 -0.2446 -0.4306 -0.4163
 4438TIP3    H134729   1.771   4.050   3.677 -1.0723 -0.7407  0.9581
 4438TIP3    H234730   1.675   3.933   3.678 -0.1433 -1.5349 -1.1047
 4439TIP3   OH234731   1.191   5.363   1.121 -0.2040 -0.3482  0.1660
 4439TIP3    H134732   1.190   5.403   1.035 -0.3882 -0.7285 -0.0117
 4439TIP3    H234733   1.106   5.319   1.128 -0.6826  0.7010  1.0276
 4440TIP3   OH234734   3.628   0.276   2.878 -0.7584  0.4217 -0.1569
 4440TIP3    H134735   3.555   0.334   2.901 -0.1525  1.0046  0.3077
 4440TIP3    H234736   3.706   0.327   2.898 -0.2192 -0.3334 -0.3284
 4441TIP3   OH234737   4.492   0.857  14.170  0.0195 -0.5762 -0.5508
 4441TIP3    H134738   4.509   0.776  14.122 -0.1725 -0.6146 -0.5520
 4441TIP3    H234739   4.399   0.853  14.192  0.1722 -0.6944  0.0753
 4442TIP3   OH234740   5.865   5.023   4.242  0.0815 -0.2918  0.5494
 4442TIP3    H134741   5.847   4.966   4.317 -0.3521  1.7687  2.0695
 4442TIP3    H234742   5.953   5.057   4.258  1.7978 -3.2742 -2.2021
 4443TIP3   OH234743   2.441   6.328  14.482  0.5521 -0.1608  0.4673
 4443TIP3    H134744   2.488   6.245  14.471 -0.7756 -0.8445 -0.2269
 4443TIP3    H234745   2.474   6.384  14.412  0.8469 -0.3927  0.4196
 4444TIP3   OH234746   0.568   4.949  14.543  0.3448  0.3005 -0.2236
 4444TIP3    H134747   0.615   4.968  14.462 -1.9077  3.9637 -0.7531
 4444TIP3    H234748   0.583   5.025  14.598 -3.0364  0.5536  0.4487
 4445TIP3   OH234749   0.135   5.533  17.127 -0.2651  0.5283  0.0792
 4445TIP3    H134750   0.143   5.549  17.033  0.6467 -0.9617 -0.1047
 4445TIP3    H234751   0.054   5.483  17.136  1.2696 -2.0873 -0.2770
 4446TIP3   OH234752   0.753   3.835   5.478 -0.2051 -0.4329 -0.1203
 4446TIP3    H134753   0.767   3.784   5.558 -1.3249 -0.8149 -0.1634
 4446TIP3    H234754   0.698   3.908   5.505  0.0358 -0.1494 -0.3944
 4447TIP3   OH234755   3.644   3.674   5.290 -0.3875 -0.0964 -0.0802
 4447TIP3    H134756   3.723   3.660   5.343 -0.3771  0.2655  0.0031
 4447TIP3    H234757   3.649   3.766   5.264 -0.8831 -0.0225  0.0872
 4448TIP3   OH234758   0.230   0.381  14.597 -0.6273  0.6041 -0.7350
 4448TIP3    H134759   0.169   0.449  14.627 -1.7212 -0.2186 -1.0746
 4448TIP3    H234760   0.176   0.320  14.548  0.4801 -0.1447 -1.0426
 4449TIP3   OH234761   4.362   5.542   0.153  0.0768  0.7778  0.3171
 4449TIP3    H134762   4.444   5.535   0.201 -0.2542  0.7670  0.9001
 4449TIP3    H234763   4.367   5.626   0.108  0.0555  1.1777  1.0456
 4450TIP3   OH234764   3.028   2.765   1.200 -0.0212 -0.0946 -0.0796
 4450TIP3    H134765   3.041   2.776   1.106  0.3376  1.7409  0.1643
 4450TIP3    H234766   2.936   2.787   1.213  0.4107  1.5679  0.2547
 4451TIP3   OH234767   3.558   1.378  16.644 -0.2297  0.1558  0.0063
 4451TIP3    H134768   3.639   1.383  16.694  0.4211 -2.6260 -0.6452
 4451TIP3    H234769   3.500   1.325  16.697 -0.9308  0.4968 -0.4128
 4452TIP3   OH234770   3.395   6.064   1.915 -0.0230  0.3898 -0.3405
 4452TIP3    H134771   3.481   6.065   1.956  0.0069 -0.5465 -0.3678
 4452TIP3    H234772   3.335   6.094   1.983  0.2796  0.7382 -0.2262
 4453TIP3   OH234773   2.892   1.566   0.664  0.4115  0.1246 -0.2519
 4453TIP3    H134774   2.950   1.586   0.591 -0.2867 -0.5243 -0.9875
 4453TIP3    H234775   2.807   1.600   0.639  0.2094  0.0764  0.3429
 4454TIP3   OH234776   0.025   0.229   4.653 -0.4425  0.6562 -0.0293
 4454TIP3    H134777   0.096   0.177   4.616 -1.0734  0.3310 -0.7903
 4454TIP3    H234778   0.007   0.188   4.738  1.0532  1.4453  0.6985
 4455TIP3   OH234779   1.710   0.229  15.293  0.4769  0.2151  0.1196
 4455TIP3    H134780   1.662   0.310  15.274  1.1106  0.5659  0.0078
 4455TIP3    H234781   1.762   0.250  15.371 -0.6831 -0.6323  1.1382
 4456TIP3   OH234782   5.403   5.841   2.017  0.0450  0.1158  0.1627
 4456TIP3    H134783   5.484   5.854   2.065  0.0192  0.5778  0.0832
 4456TIP3    H234784   5.427   5.784   1.944  0.3385  0.4191  0.0231
 4457TIP3   OH234785   1.075   6.714  15.423 -0.3464  0.6426  0.2239
 4457TIP3    H134786   1.103   6.806  15.421  0.3445  0.4801  1.9598
 4457TIP3    H234787   1.089   6.686  15.513 -2.8928 -0.4550  0.3349
 4458TIP3   OH234788   2.554   4.269   2.969 -0.0295  0.3973 -0.2034
 4458TIP3    H134789   2.520   4.237   3.052  0.6381  0.5811  0.1492
 4458TIP3    H234790   2.477   4.284   2.915 -0.4593  0.1488  0.3407
 4459TIP3   OH234791   0.586   1.665   3.168  0.0762 -0.2933 -0.6607
 4459TIP3    H134792   0.649   1.646   3.238  0.7496  0.4086 -1.0620
 4459TIP3    H234793   0.529   1.589   3.165  1.2096 -1.1502 -0.6078
 4460TIP3   OH234794   6.188   4.294  16.719  0.0048  0.4900 -0.2652
 4460TIP3    H134795   6.143   4.356  16.662  2.6578  1.3001 -1.5722
 4460TIP3    H234796   6.209   4.344  16.797  0.2502  0.6375 -0.4261
 4461TIP3   OH234797   0.477   1.702  15.161 -0.3932 -0.0806  0.2484
 4461TIP3    H134798   0.545   1.718  15.227  0.8213 -0.3384 -0.9176
 4461TIP3    H234799   0.464   1.607  15.162 -0.4608 -0.0716  0.2053
 4462TIP3   OH234800   3.109   1.523  11.643  0.4841 -0.0020  0.2058
 4462TIP3    H134801   3.103   1.570  11.560 -0.4689  1.9787  1.3644
 4462TIP3    H234802   3.021   1.489  11.658  0.9551 -1.4343 -0.1874
 4463TIP3   OH234803   4.307   6.403  14.194 -0.0477  0.2634 -0.4260
 4463TIP3    H134804   4.314   6.473  14.259  0.2006  0.0231 -0.1940
 4463TIP3    H234805   4.231   6.351  14.223  0.2593 -0.0313 -0.1437
 4464TIP3   OH234806   3.940   1.264   5.291 -0.0286 -0.3533 -0.2153
 4464TIP3    H134807   3.913   1.201   5.225  0.0788 -2.3451  1.5768
 4464TIP3    H234808   3.859   1.302   5.324 -0.2176 -0.9413  0.0031
 4465TIP3   OH234809   3.112   1.477   4.593  1.1193  0.2233 -0.0212
 4465TIP3    H134810   3.032   1.458   4.641 -0.5383 -0.2611 -2.8142
 4465TIP3    H234811   3.153   1.392   4.579  0.2325  0.0330 -1.6481
 4466TIP3   OH234812   4.732   4.888   0.842 -0.5079 -0.1116  0.2861
 4466TIP3    H134813   4.806   4.828   0.850 -0.5051 -0.2579 -0.7943
 4466TIP3    H234814   4.658   4.832   0.821 -0.5117  0.2515 -0.6875
 4467TIP3   OH234815   6.531   2.938  15.425 -0.3385 -0.3010  0.0552
 4467TIP3    H134816   6.625   2.929  15.408  0.2274 -0.3123  2.9801
 4467TIP3    H234817   6.502   2.849  15.446 -0.8536 -0.1874 -0.1689
 4468TIP3   OH234818   5.263   2.797  15.866  0.2269 -0.1781  0.6332
 4468TIP3    H134819   5.189   2.828  15.918 -0.2743 -2.4184  1.3453
 4468TIP3    H234820   5.271   2.860  15.795 -0.8957  1.3617  1.8331
 4469TIP3   OH234821   5.723   3.737   4.477  0.6036 -0.2285  0.0176
 4469TIP3    H134822   5.698   3.715   4.387 -0.3292 -0.4371  0.3143
 4469TIP3    H234823   5.708   3.657   4.527  0.4961  0.0711  0.4730
 4470TIP3   OH234824   5.074   5.758   1.750  0.2588 -0.1607 -0.5036
 4470TIP3    H134825   5.035   5.845   1.746 -0.8626 -0.5355  1.7394
 4470TIP3    H234826   5.144   5.760   1.685  1.0355  2.7782  0.3845
 4471TIP3   OH234827   0.708   1.284   2.113  0.6596  0.6321  0.1413
 4471TIP3    H134828   0.760   1.336   2.175  0.4543  2.0462 -0.8546
 4471TIP3    H234829   0.765   1.212   2.089  1.9344  1.8255 -0.4601
 4472TIP3   OH234830   0.787   3.206   5.992  0.0389  0.7035 -0.7300
 4472TIP3    H134831   0.695   3.222   6.010 -0.9555 -2.3755 -2.7004
 4472TIP3    H234832   0.825   3.184   6.077 -1.4473  0.1713 -0.1913
 4473TIP3   OH234833   2.231   1.797  14.731  0.4611  0.4653  0.2548
 4473TIP3    H134834   2.297   1.867  14.737 -0.3422  1.2525  0.1293
 4473TIP3    H234835   2.226   1.777  14.637 -0.7803  1.7158  0.0203
 4474TIP3   OH234836   6.462   5.238  12.608  0.3260 -0.4836 -0.2463
 4474TIP3    H134837   6.456   5.272  12.697 -0.4472  0.3189 -0.6039
 4474TIP3    H234838   6.378   5.258  12.568  1.0094  0.0474 -1.4734
 4475TIP3   OH234839   2.984   4.171   0.315  0.2940 -0.2649 -0.1369
 4475TIP3    H134840   3.048   4.112   0.353  1.0732  0.5992 -0.0860
 4475TIP3    H234841   2.943   4.214   0.390  0.7263  0.2959 -0.2228
 4476TIP3   OH234842   4.566   6.678   4.169 -0.0763 -0.5296  0.4107
 4476TIP3    H134843   4.540   6.639   4.086  1.5335 -1.5574  0.3673
 4476TIP3    H234844   4.569   6.772   4.152 -0.4539 -0.6796 -0.4855
 4477TIP3   OH234845   6.331   4.664   5.737  0.6010 -0.1509  0.7648
 4477TIP3    H134846   6.394   4.628   5.675  0.3542 -0.5631  0.7526
 4477TIP3    H234847   6.355   4.756   5.745 -0.8499  0.5271 -1.8187
 4478TIP3   OH234848   6.548   4.213   2.352 -0.2248 -0.5332 -0.0385
 4478TIP3    H134849   6.504   4.261   2.422  0.0887 -0.1627 -0.0883
 4478TIP3    H234850   6.495   4.135   2.339 -1.0463  0.0571 -0.3118
 4479TIP3   OH234851   6.392   5.792  16.909 -0.1478  0.2518  0.2851
 4479TIP3    H134852   6.453   5.857  16.946  0.1554  0.7930 -1.1434
 4479TIP3    H234853   6.389   5.723  16.975  0.5416  1.1062  1.2426
 4480TIP3   OH234854   1.726   0.240  11.144  0.3264  0.0137  0.4707
 4480TIP3    H134855   1.803   0.250  11.088  1.6611  1.2822  2.4789
 4480TIP3    H234856   1.717   0.325  11.187  0.7317 -1.6311  3.9425
 4481TIP3   OH234857   6.042   2.228  13.632  0.0462 -0.5483 -0.1145
 4481TIP3    H134858   6.021   2.274  13.713 -1.6632  0.3812 -1.0775
 4481TIP3    H234859   6.138   2.224  13.632  0.1835  1.7969  0.6713
 4482TIP3   OH234860   0.208   3.122   4.653  0.0801 -0.3080  0.0793
 4482TIP3    H134861   0.122   3.083   4.639  0.7037 -1.3554 -0.9105
 4482TIP3    H234862   0.261   3.052   4.690  0.5195  0.3331  0.6877
 4483TIP3   OH234863   3.307   0.936   4.569  0.0137 -0.0065 -0.0729
 4483TIP3    H134864   3.278   0.869   4.507 -1.7901 -0.1067  0.8635
 4483TIP3    H234865   3.312   1.016   4.517 -1.7754 -0.0301 -0.2878
 4484TIP3   OH234866   2.550   4.607  13.182 -0.1312  0.0855  0.2996
 4484TIP3    H134867   2.644   4.625  13.170 -0.0627 -1.2277 -1.2369
 4484TIP3    H234868   2.547   4.535  13.244 -0.0069 -1.2820 -1.2308
 4485TIP3   OH234869   1.153   1.683  13.296 -0.3762 -0.1717  0.3071
 4485TIP3    H134870   1.106   1.607  13.261  0.5539  0.0423 -1.5250
 4485TIP3    H234871   1.149   1.748  13.225  1.6071  0.2817  0.5708
 4486TIP3   OH234872   5.721   3.914   4.726  0.1228 -0.4793 -0.2755
 4486TIP3    H134873   5.653   3.847   4.715 -0.0958 -0.3208  0.0716
 4486TIP3    H234874   5.793   3.885   4.671 -0.7255  0.0230 -1.6792
 4487TIP3   OH234875   5.685   2.400   3.578  0.7706  0.3490  0.4752
 4487TIP3    H134876   5.690   2.347   3.657  0.2614  0.6448  0.7090
 4487TIP3    H234877   5.592   2.402   3.557  0.9470 -0.0409 -0.3446
 4488TIP3   OH234878   0.348   3.872   3.315  0.4695 -0.1479  0.2250
 4488TIP3    H134879   0.341   3.779   3.295 -2.1897 -0.1265  0.7802
 4488TIP3    H234880   0.384   3.876   3.403  0.1630 -0.6769  0.3756
 4489TIP3   OH234881   1.418   1.762  13.887  0.0688  0.6616  0.3694
 4489TIP3    H134882   1.507   1.737  13.860 -0.5290 -0.3737 -0.6946
 4489TIP3    H234883   1.381   1.806  13.810 -0.1898  1.5111  0.9701
 4490TIP3   OH234884   2.079   0.374  10.365  0.1755 -0.7336 -0.4689
 4490TIP3    H134885   2.060   0.381  10.459 -2.5624 -1.6272 -0.9152
 4490TIP3    H234886   2.151   0.434  10.351 -1.9756  2.4643  1.4948
 4491TIP3   OH234887   6.177   0.524  16.160 -0.0145  0.3941 -1.1742
 4491TIP3    H134888   6.132   0.456  16.211 -1.4345  1.0002 -1.5779
 4491TIP3    H234889   6.148   0.607  16.200  1.0678  0.7815 -1.1937
 4492TIP3   OH234890   0.101   5.239   4.760 -0.1239  0.1900 -0.4161
 4492TIP3    H134891   0.156   5.162   4.771  1.1978  1.0860 -0.6575
 4492TIP3    H234892   0.022   5.207   4.716 -0.3867 -1.3470  1.1103
 4493TIP3   OH234893   0.298   0.816  13.467 -0.1105  0.3376  0.4845
 4493TIP3    H134894   0.394   0.822  13.467 -0.2119  2.2375  0.3095
 4493TIP3    H234895   0.276   0.783  13.554  0.8005 -2.6216 -0.3311
 4494TIP3   OH234896   4.185   0.788   3.314 -0.1052  0.1536  0.3224
 4494TIP3    H134897   4.221   0.719   3.370 -1.9519 -0.2172  1.0991
 4494TIP3    H234898   4.241   0.864   3.330  1.6158 -1.0123 -0.1304
 4495TIP3   OH234899   1.403   0.346   0.066  0.4943 -0.2657  0.4278
 4495TIP3    H134900   1.330   0.408   0.071 -1.0613 -1.9386 -0.7731
 4495TIP3    H234901   1.456   0.377  -0.008  0.1260  0.0730  0.3031
 4496TIP3   OH234902   3.921   3.738  15.463  0.2437  0.6849  0.4968
 4496TIP3    H134903   3.829   3.755  15.445  0.0840 -0.3714  0.2384
 4496TIP3    H234904   3.969   3.806  15.416 -0.2834 -0.4784 -1.8138
 4497TIP3   OH234905   4.513   3.894  15.455  0.0090  0.1088 -0.1048
 4497TIP3    H134906   4.584   3.955  15.471  0.0883  0.7128 -2.4838
 4497TIP3    H234907   4.434   3.948  15.451 -0.8012 -0.6733  3.5274
 4498TIP3   OH234908   6.142   6.094   5.788 -0.1759  0.2071  0.0066
 4498TIP3    H134909   6.118   6.040   5.863  2.3087  0.2894  0.8911
 4498TIP3    H234910   6.151   6.183   5.824  2.1688  0.0450 -0.1205
 4499TIP3   OH234911   1.953   0.573   2.628  0.1464  0.2139 -0.1639
 4499TIP3    H134912   1.986   0.484   2.623  1.4289  0.6530  0.0733
 4499TIP3    H234913   1.887   0.571   2.697 -1.7408 -1.1005 -1.9469
 4500TIP3   OH234914   1.746   4.433  13.413 -0.2463 -0.6945  0.0766
 4500TIP3    H134915   1.789   4.472  13.489  0.2193 -0.1204 -0.4762
 4500TIP3    H234916   1.805   4.363  13.385 -0.2892 -0.7300  0.0743
 4501TIP3   OH234917   4.173   0.643  13.532 -0.6448  0.2485 -0.1480
 4501TIP3    H134918   4.114   0.630  13.606 -1.8178  2.2814 -0.7067
 4501TIP3    H234919   4.244   0.580  13.547 -2.2875 -1.3206  1.2069
 4502TIP3   OH234920   4.337   3.358   0.869 -0.6535  0.0775 -0.1471
 4502TIP3    H134921   4.370   3.359   0.779 -0.2763 -1.0054 -0.0255
 4502TIP3    H234922   4.256   3.308   0.864 -0.8804  0.4176  0.0414
 4503TIP3   OH234923   0.383   4.557  12.573  0.4829 -0.8009  0.7455
 4503TIP3    H134924   0.313   4.620  12.589  0.2870 -0.6645 -0.5494
 4503TIP3    H234925   0.462   4.596  12.610  0.5785  0.7182 -0.9912
 4504TIP3   OH234926   0.138   2.352   5.052  0.2372 -0.0514  0.2673
 4504TIP3    H134927   0.163   2.410   5.123  0.1980  1.8159 -1.2134
 4504TIP3    H234928   0.073   2.402   5.002 -1.2763 -2.1266  0.0786
 4505TIP3   OH234929   2.431   3.696  10.673  0.1180  0.1421  0.1699
 4505TIP3    H134930   2.471   3.643  10.743  0.1599  0.6232  0.5132
 4505TIP3    H234931   2.502   3.709  10.610 -0.2067 -1.1799 -0.4781
 4506TIP3   OH234932   5.074   4.508  12.133  0.2555 -0.6133  0.2871
 4506TIP3    H134933   5.048   4.466  12.215  0.8642 -2.1570 -0.3035
 4506TIP3    H234934   5.025   4.461  12.066  0.6162 -0.0782 -0.3481
 4507TIP3   OH234935   3.395   1.440  15.406  0.2724  0.0530 -0.6532
 4507TIP3    H134936   3.375   1.498  15.332 -0.8772  0.2550 -0.1951
 4507TIP3    H234937   3.386   1.496  15.483 -0.5297 -0.6602 -0.2288
 4508TIP3   OH234938   4.763   0.291   0.337 -0.7144 -0.2183 -0.4369
 4508TIP3    H134939   4.715   0.312   0.417 -0.9332 -1.0102 -0.3574
 4508TIP3    H234940   4.698   0.298   0.268 -0.3042  1.4535 -0.6926
 4509TIP3   OH234941   0.494   1.680   0.516 -0.9344  0.3669 -0.7138
 4509TIP3    H134942   0.472   1.587   0.518 -0.3983  0.2571  1.1141
 4509TIP3    H234943   0.551   1.690   0.440 -0.7082 -0.8691 -0.7118
 4510TIP3   OH234944   5.250   3.974   3.703  0.2140  0.1219  0.3579
 4510TIP3    H134945   5.248   3.978   3.607  0.9441 -1.9042  0.2465
 4510TIP3    H234946   5.171   3.926   3.726  1.0376 -1.0963  0.6614
 4511TIP3   OH234947   0.346   0.205   2.632 -0.3084  0.1851 -0.2165
 4511TIP3    H134948   0.442   0.204   2.628 -0.3161 -2.1593 -0.3609
 4511TIP3    H234949   0.327   0.270   2.700  1.3111  1.8696 -1.3065
 4512TIP3   OH234950   4.096   5.438   4.387  0.4602 -0.2183  0.2811
 4512TIP3    H134951   4.054   5.362   4.428 -0.9668 -0.3730 -1.4032
 4512TIP3    H234952   4.029   5.506   4.388  0.1565 -0.4237 -2.3326
 4513TIP3   OH234953   2.581   0.448   0.415 -0.4602 -0.9512 -0.2112
 4513TIP3    H134954   2.674   0.440   0.436 -0.6365  0.0264  0.9997
 4513TIP3    H234955   2.580   0.497   0.333  0.1040 -1.3518 -0.4635
 4514TIP3   OH234956   4.852   5.857  11.206  0.1916  0.2251 -0.0151
 4514TIP3    H134957   4.896   5.890  11.128 -0.9242 -0.4170 -0.9195
 4514TIP3    H234958   4.815   5.934  11.248  1.2685  0.6395  0.1919
 4515TIP3   OH234959   1.796   3.208   3.436  0.1401  0.1748 -0.4561
 4515TIP3    H134960   1.723   3.162   3.478 -1.3331  0.3314 -2.7413
 4515TIP3    H234961   1.851   3.237   3.508 -2.4630  0.7305  1.3575
 4516TIP3   OH234962   2.128   3.141   0.346 -0.6262  0.1380 -0.2126
 4516TIP3    H134963   2.121   3.235   0.365  1.4798  0.1215  0.7977
 4516TIP3    H234964   2.113   3.098   0.430  1.1569 -0.2827 -0.0849
 4517TIP3   OH234965   5.317   3.979  12.147  0.5080  0.1810 -0.3837
 4517TIP3    H134966   5.225   3.954  12.158  0.7543 -0.2021  0.8718
 4517TIP3    H234967   5.360   3.900  12.116  0.1409  0.7821 -2.4939
 4518TIP3   OH234968   3.002   2.245   5.484 -0.6785  0.0186  0.2123
 4518TIP3    H134969   2.907   2.256   5.475 -0.3690  1.6503 -1.3051
 4518TIP3    H234970   3.039   2.303   5.418  1.4866  2.3277  3.3099
 4519TIP3   OH234971   2.223   3.477   6.541 -1.0256 -0.2346 -0.6324
 4519TIP3    H134972   2.198   3.413   6.607  0.2655 -0.8913 -0.7504
 4519TIP3    H234973   2.162   3.549   6.553  0.6025  0.6795  2.8645
 4520TIP3   OH234974   4.291   1.541   2.823 -0.1107  0.0191  0.1759
 4520TIP3    H134975   4.345   1.564   2.899  0.6300 -1.4769  0.1225
 4520TIP3    H234976   4.330   1.460   2.790 -0.4506  0.6309 -1.7848
 4521TIP3   OH234977   5.162   1.498   5.659 -0.1570  0.4377 -1.1199
 4521TIP3    H134978   5.115   1.574   5.625 -0.6619 -0.1767 -1.8111
 4521TIP3    H234979   5.112   1.474   5.738 -0.0183  0.7898 -0.9202
 4522TIP3   OH234980   1.561   6.670   4.166 -0.1602  0.4292 -0.3974
 4522TIP3    H134981   1.535   6.704   4.251 -2.4105  2.9749 -2.0487
 4522TIP3    H234982   1.650   6.703   4.153 -0.1036  0.6787  0.6144
 4523TIP3   OH234983   1.381   2.152  15.844 -0.5276 -0.0693  0.3548
 4523TIP3    H134984   1.451   2.088  15.831 -0.1344  0.2764  0.7780
 4523TIP3    H234985   1.379   2.201  15.762 -1.2846 -1.0599 -0.2334
 4524TIP3   OH234986   2.431   5.569   6.241 -0.5590  0.1111 -0.5799
 4524TIP3    H134987   2.418   5.477   6.217 -1.1343 -0.3950  1.5184
 4524TIP3    H234988   2.395   5.619   6.167 -0.9691 -1.3528 -1.3876
 4525TIP3   OH234989   1.322   2.182  11.672 -0.0496 -0.0929  0.1764
 4525TIP3    H134990   1.360   2.205  11.757 -0.4368  0.6255  0.1539
 4525TIP3    H234991   1.264   2.108  11.691 -1.4602  1.1643  0.8427
 4526TIP3   OH234992   3.762   4.455  17.146 -0.2678 -0.2583  0.7657
 4526TIP3    H134993   3.806   4.538  17.167  1.0755 -0.7824  0.0484
 4526TIP3    H234994   3.705   4.439  17.222  1.1101  0.1897  1.9198
 4527TIP3   OH234995   6.655   1.948  15.542 -0.1259 -0.2988  0.0394
 4527TIP3    H134996   6.681   1.874  15.487 -2.0391 -2.7892  2.3547
 4527TIP3    H234997   6.679   1.922  15.631 -0.1233  2.2322  0.8292
 4528TIP3   OH234998   4.283   3.553  16.216 -0.2612  0.3653 -0.1090
 4528TIP3    H134999   4.297   3.611  16.291 -0.1970 -0.9448  0.9088
 4528TIP3    H235000   4.353   3.488  16.222  0.1458  0.6217 -1.6968
 4529TIP3   OH235001   6.640   2.767   1.194 -0.3618 -0.2999 -0.2313
 4529TIP3    H135002   6.569   2.807   1.143  0.0983  0.2237 -0.4655
 4529TIP3    H235003   6.653   2.826   1.268 -0.1030 -0.3447 -0.2403
 4530TIP3   OH235004   5.785   3.769  12.264 -0.0430  0.0693 -0.4402
 4530TIP3    H135005   5.695   3.763  12.297 -0.0337  1.7613 -0.0190
 4530TIP3    H235006   5.821   3.846  12.308  1.2112  0.1413 -1.5580
 4531TIP3   OH235007   1.282   2.371   5.211 -0.1818  0.1853  0.3705
 4531TIP3    H135008   1.369   2.332   5.213 -0.6714 -1.1377 -1.6706
 4531TIP3    H235009   1.256   2.366   5.119 -0.7609  4.3435  0.1815
 4532TIP3   OH235010   0.015   4.050   5.782  0.3365 -0.0102 -0.0425
 4532TIP3    H135011   0.079   4.003   5.727 -0.3241 -1.0351  0.0354
 4532TIP3    H235012  -0.051   3.984   5.802 -0.3301  0.8298  0.5470
 4533TIP3   OH235013   1.668   6.744   2.144  0.6806  0.3955 -0.1768
 4533TIP3    H135014   1.720   6.822   2.160  1.1570  0.2611 -1.0702
 4533TIP3    H235015   1.721   6.690   2.085  0.5068 -0.7611  0.6863
 4534TIP3   OH235016   3.165   1.167  12.052  0.2882  0.0375 -0.0562
 4534TIP3    H135017   3.114   1.094  12.085 -1.0431  0.3995 -1.2675
 4534TIP3    H235018   3.254   1.132  12.043 -0.6978 -2.0544 -2.4577
 4535TIP3   OH235019   2.550   2.297   5.936 -0.7564  0.5801  0.4184
 4535TIP3    H135020   2.575   2.293   5.844 -1.9070 -1.5679  0.1485
 4535TIP3    H235021   2.574   2.385   5.965  1.3613  0.6263 -1.4249
 4536TIP3   OH235022   3.780   5.305  10.711 -0.4357  0.0539  0.2399
 4536TIP3    H135023   3.733   5.372  10.662  0.6826 -1.2959 -2.8118
 4536TIP3    H235024   3.712   5.250  10.750 -1.4052 -0.1950 -1.7518
 4537TIP3   OH235025   2.417   1.705  15.750  0.5633  0.0881 -0.0128
 4537TIP3    H135026   2.469   1.632  15.719  2.7346  2.1049 -1.2864
 4537TIP3    H235027   2.480   1.761  15.797 -0.3960  2.6277 -1.6600
 4538TIP3   OH235028   0.466   3.315  11.100  0.5591 -0.1982 -0.5216
 4538TIP3    H135029   0.405   3.247  11.127 -0.8215  1.2317  0.0427
 4538TIP3    H235030   0.434   3.394  11.142  1.5206  1.0129 -2.0072
 4539TIP3   OH235031   2.440   4.267   1.890  0.1054 -0.0616  0.1428
 4539TIP3    H135032   2.418   4.222   1.971  1.8149  0.3258  0.8433
 4539TIP3    H235033   2.408   4.356   1.902 -0.5541 -0.2743 -0.0249
 4540TIP3   OH235034   1.634   1.502   3.757 -0.1132 -0.2437 -0.5628
 4540TIP3    H135035   1.612   1.422   3.806 -1.2340  0.3877 -0.0074
 4540TIP3    H235036   1.646   1.569   3.825 -1.3122  0.5513 -1.1095
 4541TIP3   OH235037   1.084   0.521   4.333  0.1617 -0.1720  0.1421
 4541TIP3    H135038   1.090   0.426   4.339 -0.2072 -0.2417 -0.4916
 4541TIP3    H235039   1.157   0.554   4.386 -0.7232 -0.7671  1.7444
 4542TIP3   OH235040   6.577   4.348  11.999 -0.1679 -0.5283  0.4364
 4542TIP3    H135041   6.542   4.416  11.941  0.2115 -0.8759 -0.2079
 4542TIP3    H235042   6.583   4.270  11.943 -1.3719 -1.3132  1.3728
 4543TIP3   OH235043   3.827   2.130  12.646  0.2063 -0.6832 -0.4990
 4543TIP3    H135044   3.768   2.063  12.680 -0.2078  0.3235  0.8070
 4543TIP3    H235045   3.781   2.212  12.662  0.9006 -0.0433 -1.7003
 4544TIP3   OH235046   6.613   6.297   2.379  0.0744 -0.5962 -0.2368
 4544TIP3    H135047   6.540   6.253   2.422 -0.3524  0.6726  0.3783
 4544TIP3    H235048   6.630   6.374   2.434  2.5273 -1.4027  0.1977
 4545TIP3   OH235049   4.333   2.743   1.268  0.2125 -0.2652 -0.1789
 4545TIP3    H135050   4.371   2.735   1.181 -1.3033  0.6369 -0.9279
 4545TIP3    H235051   4.374   2.822   1.304  1.3996 -1.0463  0.2383
 4546TIP3   OH235052   5.348   5.370  13.148  0.1505  0.1267 -0.1584
 4546TIP3    H135053   5.302   5.338  13.226  0.5985  0.6796  0.3338
 4546TIP3    H235054   5.280   5.376  13.081 -0.6832  1.8268  0.8181
 4547TIP3   OH235055   6.016   6.287  16.869 -0.2008 -0.3801 -0.0792
 4547TIP3    H135056   5.949   6.234  16.913 -0.0473  0.3415  1.0402
 4547TIP3    H235057   5.981   6.302  16.781 -1.4869 -0.0436  0.4825
 4548TIP3   OH235058   0.056   2.066   0.395 -0.3221 -0.1491  0.0237
 4548TIP3    H135059   0.025   1.978   0.419 -0.8354 -0.1744 -0.6849
 4548TIP3    H235060   0.115   2.091   0.465 -0.6943 -0.7915  0.5756
 4549TIP3   OH235061   1.860   4.433  15.989 -0.5040 -0.2220 -0.1362
 4549TIP3    H135062   1.890   4.493  16.056  1.2267 -1.8892  0.6314
 4549TIP3    H235063   1.900   4.349  16.012 -1.4929 -1.2828 -2.1206
 4550TIP3   OH235064   3.326   0.482   4.887  0.6960  1.0554  0.1549
 4550TIP3    H135065   3.421   0.480   4.878  0.7540  0.9478  0.7283
 4550TIP3    H235066   3.307   0.411   4.948  0.1394  0.3413 -0.8416
 4551TIP3   OH235067   1.009   1.750   4.497  0.3419 -0.4418  0.9073
 4551TIP3    H135068   0.923   1.785   4.478  0.2118 -0.1566  2.0030
 4551TIP3    H235069   1.062   1.826   4.521  1.1376 -0.5033 -0.5580
 4552TIP3   OH235070   0.327   0.298  11.880 -0.5207  0.3883 -0.2628
 4552TIP3    H135071   0.294   0.236  11.945 -1.3682 -0.2887 -1.3229
 4552TIP3    H235072   0.398   0.344  11.924 -1.2274  0.0822  1.2099
 4553TIP3   OH235073   4.661   6.194  11.894 -0.3044  0.5588 -0.2320
 4553TIP3    H135074   4.718   6.163  11.824  0.9681 -1.4971  1.6528
 4553TIP3    H235075   4.718   6.242  11.954 -0.8554 -0.0417  0.7984
 4554TIP3   OH235076   5.891   1.283   1.371 -0.3081 -0.2616  0.2210
 4554TIP3    H135077   5.960   1.241   1.319 -0.0476  1.1548 -0.6091
 4554TIP3    H235078   5.839   1.210   1.405  0.7187 -1.2897 -0.3636
 4555TIP3   OH235079   6.036   4.431   0.147 -0.0725 -0.1344 -0.4832
 4555TIP3    H135080   6.118   4.393   0.116 -0.1629  0.0492 -0.9548
 4555TIP3    H235081   5.983   4.356   0.174 -1.2548 -0.5826 -3.8074
 4556TIP3   OH235082   0.216   5.791   3.373 -0.3758  0.1359 -0.0167
 4556TIP3    H135083   0.209   5.885   3.387 -0.3477  0.1857 -0.3339
 4556TIP3    H235084   0.269   5.782   3.294 -0.1230 -0.1537  0.1850
 4557TIP3   OH235085   0.540   4.642  16.315  0.4220  0.3371 -0.2213
 4557TIP3    H135086   0.609   4.632  16.249 -0.9598 -0.9451 -1.5019
 4557TIP3    H235087   0.533   4.556  16.357  1.1146  1.0734  1.4510
 4558TIP3   OH235088   3.769   2.974  14.083  0.3019 -0.2696 -0.2613
 4558TIP3    H135089   3.852   3.021  14.073 -0.0870  0.3226 -0.7497
 4558TIP3    H235090   3.793   2.893  14.127  1.1186 -0.0282 -0.2431
 4559TIP3   OH235091   4.837   2.142  14.276 -0.2375  0.0735 -0.6001
 4559TIP3    H135092   4.928   2.171  14.282 -0.8058  1.9528 -0.8019
 4559TIP3    H235093   4.842   2.058  14.231  1.5076 -0.4571  0.5221
 4560TIP3   OH235094   1.462   0.832   4.074  0.4057 -0.3866 -0.2710
 4560TIP3    H135095   1.427   0.818   4.162 -1.7719 -1.9641 -1.3418
 4560TIP3    H235096   1.493   0.922   4.074  0.7788 -0.4936  2.2147
 4561TIP3   OH235097   6.426   5.685   4.826  0.8126  0.1270  0.1057
 4561TIP3    H135098   6.388   5.773   4.826  0.4693  0.0140  2.2982
 4561TIP3    H235099   6.480   5.682   4.905 -0.2875 -2.0858  0.8189
 4562TIP3   OH235100   5.706   0.147  10.474 -0.0241 -0.3544  0.2479
 4562TIP3    H135101   5.692   0.138  10.568  0.4196 -1.8542  0.1778
 4562TIP3    H235102   5.742   0.063  10.446  0.5015  0.3082 -1.1514
 4563TIP3   OH235103   1.135   6.682   4.559  0.4918 -0.0229 -0.1190
 4563TIP3    H135104   1.204   6.633   4.514  3.3066  2.3899  1.4821
 4563TIP3    H235105   1.093   6.616   4.614  2.1922 -1.3077 -0.2945
 4564TIP3   OH235106   6.248   0.675  11.574  0.0211  0.1407 -0.3362
 4564TIP3    H135107   6.242   0.741  11.505  0.0042 -0.4017 -0.8512
 4564TIP3    H235108   6.192   0.709  11.644  1.6540  1.7254  0.2642
 4565TIP3   OH235109   6.036   4.296  10.623  0.0058  0.5011  0.8840
 4565TIP3    H135110   5.992   4.212  10.629  0.7599  0.0361  0.0206
 4565TIP3    H235111   6.023   4.324  10.532  1.5120  0.3398  0.6031
 4566TIP3   OH235112   1.711   2.208  13.615  0.5249 -0.1465  0.3926
 4566TIP3    H135113   1.719   2.150  13.540 -2.9105  1.2056 -1.1073
 4566TIP3    H235114   1.638   2.172  13.666  0.0598  1.3510  0.8269
 4567TIP3   OH235115   2.212   0.393  12.226  0.1510  0.0570  0.4754
 4567TIP3    H135116   2.249   0.351  12.304 -0.4387 -2.8524 -0.7125
 4567TIP3    H235117   2.119   0.373  12.231  0.3168 -1.4498 -1.6734
 4568TIP3   OH235118   4.229   3.133  11.360 -0.3175 -0.4112  0.3054
 4568TIP3    H135119   4.231   3.191  11.436  0.7033 -2.6324  2.0585
 4568TIP3    H235120   4.177   3.058  11.390  0.2389 -1.3804 -1.1365
 4569TIP3   OH235121   5.805   0.115   5.325  0.5488  0.3028  0.1264
 4569TIP3    H135122   5.772   0.152   5.242  0.0060 -1.0696 -0.2793
 4569TIP3    H235123   5.810   0.191   5.383  0.0443  1.1398 -0.8823
 4570TIP3   OH235124   1.462   0.702  14.815  0.1766 -0.2064  0.8684
 4570TIP3    H135125   1.407   0.764  14.766  0.7497 -0.0220  0.4495
 4570TIP3    H235126   1.443   0.617  14.776 -2.3004 -0.6612  2.9242
 4571TIP3   OH235127   4.516   1.089   0.338  0.0461 -0.1896  0.1934
 4571TIP3    H135128   4.574   1.160   0.365  0.1987 -0.3328  0.2437
 4571TIP3    H235129   4.564   1.009   0.359 -0.3485 -0.3142  0.6362
 4572TIP3   OH235130   0.700   5.395  12.599  0.8234 -0.4151  0.0139
 4572TIP3    H135131   0.743   5.447  12.530  0.0192 -1.9291 -1.6683
 4572TIP3    H235132   0.625   5.448  12.625  1.4743  0.4431  0.1677
 4573TIP3   OH235133   0.460   3.791   2.028  0.2372  0.1379  0.4730
 4573TIP3    H135134   0.402   3.729   2.073  1.7146 -1.4475  0.2582
 4573TIP3    H235135   0.472   3.863   2.090 -2.3084  0.7250  0.3295
 4574TIP3   OH235136   0.098   3.169  13.834  0.0639  0.3244  0.3658
 4574TIP3    H135137   0.025   3.179  13.895 -0.5533  1.6335 -0.5629
 4574TIP3    H235138   0.076   3.093  13.780 -0.2885  0.3098  0.5359
 4575TIP3   OH235139   0.908   0.936  16.604 -0.0517 -0.1396 -0.6422
 4575TIP3    H135140   0.959   0.935  16.685 -1.7272 -0.3855  0.4309
 4575TIP3    H235141   0.907   1.028  16.578 -1.5713  0.3113  0.9585
 4576TIP3   OH235142   4.950   0.370   4.999  0.6647 -0.6926 -0.5842
 4576TIP3    H135143   5.021   0.434   4.992 -0.4349  0.6949  0.5537
 4576TIP3    H235144   4.975   0.299   4.940  2.3152  0.4108 -1.2406
 4577TIP3   OH235145   5.585   1.414   0.077 -0.3138  0.2662  0.0941
 4577TIP3    H135146   5.645   1.365   0.134  0.2087  0.1110 -0.5878
 4577TIP3    H235147   5.571   1.497   0.123 -0.5705 -0.1991  0.8647
 4578TIP3   OH235148   5.864   6.595  14.086 -0.2094  0.0952  0.1732
 4578TIP3    H135149   5.837   6.676  14.130  0.8613 -0.1961  1.3943
 4578TIP3    H235150   5.808   6.590  14.009 -1.4850  1.1115  1.0066
 4579TIP3   OH235151   3.447   1.117   1.348 -0.2350  0.4648 -0.5605
 4579TIP3    H135152   3.352   1.112   1.359 -0.1825 -0.3400 -0.4449
 4579TIP3    H235153   3.472   1.029   1.319  0.3477  0.9542 -1.5586
 4580TIP3   OH235154   0.384   5.365  11.909  0.2916  0.9374 -0.4923
 4580TIP3    H135155   0.389   5.397  11.819  0.3390 -0.0208 -0.8344
 4580TIP3    H235156   0.307   5.409  11.946 -0.4302  0.4227 -1.3713
 4581TIP3   OH235157   1.067   0.471  16.663  1.1713  0.2000 -0.2256
 4581TIP3    H135158   1.090   0.564  16.664 -0.1103  0.5114  0.8396
 4581TIP3    H235159   1.000   0.464  16.595  0.2369  0.3165  0.6721
 4582TIP3   OH235160   5.949   6.703   0.723  0.2328 -0.3875  0.0612
 4582TIP3    H135161   5.908   6.668   0.644 -0.5276  0.0052  0.2797
 4582TIP3    H235162   6.043   6.705   0.702  0.0242 -0.1692 -0.8788
 4583TIP3   OH235163   5.353   3.030  11.968  0.5942  0.2121 -0.0194
 4583TIP3    H135164   5.408   2.955  11.992 -2.6855 -1.9408  1.1128
 4583TIP3    H235165   5.327   3.068  12.051 -2.0103 -0.6403 -0.4014
 4584TIP3   OH235166   1.349   2.666   3.673  0.4341  0.2226  0.5525
 4584TIP3    H135167   1.432   2.649   3.629  0.2745  1.0333 -0.0758
 4584TIP3    H235168   1.287   2.604   3.636  0.8850 -0.7716  1.4318
 4585TIP3   OH235169   3.231   6.089  13.067  0.7285  0.1701  0.1148
 4585TIP3    H135170   3.309   6.136  13.036  0.6273  0.1753 -0.1294
 4585TIP3    H235171   3.185   6.063  12.988  0.7055 -0.2137  0.2531
 4586TIP3   OH235172   0.835   1.538  15.838  0.4552  0.4575  0.3061
 4586TIP3    H135173   0.799   1.456  15.806 -1.1799  1.3214 -0.0827
 4586TIP3    H235174   0.906   1.559  15.777 -0.8345  0.6758 -1.1253
 4587TIP3   OH235175   1.738   5.701   5.707 -1.0157  0.2331  0.3503
 4587TIP3    H135176   1.728   5.795   5.689  1.6676  0.3527 -0.6635
 4587TIP3    H235177   1.725   5.659   5.622  1.0014 -0.0545  0.1732
 4588TIP3   OH235178   2.725   4.656   5.166  0.3402  0.0733  0.0394
 4588TIP3    H135179   2.694   4.577   5.122  1.3065 -0.1138 -0.3100
 4588TIP3    H235180   2.647   4.712   5.171  0.1529 -0.0019 -1.6757
 4589TIP3   OH235181   2.263   0.922  17.083  0.3387  0.0712 -0.0001
 4589TIP3    H135182   2.356   0.939  17.098  0.2940 -0.2117  0.6344
 4589TIP3    H235183   2.245   0.959  16.997  0.9011  0.6765  0.1366
 4590TIP3   OH235184   1.685   3.545   3.676  0.0548  0.1457  0.1364
 4590TIP3    H135185   1.769   3.589   3.666 -0.4170  0.5559 -2.1200
 4590TIP3    H235186   1.706   3.452   3.671  0.3620  0.2455 -0.3997
 4591TIP3   OH235187   2.567   3.725   4.382 -0.1997  0.6277  0.0805
 4591TIP3    H135188   2.501   3.747   4.317  0.0365 -1.8184 -1.0387
 4591TIP3    H235189   2.633   3.794   4.374 -0.3581  0.5706 -2.0288
 4592TIP3   OH235190   4.641   3.264   0.060 -0.4592  0.7747  0.1932
 4592TIP3    H135191   4.735   3.254   0.046 -0.4778 -2.5462  1.9488
 4592TIP3    H235192   4.627   3.359   0.060  2.8696  1.3250 -0.0993
 4593TIP3   OH235193   1.247   5.555   5.220  0.3184  0.1580 -0.1400
 4593TIP3    H135194   1.181   5.530   5.285  1.3573  0.2630  0.9939
 4593TIP3    H235195   1.250   5.482   5.158  1.1105 -1.1536  1.3830
 4594TIP3   OH235196   5.528   2.184   3.216  0.3126 -0.3933 -0.4745
 4594TIP3    H135197   5.617   2.195   3.181  0.2519 -1.5574 -1.0207
 4594TIP3    H235198   5.511   2.266   3.262  2.2254 -0.7239  0.8922
 4595TIP3   OH235199   0.700   0.391  14.521 -0.2846  0.2963 -0.0687
 4595TIP3    H135200   0.698   0.432  14.435 -2.4031 -1.0009 -0.6702
 4595TIP3    H235201   0.694   0.463  14.583  0.7530  1.2018 -1.0035
 4596TIP3   OH235202   4.108   4.857  17.036  0.1895  0.5884  0.2731
 4596TIP3    H135203   4.144   4.943  17.012 -2.2480  1.7832  0.7423
 4596TIP3    H235204   4.085   4.866  17.128 -1.8403  0.0906 -0.1509
 4597TIP3   OH235205   4.872   2.540   0.736  0.9322 -0.2294  0.1775
 4597TIP3    H135206   4.925   2.522   0.814  0.9328  0.1115  0.2571
 4597TIP3    H235207   4.828   2.624   0.755  0.5979 -0.3583 -0.0096
 4598TIP3   OH235208   5.597   1.129  15.111 -0.6671  0.2384  0.5389
 4598TIP3    H135209   5.530   1.066  15.135 -1.9740  1.8202  1.1580
 4598TIP3    H235210   5.573   1.156  15.022 -1.7983  1.9748  1.3483
 4599TIP3   OH235211   1.348   0.615  14.323 -0.1248 -0.7220  0.2550
 4599TIP3    H135212   1.430   0.593  14.367 -0.2554  0.0778  0.9205
 4599TIP3    H235213   1.284   0.625  14.394  0.1609  2.7825  0.1236
 4600TIP3   OH235214   1.309   5.392  12.199  0.4120 -0.0607  0.0252
 4600TIP3    H135215   1.312   5.298  12.217  0.3597  0.3393  2.2786
 4600TIP3    H235216   1.364   5.431  12.266 -0.1905  1.5857 -0.4110
 4601TIP3   OH235217   6.662   1.570   0.303 -0.1590 -0.6889  0.4434
 4601TIP3    H135218   6.604   1.567   0.380  0.3950  2.2436  1.0375
 4601TIP3    H235219   6.711   1.487   0.306 -2.9916 -2.4133  0.9398
 4602TIP3   OH235220   6.096   0.847   4.819 -0.1388 -0.2044 -0.0798
 4602TIP3    H135221   6.095   0.939   4.796  1.3361 -0.1378  0.0784
 4602TIP3    H235222   6.161   0.840   4.889  0.0881 -1.4264 -0.3931
 4603TIP3   OH235223   5.042   6.597   2.451 -0.6464 -0.2884 -0.1336
 4603TIP3    H135224   5.015   6.674   2.501 -1.8422 -0.0525 -1.1156
 4603TIP3    H235225   5.025   6.621   2.360 -0.8560 -1.6505 -0.4604
 4604TIP3   OH235226   6.211   2.150   5.411 -0.6878 -0.7165 -0.3144
 4604TIP3    H135227   6.183   2.091   5.482  0.0775 -0.0639  0.5366
 4604TIP3    H235228   6.246   2.227   5.456 -0.5823 -0.1157 -1.4142
 4605TIP3   OH235229   1.731   5.774   3.602  0.0822 -0.2702 -0.2622
 4605TIP3    H135230   1.645   5.737   3.623 -0.0153  0.5005  0.7766
 4605TIP3    H235231   1.710   5.859   3.562  0.3498 -0.2139 -0.2807
 4606TIP3   OH235232   1.664   1.161  14.399 -0.0582 -0.1425 -0.1350
 4606TIP3    H135233   1.609   1.152  14.321 -1.7252 -0.5665  1.0503
 4606TIP3    H235234   1.703   1.075  14.412 -0.2284 -0.2302 -0.1978
 4607TIP3   OH235235   0.448   5.164  14.851  0.3529 -0.1520  0.1331
 4607TIP3    H135236   0.469   5.234  14.789  1.8569 -1.2217 -0.5934
 4607TIP3    H235237   0.510   5.175  14.922  2.2064 -2.1388 -1.0986
 4608TIP3   OH235238   1.873   2.585   3.305 -0.2657  0.0200  0.0309
 4608TIP3    H135239   1.800   2.632   3.265 -0.3293 -0.0945  0.0124
 4608TIP3    H235240   1.834   2.506   3.342  0.1958 -1.1866 -1.9676
 4609TIP3   OH235241   4.424   1.655  11.339  0.1870 -0.3058 -0.5457
 4609TIP3    H135242   4.465   1.585  11.390 -0.4091 -0.0207  0.3424
 4609TIP3    H235243   4.423   1.731  11.397 -0.9980 -0.1297 -0.7672
 4610TIP3   OH235244   3.085   4.955   4.301 -0.1490 -0.1020 -0.5755
 4610TIP3    H135245   3.168   5.002   4.287  1.3720 -2.8294 -1.0633
 4610TIP3    H235246   3.067   4.913   4.217 -1.6095 -0.1813 -0.2262
 4611TIP3   OH235247   1.473   3.947   1.010  0.2886 -0.0823  0.3625
 4611TIP3    H135248   1.511   4.024   0.969  1.0032  0.7646  2.5536
 4611TIP3    H235249   1.401   3.921   0.952  0.3541  1.9243 -0.6342
 4612TIP3   OH235250   4.990   1.563   4.260 -0.4281  0.0262  0.0133
 4612TIP3    H135251   5.014   1.557   4.168 -1.3642 -1.8870 -0.1350
 4612TIP3    H235252   4.954   1.477   4.281  0.1243  0.3186  2.2717
 4613TIP3   OH235253   0.630   5.125   0.412 -0.3364 -0.6190  0.0715
 4613TIP3    H135254   0.663   5.036   0.399  0.2834 -0.3309 -0.3251
 4613TIP3    H235255   0.677   5.157   0.490  1.8262  0.5092 -1.6488
 4614TIP3   OH235256   2.235   3.221   4.142 -0.1062  0.6354 -0.1147
 4614TIP3    H135257   2.177   3.202   4.215  3.6211 -0.8161  2.5888
 4614TIP3    H235258   2.245   3.137   4.097  0.3841  0.7685 -0.2525
 4615TIP3   OH235259   6.215   5.267   3.134  0.0437 -0.1412 -0.3427
 4615TIP3    H135260   6.243   5.215   3.059 -1.4545 -2.6598  0.7419
 4615TIP3    H235261   6.120   5.278   3.121 -0.2528 -0.7208  1.1886
 4616TIP3   OH235262   0.523   4.576  15.469 -0.0216  0.3898 -0.5313
 4616TIP3    H135263   0.540   4.654  15.417  2.2568 -0.3727 -0.9693
 4616TIP3    H235264   0.509   4.609  15.558 -1.0136  1.4416 -1.0618
 4617TIP3   OH235265   3.658   2.003   0.478  0.0653 -0.1439 -0.3741
 4617TIP3    H135266   3.712   1.936   0.519  0.0212  0.1433  0.1613
 4617TIP3    H235267   3.568   1.973   0.491  0.0408  0.0723 -0.0350
 4618TIP3   OH235268   4.943   6.204  14.327  0.2746 -0.7783 -0.1277
 4618TIP3    H135269   4.905   6.150  14.258  1.2129 -1.8920  0.2083
 4618TIP3    H235270   4.941   6.293  14.291 -0.8290 -1.0953 -0.8837
 4619TIP3   OH235271   2.262   4.309   6.436 -0.3952  0.4465  0.0198
 4619TIP3    H135272   2.198   4.288   6.368  0.7259 -0.2458 -0.8335
 4619TIP3    H235273   2.210   4.312   6.517 -1.6750  0.9303 -0.7967
 4620TIP3   OH235274   2.667   4.216   4.893  0.0171  0.1589  0.1161
 4620TIP3    H135275   2.609   4.140   4.884  0.3753 -0.0556 -0.4098
 4620TIP3    H235276   2.655   4.264   4.811 -0.5040  0.8767  0.6121
 4621TIP3   OH235277   1.248   0.773   3.565 -0.2175 -0.0874 -0.9285
 4621TIP3    H135278   1.268   0.744   3.476  1.4667  1.5510 -1.1233
 4621TIP3    H235279   1.332   0.769   3.611 -0.7548  0.5872  0.1439
 4622TIP3   OH235280   0.515   1.785  14.898 -0.1506  0.2860  0.3679
 4622TIP3    H135281   0.496   1.786  14.991 -1.3394  0.8918  0.1207
 4622TIP3    H235282   0.449   1.727  14.860 -0.3505  0.9062 -0.2446
 4623TIP3   OH235283   2.851   6.755   2.819 -0.1330 -0.7801  0.5821
 4623TIP3    H135284   2.837   6.660   2.816 -0.1128 -0.8076  1.2659
 4623TIP3    H235285   2.783   6.787   2.879  1.9095 -0.7586  2.9594
 4624TIP3   OH235286   5.267   4.817   6.561 -0.0472 -0.1752  0.3696
 4624TIP3    H135287   5.322   4.751   6.518  0.0455  0.3393 -0.3189
 4624TIP3    H235288   5.208   4.847   6.492 -0.2206  0.3209  0.7288
 4625TIP3   OH235289   6.705   5.844  14.528  0.5001  0.2319  0.0055
 4625TIP3    H135290   6.675   5.754  14.523 -0.4817  0.5113  0.7257
 4625TIP3    H235291   6.628   5.894  14.556  1.1777  1.2104  0.1590
 4626TIP3   OH235292   6.144   3.264  16.233  0.1544 -0.5580  0.5369
 4626TIP3    H135293   6.053   3.238  16.250  0.7383 -1.6428  2.1630
 4626TIP3    H235294   6.148   3.355  16.264 -0.6925 -0.0733 -0.7408
 4627TIP3   OH235295   2.272   2.332   1.792  0.1436  0.3963  0.1568
 4627TIP3    H135296   2.365   2.311   1.804  0.3566  1.2886  0.1114
 4627TIP3    H235297   2.235   2.253   1.753  0.7803 -0.1526  0.6492
 4628TIP3   OH235298   6.750   6.222   2.165  0.0909  0.1162 -0.2535
 4628TIP3    H135299   6.764   6.306   2.121  0.3488  1.4373  2.2843
 4628TIP3    H235300   6.698   6.243   2.242 -0.3588 -2.1707  0.1096
 4629TIP3   OH235301   1.445   1.195   0.670  0.5480 -0.3186 -0.1860
 4629TIP3    H135302   1.503   1.207   0.596  1.6775  1.2023  0.9195
 4629TIP3    H235303   1.373   1.142   0.636 -0.8229  3.3285 -3.3114
 4630TIP3   OH235304   0.753   2.105   1.768 -0.3006 -0.5099  0.5685
 4630TIP3    H135305   0.743   2.134   1.678  0.0538  0.6155  0.8807
 4630TIP3    H235306   0.832   2.052   1.768  0.1375  0.1493  0.3801
 4631TIP3   OH235307   0.886   2.393   1.462 -0.1681  0.2469 -0.5479
 4631TIP3    H135308   0.905   2.484   1.484  2.2196 -0.5492  0.8664
 4631TIP3    H235309   0.813   2.369   1.519 -0.0711  0.9478 -0.1219
 4632TIP3   OH235310   2.638   0.306  12.396  0.6912 -0.0909 -0.1731
 4632TIP3    H135311   2.727   0.290  12.427  0.0754 -2.6872  0.4070
 4632TIP3    H235312   2.598   0.360  12.464  1.5096  0.1931  0.0867
 4633TIP3   OH235313   4.738   2.567  13.212 -0.2440 -0.3952  0.0874
 4633TIP3    H135314   4.705   2.646  13.254  0.1161 -1.0548  1.6372
 4633TIP3    H235315   4.824   2.591  13.178  0.3227 -0.3974  1.4846
 4634TIP3   OH235316   6.153   2.484   4.046  0.0813 -0.0801  0.2257
 4634TIP3    H135317   6.072   2.452   4.007 -0.2208  2.0033 -0.9411
 4634TIP3    H235318   6.223   2.436   4.002 -0.5177 -3.2107  2.4954
 4635TIP3   OH235319   0.551   2.345  11.099  0.1043  0.2295  0.3626
 4635TIP3    H135320   0.635   2.365  11.058 -0.2330  1.8282  0.4299
 4635TIP3    H235321   0.543   2.407  11.171 -1.9120  1.2976 -0.7130
 4636TIP3   OH235322   5.840   4.402   2.001 -0.3253 -0.7753 -0.3870
 4636TIP3    H135323   5.899   4.475   1.983 -1.1639 -0.3111 -1.2988
 4636TIP3    H235324   5.799   4.382   1.917 -1.4038 -1.1357  0.2061
 4637TIP3   OH235325   2.708   5.938  12.511 -0.5292 -0.3809  0.0909
 4637TIP3    H135326   2.670   5.998  12.447 -1.0841 -0.5544  0.2601
 4637TIP3    H235327   2.634   5.886  12.542 -0.3227 -0.0823  1.1007
 4638TIP3   OH235328   2.320   1.101   5.651 -0.5538 -0.0239 -0.4375
 4638TIP3    H135329   2.413   1.092   5.670 -0.1892  1.4077 -1.4701
 4638TIP3    H235330   2.282   1.131   5.733 -0.3791 -2.0563  0.4345
 4639TIP3   OH235331   4.429   4.524  14.011 -0.8436 -0.0535  0.7675
 4639TIP3    H135332   4.387   4.604  13.978  0.0554 -0.9453 -2.7401
 4639TIP3    H235333   4.503   4.556  14.063 -0.9963  1.3952  0.1314
 4640TIP3   OH235334   0.182   4.097   2.973  0.0560  0.0875 -0.2242
 4640TIP3    H135335   0.112   4.133   3.027 -0.4047 -1.8416  0.5133
 4640TIP3    H235336   0.262   4.113   3.023  0.0587  1.4940 -0.6552
 4641TIP3   OH235337   6.026   1.945   5.541  0.1317  0.0853 -0.4961
 4641TIP3    H135338   5.977   1.988   5.471  0.2464 -1.1879 -1.3899
 4641TIP3    H235339   5.967   1.948   5.616 -1.0217 -0.7168 -1.3408
 4642TIP3   OH235340   0.331   2.174   5.606  0.1327 -0.0627 -0.3775
 4642TIP3    H135341   0.336   2.212   5.518 -1.4793  2.2013  0.4759
 4642TIP3    H235342   0.416   2.132   5.619  0.2809 -0.7337 -3.1351
 4643TIP3   OH235343   0.431   1.133  16.127 -0.3174  0.2718  0.6211
 4643TIP3    H135344   0.380   1.059  16.159  1.0168 -0.4456  1.0644
 4643TIP3    H235345   0.368   1.182  16.072 -0.4120 -2.8290 -2.2294
 4644TIP3   OH235346   0.858   2.914   5.567 -0.4083  0.0308 -0.4717
 4644TIP3    H135347   0.850   2.990   5.626  1.2067  0.4545 -0.7737
 4644TIP3    H235348   0.930   2.863   5.605 -0.3288 -0.4348 -1.2618
 4645TIP3   OH235349   3.717   4.337  14.573  0.4616  0.2301 -0.3853
 4645TIP3    H135350   3.757   4.317  14.489  1.1783  0.1778 -0.0308
 4645TIP3    H235351   3.658   4.411  14.554 -0.2996 -0.5531 -1.1726
 4646TIP3   OH235352   3.048   3.561   4.064 -0.2647  0.2359 -0.0618
 4646TIP3    H135353   2.996   3.480   4.065 -1.1740  0.8270  0.7507
 4646TIP3    H235354   3.075   3.571   3.972 -1.8401  0.0860 -0.5552
 4647TIP3   OH235355   1.789   5.252   3.758 -0.3696  0.1688  0.0386
 4647TIP3    H135356   1.739   5.315   3.810  0.1395  0.8415 -0.2921
 4647TIP3    H235357   1.858   5.221   3.817 -0.2771  0.3354  0.0165
 4648TIP3   OH235358   0.012   6.130   6.134 -0.1922 -0.4358  0.3149
 4648TIP3    H135359  -0.013   6.122   6.042  2.4954  0.4562 -0.5533
 4648TIP3    H235360  -0.061   6.176   6.175 -0.1357  1.8924 -2.0547
 4649TIP3   OH235361   1.772   1.705   5.508 -0.2406 -0.4457 -0.3432
 4649TIP3    H135362   1.855   1.668   5.538  0.1448  0.4484 -0.3117
 4649TIP3    H235363   1.757   1.780   5.565  0.1104  0.8107 -1.8754
 4650TIP3   OH235364   5.502   4.995   6.531 -0.5914 -0.2720 -0.1695
 4650TIP3    H135365   5.526   4.942   6.456 -2.4312  0.2164 -1.1301
 4650TIP3    H235366   5.456   4.935   6.590  1.0498 -0.7093  0.6969
 4651TIP3   OH235367   2.883   1.145   4.140 -0.0684 -0.0804  0.3393
 4651TIP3    H135368   2.962   1.109   4.181  0.4846  1.4810  0.6858
 4651TIP3    H235369   2.911   1.169   4.052  0.0557  1.1477  0.7006
 4652TIP3   OH235370   1.629   1.736   0.027 -0.4058 -0.3846 -0.3512
 4652TIP3    H135371   1.595   1.687   0.101 -0.8592 -0.2291 -0.4499
 4652TIP3    H235372   1.572   1.711  -0.046 -1.1924  0.9302 -0.2129
 4653TIP3   OH235373   4.106   2.807  16.382 -0.1665  0.1742  0.5387
 4653TIP3    H135374   4.155   2.772  16.456  0.1199  0.3364  0.4272
 4653TIP3    H235375   4.137   2.897  16.373  0.5350 -0.1517 -0.4087
 4654TIP3   OH235376   4.509   1.650  11.966  0.0484 -0.0764  0.1173
 4654TIP3    H135377   4.415   1.655  11.986 -0.3739  0.7643 -1.9707
 4654TIP3    H235378   4.523   1.717  11.900  1.7652 -1.4821 -0.9825
 4655TIP3   OH235379   2.875   2.854   0.001 -0.8076  0.7905  0.0784
 4655TIP3    H135380   2.911   2.793   0.065 -1.6937  0.3194  0.1364
 4655TIP3    H235381   2.802   2.896   0.046 -0.0572  2.0634  0.1118
 4656TIP3   OH235382   0.464   3.942  16.148  0.1736  0.4912  0.5083
 4656TIP3    H135383   0.412   4.012  16.110 -0.7673 -0.0116  0.8488
 4656TIP3    H235384   0.400   3.877  16.177  0.9347  0.2383  1.6916
 4657TIP3   OH235385   4.917   3.588   4.164  0.1860 -0.0294 -0.2367
 4657TIP3    H135386   5.006   3.568   4.136  0.7179 -1.3400  2.2487
 4657TIP3    H235387   4.862   3.561   4.091  1.8597  1.3335 -2.0241
 4658TIP3   OH235388   1.520   5.727   3.785 -0.4049 -0.1860  0.0828
 4658TIP3    H135389   1.437   5.750   3.745  1.0929  2.0238 -1.8447
 4658TIP3    H235390   1.535   5.795   3.851  0.4619  0.1666 -0.4647
 4659TIP3   OH235391   5.253   0.588   0.286 -0.2271 -0.3100  0.1329
 4659TIP3    H135392   5.246   0.664   0.343  0.8503 -0.2071  0.1400
 4659TIP3    H235393   5.197   0.608   0.211 -0.3688  0.2496  0.3892
 4660TIP3   OH235394   0.228   1.799  12.266 -0.1749  0.0578 -0.4210
 4660TIP3    H135395   0.181   1.719  12.287 -0.3302  0.1035 -0.5915
 4660TIP3    H235396   0.160   1.860  12.237 -0.0524  0.2363 -0.3355
 4661TIP3   OH235397   3.799   5.459   5.513  0.1384 -0.0610  0.3932
 4661TIP3    H135398   3.860   5.386   5.503 -1.0666 -0.7660 -1.9079
 4661TIP3    H235399   3.849   5.536   5.485 -0.1706 -0.7147 -2.0163
 4662TIP3   OH235400   1.929   6.138   6.403  1.3241  0.1529  0.1960
 4662TIP3    H135401   1.941   6.046   6.425  0.2608 -0.1145 -0.2941
 4662TIP3    H235402   2.002   6.183   6.445  0.6069 -0.6212  2.3506
 4663TIP3   OH235403   6.110   1.024  15.426 -0.1416 -0.7496 -0.0322
 4663TIP3    H135404   6.088   1.114  15.449 -0.7410 -0.6319 -1.0528
 4663TIP3    H235405   6.033   0.973  15.450 -0.6254 -0.6807 -1.4210
 4664TIP3   OH235406   3.171   3.942  14.997 -0.2783  0.1129  0.6290
 4664TIP3    H135407   3.241   3.913  14.939  0.5190 -1.4488  2.3261
 4664TIP3    H235408   3.091   3.912  14.954  0.3056 -1.0459  0.3166
 4665TIP3   OH235409   5.240   5.569  12.396 -0.4282 -0.4275  0.3287
 4665TIP3    H135410   5.262   5.477  12.382 -1.4674 -0.6087 -0.1586
 4665TIP3    H235411   5.184   5.591  12.322 -0.9861  0.3268  0.9744
 4666TIP3   OH235412   2.223   1.947  11.346  0.2167  0.6635  0.1012
 4666TIP3    H135413   2.129   1.937  11.360  0.0448 -0.4858 -1.7564
 4666TIP3    H235414   2.261   1.938  11.434 -1.2050 -1.1978  0.5632
 4667TIP3   OH235415   3.443   0.686  14.059  0.1470  0.5965  0.1250
 4667TIP3    H135416   3.374   0.661  13.998  0.3848  0.0052  0.0981
 4667TIP3    H235417   3.397   0.714  14.138 -0.0617 -2.5695  1.1644
 4668TIP3   OH235418   4.712   2.060   5.207 -0.0894  0.6078 -0.5513
 4668TIP3    H135419   4.796   2.026   5.237  0.1779  1.0237 -0.8154
 4668TIP3    H235420   4.654   2.050   5.282  0.3313  0.7833 -0.1969
 4669TIP3   OH235421   2.626   4.487   4.032  0.2362  0.2920  0.7212
 4669TIP3    H135422   2.587   4.520   4.113 -0.8826  0.3382  0.1761
 4669TIP3    H235423   2.720   4.497   4.045  0.0311  1.0777  1.6826
 4670TIP3   OH235424   4.977   6.375   5.081  0.2834 -0.0340 -0.2799
 4670TIP3    H135425   4.897   6.427   5.073  0.1696 -0.3508 -1.3071
 4670TIP3    H235426   5.038   6.417   5.020  0.2993 -0.9010 -0.8659
 4671TIP3   OH235427   0.507   1.934  12.028  0.3520 -0.3174 -0.8203
 4671TIP3    H135428   0.481   1.844  12.009 -0.2565 -0.0228 -1.4004
 4671TIP3    H235429   0.492   1.981  11.946  1.6537  0.0935 -0.8263
 4672TIP3   OH235430   5.883   6.587  12.080  0.1422 -0.0062  0.3078
 4672TIP3    H135431   5.878   6.633  11.996 -0.7973 -1.3075 -0.3651
 4672TIP3    H235432   5.796   6.599  12.119  0.5816  0.6075  1.1092
 4673TIP3   OH235433   0.357   5.419  14.529  0.1207  0.6098 -0.4283
 4673TIP3    H135434   0.390   5.404  14.440  1.5764  1.1459  0.0175
 4673TIP3    H235435   0.342   5.331  14.565  0.9617  0.3705 -0.6645
 4674TIP3   OH235436   5.481   6.083   2.712  0.0876  0.0458  0.1899
 4674TIP3    H135437   5.501   6.026   2.638 -0.5157  0.0981 -0.0149
 4674TIP3    H235438   5.468   6.170   2.673 -2.5553 -0.3734  0.0570
 4675TIP3   OH235439   1.007   0.379   1.004  0.2532 -0.7341  0.1857
 4675TIP3    H135440   0.940   0.359   1.069  0.9971 -2.2085  0.5257
 4675TIP3    H235441   0.995   0.472   0.984 -0.0636 -0.2863  2.3276
 4676TIP3   OH235442   3.460   5.712   4.882  0.0721 -0.3693  0.8080
 4676TIP3    H135443   3.509   5.637   4.847  2.0774  1.6534 -0.8586
 4676TIP3    H235444   3.442   5.689   4.973 -0.1449 -3.2452  0.0839
 4677TIP3   OH235445   3.487   0.921  16.316  0.4276  0.0217  0.1401
 4677TIP3    H135446   3.522   0.865  16.247 -0.1987 -0.0885 -0.0871
 4677TIP3    H235447   3.404   0.880  16.341  0.0779  0.7177  0.1315
 4678TIP3   OH235448   6.714   6.335  15.103  0.2990 -0.1826  0.1645
 4678TIP3    H135449   6.623   6.344  15.076  1.0367  0.5927 -2.1649
 4678TIP3    H235450   6.733   6.242  15.093 -0.0262 -0.2347  0.0216
 4679TIP3   OH235451   0.259   4.587   0.823 -0.1360  0.4787 -0.2666
 4679TIP3    H135452   0.232   4.515   0.766 -0.6714  0.2099  0.3184
 4679TIP3    H235453   0.206   4.662   0.796 -1.8877 -0.1840  1.2305
 4680TIP3   OH235454   4.094   6.629  14.373  0.5327  0.1464 -0.4898
 4680TIP3    H135455   4.035   6.556  14.353  0.1994  0.9594 -2.6159
 4680TIP3    H235456   4.167   6.588  14.418 -0.4927 -1.2482 -0.0413
 4681TIP3   OH235457   4.905   3.210  14.195 -0.0958  0.3026 -0.0706
 4681TIP3    H135458   4.887   3.117  14.186 -2.3711  0.7923 -0.9306
 4681TIP3    H235459   4.831   3.244  14.246  0.7784  1.6092  0.3453
 4682TIP3   OH235460   2.116   6.612   3.883  0.0069  0.2475  0.2662
 4682TIP3    H135461   2.201   6.576   3.908 -0.1395 -1.2116 -1.2799
 4682TIP3    H235462   2.137   6.692   3.835  0.5758 -0.7584 -1.1888
 4683TIP3   OH235463   0.895   0.853   5.112 -0.0413  0.2266 -0.7174
 4683TIP3    H135464   0.912   0.872   5.020  0.5246  2.4417 -0.1720
 4683TIP3    H235465   0.808   0.813   5.112 -0.5196  1.2241 -2.1081
 4684TIP3   OH235466   3.746   3.889  15.218  0.0732  0.0639 -0.6724
 4684TIP3    H135467   3.827   3.933  15.244 -0.2198 -0.0131  0.3795
 4684TIP3    H235468   3.775   3.810  15.173  0.6048 -1.0876  1.5995
 4685TIP3   OH235469   1.437   5.305  14.819 -0.1641 -0.1939  0.2209
 4685TIP3    H135470   1.387   5.254  14.755  0.8506 -0.0797 -0.6645
 4685TIP3    H235471   1.379   5.310  14.895 -1.4423 -0.2040 -0.7362
 4686TIP3   OH235472   3.116   5.816  14.974 -0.0104  0.7094 -0.1418
 4686TIP3    H135473   3.178   5.772  15.032 -0.5874  0.3369  0.1947
 4686TIP3    H235474   3.127   5.909  14.993 -1.5865  0.4840  1.9878
 4687TIP3   OH235475   0.483   0.621   4.558  0.4614  0.3178 -0.0135
 4687TIP3    H135476   0.575   0.625   4.581  0.0864  1.3683  1.3819
 4687TIP3    H235477   0.445   0.559   4.621  0.6347 -2.0183 -2.1357
 4688TIP3   OH235478   3.075   3.025  11.875  0.7592 -0.2143  0.3836
 4688TIP3    H135479   3.065   2.940  11.831  1.0937  0.1623 -0.4288
 4688TIP3    H235480   3.008   3.024  11.944  0.6960 -1.0988  0.3243
 4689TIP3   OH235481   4.622   0.845   0.361  0.2604 -0.7010 -0.0571
 4689TIP3    H135482   4.680   0.773   0.338  1.3603 -0.5733  2.2249
 4689TIP3    H235483   4.555   0.806   0.418 -2.4687 -1.0200 -3.2956
 4690TIP3   OH235484   0.570   6.471   4.438 -0.5600  0.5295 -0.3126
 4690TIP3    H135485   0.644   6.500   4.385 -0.6775  2.1225  0.3480
 4690TIP3    H235486   0.536   6.394   4.392  1.8408 -0.5911 -0.3058
 4691TIP3   OH235487   2.958   0.194  11.695 -0.2436  0.3287  0.6962
 4691TIP3    H135488   3.003   0.145  11.626  1.6205 -1.1062  2.8607
 4691TIP3    H235489   3.002   0.279  11.697 -0.8530  0.6736 -0.4247
 4692TIP3   OH235490   4.056   1.036  16.307 -0.8336 -0.1903 -0.1327
 4692TIP3    H135491   4.006   0.966  16.347 -1.1046 -2.1073 -3.6849
 4692TIP3    H235492   4.119   0.992  16.250  0.5350  2.3865 -0.7114
 4693TIP3   OH235493   2.830   2.394  17.205  0.2317 -0.2412  0.4160
 4693TIP3    H135494   2.742   2.384  17.242  0.3202 -1.5540  0.3046
 4693TIP3    H235495   2.883   2.428  17.277 -0.6429  1.8185  0.1249
 4694TIP3   OH235496   4.802   0.159   4.127  0.1129  0.1993  0.0622
 4694TIP3    H135497   4.707   0.151   4.135 -0.1111  1.4046 -1.0954
 4694TIP3    H235498   4.837   0.112   4.202 -1.4844  2.2062  2.1218
 4695TIP3   OH235499   2.277   3.863   4.251 -0.5677 -0.0661  0.8479
 4695TIP3    H135500   2.243   3.860   4.340 -1.4071 -4.2550  0.4888
 4695TIP3    H235501   2.199   3.853   4.196  0.2218  0.0259 -0.2996
 4696TIP3   OH235502   4.556   1.452  10.506  0.2233  0.5623 -0.1312
 4696TIP3    H135503   4.624   1.488  10.563  0.5800  1.2836 -0.9948
 4696TIP3    H235504   4.501   1.528  10.484  1.2606  0.7097 -2.3471
 4697TIP3   OH235505   6.355   6.722  13.276  0.2986 -0.2354 -0.1016
 4697TIP3    H135506   6.399   6.640  13.254 -0.6949 -0.3255 -1.8144
 4697TIP3    H235507   6.263   6.697  13.289  0.5224  0.1041  2.4904
 4698TIP3   OH235508   0.003   4.427  11.548 -0.2048  0.2774 -0.7162
 4698TIP3    H135509   0.047   4.484  11.611  0.4901  0.4401 -1.3503
 4698TIP3    H235510  -0.068   4.387  11.598  0.5416  0.1543  0.2572
 4699TIP3   OH235511   1.479   0.849  12.358 -0.1249 -1.0216  0.0334
 4699TIP3    H135512   1.563   0.852  12.404 -0.6396 -0.0069  0.9308
 4699TIP3    H235513   1.498   0.801  12.277  1.4204 -0.4298  0.0186
 4700TIP3   OH235514   1.363   6.001   0.720  0.4510  0.2867  0.4658
 4700TIP3    H135515   1.410   5.926   0.756  0.9024  0.5103  0.3483
 4700TIP3    H235516   1.405   6.017   0.635 -0.6878 -0.3186 -0.2251
 4701TIP3   OH235517   1.231   2.485  15.423  0.3000 -0.2718 -0.1391
 4701TIP3    H135518   1.249   2.432  15.346 -2.3331 -1.4299  0.0007
 4701TIP3    H235519   1.200   2.568  15.388  1.6977  0.1861 -0.3265
 4702TIP3   OH235520   3.566   3.246  15.475  0.0906 -0.0441 -0.2555
 4702TIP3    H135521   3.479   3.241  15.433  0.4988  1.5525 -1.3477
 4702TIP3    H235522   3.596   3.334  15.455  1.6767 -0.3579  0.7357
 4703TIP3   OH235523   4.395   0.265   4.411  0.5697 -0.1275 -0.1940
 4703TIP3    H135524   4.428   0.213   4.485  1.4909  0.8953  0.1408
 4703TIP3    H235525   4.319   0.217   4.380  0.9041 -1.2337  0.6355
 4704TIP3   OH235526   3.581   3.097  11.392  0.2721  0.1125 -0.1081
 4704TIP3    H135527   3.627   3.014  11.402  1.6995  0.8243 -0.6347
 4704TIP3    H235528   3.648   3.164  11.406 -1.1178  1.2028  1.4929
 4705TIP3   OH235529   2.456   3.673   0.981 -0.4518  0.4089  0.4851
 4705TIP3    H135530   2.455   3.769   0.979 -0.5484  0.4494  1.9522
 4705TIP3    H235531   2.494   3.648   0.897 -1.0029  1.7208 -0.1691
 4706TIP3   OH235532   5.048   5.189   5.165  0.6147  0.5649  0.1376
 4706TIP3    H135533   5.046   5.242   5.085  1.7590 -0.6801 -0.7318
 4706TIP3    H235534   5.117   5.228   5.218 -0.6496  1.8612  0.8809
 4707TIP3   OH235535   1.367   5.406  16.490 -0.6557 -0.3615 -0.3373
 4707TIP3    H135536   1.435   5.433  16.551 -0.4021 -2.6379  0.4513
 4707TIP3    H235537   1.410   5.342  16.433 -1.4084  0.2778 -1.6405
 4708TIP3   OH235538   0.258   2.443   0.393  0.7199  0.1271  0.1555
 4708TIP3    H135539   0.225   2.373   0.337  2.5485  0.8402 -1.8891
 4708TIP3    H235540   0.196   2.515   0.380  1.0966  0.2697 -0.9637
 4709TIP3   OH235541   2.145   6.446  12.984  0.6756  0.1055  0.1777
 4709TIP3    H135542   2.199   6.513  13.027  0.0783  1.2766 -0.9012
 4709TIP3    H235543   2.143   6.471  12.892 -2.2255  0.4242  0.2873
 4710TIP3   OH235544   6.308   2.322   4.283 -0.0130  0.3797 -0.6398
 4710TIP3    H135545   6.269   2.249   4.235 -1.0959 -0.5670  1.5773
 4710TIP3    H235546   6.249   2.396   4.267  0.3866  0.4466 -1.8575
 4711TIP3   OH235547   5.801   4.874  11.818 -0.1609  0.2272 -0.3371
 4711TIP3    H135548   5.785   4.780  11.814 -0.8527  0.4307 -2.8863
 4711TIP3    H235549   5.890   4.881  11.853 -0.2879 -1.3340  0.3641
 4712TIP3   OH235550   2.126   2.292  12.974  0.3971  0.0477 -0.2081
 4712TIP3    H135551   2.118   2.368  12.916 -1.8904  0.6021  0.7923
 4712TIP3    H235552   2.080   2.222  12.928 -0.2903  0.1434  0.3201
 4713TIP3   OH235553   1.302   4.189   1.124 -0.3915 -0.4326 -0.7170
 4713TIP3    H135554   1.387   4.233   1.116 -0.6817 -0.0137 -1.5699
 4713TIP3    H235555   1.270   4.183   1.034 -0.7451 -1.6269 -0.5145
 4714TIP3   OH235556   1.281   4.648  12.631  0.1281  0.2753 -0.1490
 4714TIP3    H135557   1.260   4.563  12.669 -3.8420  1.9969  1.8139
 4714TIP3    H235558   1.241   4.646  12.544  0.1171  0.1304 -0.1422
 4715TIP3   OH235559   2.262   5.193   1.814 -0.3102  0.2482  0.2971
 4715TIP3    H135560   2.282   5.249   1.739  1.3128 -2.0875 -1.0358
 4715TIP3    H235561   2.345   5.184   1.860 -1.3176  1.7566  2.5020
 4716TIP3   OH235562   6.247   0.587   5.253  0.3051 -0.4370 -0.2666
 4716TIP3    H135563   6.298   0.508   5.235 -0.2146 -0.4456 -1.7556
 4716TIP3    H235564   6.284   0.653   5.195  2.0937  0.9964  2.4385
 4717TIP3   OH235565   6.288   2.781  13.462 -0.3805 -0.2172 -0.3373
 4717TIP3    H135566   6.321   2.862  13.501 -1.4309 -0.5949  1.3889
 4717TIP3    H235567   6.230   2.809  13.392 -0.9215  0.5211  0.4089
 4718TIP3   OH235568   2.346   1.607   1.414 -0.1569  0.1228 -0.2627
 4718TIP3    H135569   2.292   1.678   1.378 -0.2842  0.1235 -0.0708
 4718TIP3    H235570   2.433   1.645   1.424  0.3040 -0.3608 -2.1695
 4719TIP3   OH235571   6.485   1.255   0.371 -0.0396 -0.1944 -0.1618
 4719TIP3    H135572   6.577   1.232   0.357 -0.6898 -2.3674 -1.0952
 4719TIP3    H235573   6.476   1.343   0.336  1.8128  0.2533  0.4551
 4720TIP3   OH235574   3.309   3.300   3.636 -0.3029 -0.0286  0.5205
 4720TIP3    H135575   3.392   3.261   3.609  0.3914  1.6137  0.2151
 4720TIP3    H235576   3.246   3.270   3.571  0.0396 -1.2853  0.7478
 4721TIP3   OH235577   5.227   3.809   1.230  0.7368  0.6273 -0.1143
 4721TIP3    H135578   5.149   3.758   1.250  1.2711 -0.1067  0.1247
 4721TIP3    H235579   5.206   3.855   1.149  0.3757 -0.2410 -0.5138
 4722TIP3   OH235580   5.455   6.236  14.150  0.0750  0.7875  0.2591
 4722TIP3    H135581   5.511   6.160  14.166 -2.8646 -1.5092  0.2071
 4722TIP3    H235582   5.421   6.259  14.237 -0.8244  0.5802 -0.0322
 4723TIP3   OH235583   3.435   4.094   1.705 -0.5196 -0.4781  0.6472
 4723TIP3    H135584   3.468   4.127   1.621 -2.2183 -0.2270  0.0610
 4723TIP3    H235585   3.340   4.088   1.693 -0.5670 -2.5496  1.8132
 4724TIP3   OH235586   3.216   4.844  12.584  0.0678  0.2117  0.4158
 4724TIP3    H135587   3.150   4.834  12.515 -0.4831 -1.0780  1.1231
 4724TIP3    H235588   3.205   4.768  12.640  0.0144  1.6150  2.3704
 4725TIP3   OH235589   4.453   0.470   4.654  0.3194  0.4438 -0.2731
 4725TIP3    H135590   4.426   0.451   4.564 -1.8339 -0.3001  0.5072
 4725TIP3    H235591   4.405   0.407   4.707  1.4780  0.9650  1.4275
 4726TIP3   OH235592   5.451   4.524  12.492 -0.7709 -0.0944 -0.1472
 4726TIP3    H135593   5.512   4.453  12.471  1.1551  1.4100  0.1838
 4726TIP3    H235594   5.478   4.553  12.579 -2.8297 -0.2371  0.5715
 4727TIP3   OH235595   1.862   2.973   2.842 -0.0656  0.1318 -0.1761
 4727TIP3    H135596   1.893   2.980   2.751  0.3252  1.9679  0.0927
 4727TIP3    H235597   1.943   2.969   2.894 -0.2775 -1.6604  0.0708
 4728TIP3   OH235598   0.497   4.748  15.058 -0.2527 -0.5293 -0.0162
 4728TIP3    H135599   0.423   4.774  15.003 -0.3257  0.0471  0.3539
 4728TIP3    H235600   0.457   4.717  15.140 -0.1285 -1.1101 -0.1719
 4729TIP3   OH235601   2.052   2.662   5.650 -0.3061  0.6658 -0.1252
 4729TIP3    H135602   2.012   2.575   5.646 -1.4687  1.1216  1.2128
 4729TIP3    H235603   2.107   2.660   5.727 -2.4717  1.9570  1.5300
 4730TIP3   OH235604   6.398   4.376   1.983 -0.4436 -0.0387  0.0514
 4730TIP3    H135605   6.313   4.370   2.028 -0.5901 -1.4925 -0.4012
 4730TIP3    H235606   6.419   4.286   1.959 -0.2502  0.6735 -2.5910
 4731TIP3   OH235607   0.282   0.163   3.527 -0.0527  0.5260  0.6654
 4731TIP3    H135608   0.230   0.155   3.607 -0.1031 -0.6381  0.5214
 4731TIP3    H235609   0.363   0.116   3.547 -0.4379 -0.5558 -0.2761
 4732TIP3   OH235610   1.226   2.633   6.557  0.4246  0.4018 -0.4772
 4732TIP3    H135611   1.217   2.698   6.487  0.0559 -0.5978 -1.3899
 4732TIP3    H235612   1.284   2.566   6.520  0.2409 -0.1249  0.1803
 4733TIP3   OH235613   1.679   5.146  16.883 -0.0617 -0.2298  0.2574
 4733TIP3    H135614   1.599   5.124  16.836 -0.0958 -0.1685  0.2856
 4733TIP3    H235615   1.655   5.142  16.975  0.1480 -0.9188  0.2867
 4734TIP3   OH235616   1.328   1.548   2.616 -0.7140 -0.0319 -0.0471
 4734TIP3    H135617   1.310   1.457   2.593 -0.7706  0.2169 -0.9797
 4734TIP3    H235618   1.244   1.592   2.605 -0.6678  0.1503  0.3286
 4735TIP3   OH235619   3.534   2.214  15.892 -0.0133  0.4332 -0.1274
 4735TIP3    H135620   3.479   2.136  15.886 -0.2732  0.6834 -1.0091
 4735TIP3    H235621   3.515   2.264  15.813 -1.0047  2.1734  1.1878
 4736TIP3   OH235622   1.812   5.275  15.444  0.2458 -0.2620 -0.1026
 4736TIP3    H135623   1.854   5.348  15.489 -0.4633 -0.4681  0.9158
 4736TIP3    H235624   1.878   5.205  15.444  0.9744  0.4140 -1.2094
 4737TIP3   OH235625   3.217   2.073  17.175  0.1615  0.4495 -0.3871
 4737TIP3    H135626   3.184   2.105  17.259 -1.4364  0.4018 -0.9758
 4737TIP3    H235627   3.184   1.984  17.169  1.4460 -0.0362 -0.4527
 4738TIP3   OH235628   2.947   4.327  12.400 -0.4027  0.3793 -0.1696
 4738TIP3    H135629   2.898   4.375  12.467  0.0443  1.7642 -0.8282
 4738TIP3    H235630   2.945   4.384  12.323  1.6910  0.1753 -0.4046
 4739TIP3   OH235631   1.637   2.742   6.087  0.3106 -0.1301  0.4711
 4739TIP3    H135632   1.579   2.712   6.157  0.1563  1.3758  1.0130
 4739TIP3    H235633   1.717   2.690   6.098  0.1636 -0.1262  1.5833
 4740TIP3   OH235634   0.368   2.804   5.966  0.5106  0.0075  0.0476
 4740TIP3    H135635   0.448   2.776   6.012  1.4017  1.5773 -0.5362
 4740TIP3    H235636   0.299   2.751   6.006  1.7288 -0.8693  1.0565
 4741TIP3   OH235637   0.988   6.461  14.267 -0.2173 -0.2952 -0.6687
 4741TIP3    H135638   0.894   6.445  14.270  0.0375 -1.9457 -1.2602
 4741TIP3    H235639   1.002   6.504  14.183 -0.3297 -0.8100 -0.9519
 4742TIP3   OH235640   5.999   6.095  13.585  0.2036 -0.3252  0.0032
 4742TIP3    H135641   5.931   6.107  13.651  0.1074  0.0143 -0.1585
 4742TIP3    H235642   5.957   6.047  13.515  0.3091 -0.6965  0.1919
 4743TIP3   OH235643   2.188   0.590   5.206  0.1173 -0.0278 -0.4064
 4743TIP3    H135644   2.185   0.503   5.166 -0.8526  0.1661 -0.7591
 4743TIP3    H235645   2.104   0.630   5.185  0.3493  0.8067  0.1988
 4744TIP3   OH235646   1.507   1.023   1.283  0.0436 -0.0428 -0.5392
 4744TIP3    H135647   1.602   1.011   1.289 -0.1028 -1.9440 -1.3757
 4744TIP3    H235648   1.496   1.109   1.243  1.3693  0.8993  1.0311
 4745TIP3   OH235649   0.715   0.780  13.935 -0.2278  0.5998 -0.3537
 4745TIP3    H135650   0.749   0.787  14.025 -4.3437 -1.4471  1.4957
 4745TIP3    H235651   0.748   0.695  13.904 -0.5446  0.3443  0.0082
 4746TIP3   OH235652   4.659   3.277   5.688  0.5173 -0.0913 -0.2427
 4746TIP3    H135653   4.696   3.358   5.653 -0.6427  0.6361  0.2030
 4746TIP3    H235654   4.735   3.227   5.718  1.0427  2.0725  2.1395
 4747TIP3   OH235655   3.787   5.330   1.921 -0.2065 -0.2630 -0.5059
 4747TIP3    H135656   3.700   5.368   1.909 -0.9045 -1.7591 -0.3240
 4747TIP3    H235657   3.771   5.250   1.972  1.6601  1.2277  2.5289
 4748TIP3   OH235658   5.526   4.669   5.227  0.0639 -0.5330  0.0095
 4748TIP3    H135659   5.453   4.727   5.249 -0.3040 -0.4616 -1.3541
 4748TIP3    H235660   5.485   4.598   5.177  1.4244  1.3247 -3.8523
 4749TIP3   OH235661   6.406   5.686   4.325 -0.6827 -0.3039  0.4829
 4749TIP3    H135662   6.395   5.616   4.261 -0.9693  1.3343 -1.3150
 4749TIP3    H235663   6.452   5.755   4.277 -0.1634  0.6360  2.2920
 4750TIP3   OH235664   2.377   1.923  16.116  0.2999 -0.5508 -0.1535
 4750TIP3    H135665   2.334   1.954  16.196  1.2989 -0.5794  0.4118
 4750TIP3    H235666   2.455   1.877  16.148  0.8063 -0.3982 -1.1619
 4751TIP3   OH235667   0.428   3.580  14.870  0.5868  0.1044  0.4021
 4751TIP3    H135668   0.332   3.583  14.860  0.2460 -3.3486  1.8390
 4751TIP3    H235669   0.460   3.553  14.784  0.0622 -0.8208  0.4886
 4752TIP3   OH235670   1.044   0.453  17.015 -0.2424 -0.0598 -0.4327
 4752TIP3    H135671   1.089   0.450  16.930 -0.1154  0.8306 -0.4047
 4752TIP3    H235672   1.021   0.362  17.033  3.5505 -0.9280  0.6266
 4753TIP3   OH235673   2.545   6.360  15.988 -0.0662 -0.2413 -0.2781
 4753TIP3    H135674   2.599   6.308  16.047 -0.4323 -1.0457 -0.6540
 4753TIP3    H235675   2.507   6.427  16.045 -0.6667 -1.2006  0.4691
 4754TIP3   OH235676   2.772   4.104   2.041  0.3390  0.3801 -0.3161
 4754TIP3    H135677   2.691   4.053   2.036  1.4380 -1.4509 -0.0576
 4754TIP3    H235678   2.760   4.163   2.115 -1.2505  1.0146 -1.0683
 4755TIP3   OH235679   0.696   6.366  11.906 -0.1500  0.0215 -0.6485
 4755TIP3    H135680   0.618   6.391  11.856  0.3395  1.3759 -0.7487
 4755TIP3    H235681   0.742   6.304  11.849 -2.3643 -2.6838  0.4154
 4756TIP3   OH235682   3.810   1.791  12.281 -0.1549  0.1662 -1.0127
 4756TIP3    H135683   3.771   1.730  12.345 -0.2793 -0.9890 -2.1703
 4756TIP3    H235684   3.878   1.837  12.331 -2.3793  1.5969  0.7980
 4757TIP3   OH235685   3.279   4.637  13.699  0.2644  0.2153 -0.3134
 4757TIP3    H135686   3.365   4.619  13.736  0.4000 -0.0154 -0.7517
 4757TIP3    H235687   3.258   4.725  13.731  0.9655  0.5583 -0.7801
 4758TIP3   OH235688   2.994   3.671  11.911  0.2277  0.0151  0.3310
 4758TIP3    H135689   3.032   3.626  11.835  0.4053  2.7856 -1.2961
 4758TIP3    H235690   3.048   3.643  11.984  0.4932 -2.1851 -0.6782
 4759TIP3   OH235691   0.146   6.629   2.054  0.0695 -0.1476  0.1167
 4759TIP3    H135692   0.222   6.686   2.043  0.9096 -0.4274  3.8097
 4759TIP3    H235693   0.182   6.540   2.057 -0.5033 -0.3741  0.6426
 4760TIP3   OH235694   6.471   1.887  15.302  0.0087  0.4787  0.6762
 4760TIP3    H135695   6.542   1.837  15.343 -0.2651 -0.8988 -0.4802
 4760TIP3    H235696   6.492   1.978  15.321  0.5732 -0.0514  2.7604
 4761TIP3   OH235697   0.274   3.047   2.141 -0.0569  0.1439 -0.3398
 4761TIP3    H135698   0.356   3.087   2.168 -0.4334 -1.3883  3.5721
 4761TIP3    H235699   0.299   2.965   2.099  0.4766  0.0823  0.0955
 4762TIP3   OH235700   3.589   2.644   4.785  0.3319 -0.3145  0.1787
 4762TIP3    H135701   3.629   2.645   4.872  2.4274  0.6392 -0.7606
 4762TIP3    H235702   3.662   2.661   4.725 -0.7878 -2.4631 -1.8907
 4763TIP3   OH235703   5.505   5.855  16.469 -0.1300 -0.4532  0.1938
 4763TIP3    H135704   5.494   5.900  16.385 -1.6592 -0.1846  0.5169
 4763TIP3    H235705   5.582   5.894  16.508 -0.9060  1.2599  0.0611
 4764TIP3   OH235706   6.661   4.188   0.590 -0.8678 -0.4874  0.0921
 4764TIP3    H135707   6.662   4.179   0.685  0.9548 -0.6037  0.0861
 4764TIP3    H235708   6.579   4.234   0.571 -0.0512  1.8621  1.9545
 4765TIP3   OH235709   1.357   5.252   0.651  0.3496 -0.2228 -0.1173
 4765TIP3    H135710   1.387   5.214   0.734 -1.5398 -0.0057  0.6941
 4765TIP3    H235711   1.382   5.344   0.655  1.3592 -0.4860 -0.3306
 4766TIP3   OH235712   1.936   2.435  16.364 -0.0379  0.5635  0.0314
 4766TIP3    H135713   1.877   2.377  16.413  1.0874 -1.3644 -0.8230
 4766TIP3    H235714   1.954   2.507  16.424 -0.3786 -0.6906  1.6727
 4767TIP3   OH235715   2.429   5.195  11.396  0.3204  0.3415  0.3839
 4767TIP3    H135716   2.479   5.183  11.477  2.0869  0.1640 -0.7022
 4767TIP3    H235717   2.339   5.175  11.420  1.0548 -1.1935  1.9424
 4768TIP3   OH235718   1.617   1.217  10.244  0.0850  0.2757 -0.4426
 4768TIP3    H135719   1.639   1.143  10.301  2.3824  1.3755  0.1629
 4768TIP3    H235720   1.590   1.286  10.304  1.1510  0.9796 -0.7516
 4769TIP3   OH235721   4.172   1.665  16.524  0.0284 -0.7765  0.1131
 4769TIP3    H135722   4.245   1.692  16.469  0.4510 -2.6498 -0.2833
 4769TIP3    H235723   4.094   1.675  16.469  0.0002  0.9056  0.4288
 4770TIP3   OH235724   5.755   5.169  13.621  0.3210  0.1095 -0.3277
 4770TIP3    H135725   5.828   5.179  13.559  0.0199 -0.1235 -0.7247
 4770TIP3    H235726   5.794   5.125  13.697  0.5963 -0.0159 -0.5387
 4771TIP3   OH235727   3.336   4.770   3.407 -0.1105  0.1753  0.1444
 4771TIP3    H135728   3.340   4.675   3.393  0.3975  0.2016  0.1164
 4771TIP3    H235729   3.401   4.806   3.346  0.2545  0.4845  0.7185
 4772TIP3   OH235730   1.259   0.736  16.993 -0.3098  0.5913  0.1081
 4772TIP3    H135731   1.224   0.748  17.081  1.3759  0.0491  0.8738
 4772TIP3    H235732   1.270   0.642  16.983  0.0001  0.6821 -0.4882
 4773TIP3   OH235733   3.854   1.549   5.532  0.4538 -0.1371 -0.1441
 4773TIP3    H135734   3.936   1.597   5.522  1.3313 -1.5514  0.1672
 4773TIP3    H235735   3.853   1.520   5.624 -1.1817  1.2714  0.3190
 4774TIP3   OH235736   6.378   4.237  15.455 -0.5971  0.4950 -1.3172
 4774TIP3    H135737   6.435   4.313  15.467  0.1786 -0.3479  0.4003
 4774TIP3    H235738   6.436   4.167  15.428 -0.5097 -0.8006  2.0208
 4775TIP3   OH235739   2.199   0.512   3.333  0.6047  0.0511 -0.3383
 4775TIP3    H135740   2.184   0.433   3.385  1.7021 -0.5784 -0.9710
 4775TIP3    H235741   2.126   0.512   3.270  1.0449 -0.8933 -0.8617
 4776TIP3   OH235742   2.893   3.371  14.758 -0.0897  0.1694 -0.3284
 4776TIP3    H135743   2.926   3.305  14.819  2.2460  1.8490  0.3009
 4776TIP3    H235744   2.879   3.323  14.676 -0.0972 -1.4375  0.5957
 4777TIP3   OH235745   6.428   5.779   1.667 -1.0290  0.0319 -0.1741
 4777TIP3    H135746   6.435   5.691   1.704 -2.0698  0.3093  0.6991
 4777TIP3    H235747   6.513   5.820   1.686  0.3172 -1.5191 -2.5788
 4778TIP3   OH235748   0.930   6.738  12.332 -0.2901  0.2008  0.3113
 4778TIP3    H135749   0.987   6.794  12.384  0.7167 -0.5653  0.0405
 4778TIP3    H235750   0.970   6.738  12.244 -0.4200 -0.7442  0.2499
 4779TIP3   OH235751   2.328   3.808   6.602 -0.4233 -0.2391  0.0257
 4779TIP3    H135752   2.234   3.788   6.603 -0.3662 -0.6897 -1.4676
 4779TIP3    H235753   2.369   3.730   6.638 -0.5962 -0.2540  0.1926
 4780TIP3   OH235754   2.466   0.907   1.284 -0.2558 -0.1104  0.6208
 4780TIP3    H135755   2.446   0.815   1.298  1.1210 -0.5803 -0.3522
 4780TIP3    H235756   2.545   0.923   1.335  0.5202  0.0664 -0.6068
 4781TIP3   OH235757   0.149   0.798   3.207 -0.6251  0.8538  0.2430
 4781TIP3    H135758   0.156   0.722   3.264  3.0460  0.8075 -0.1479
 4781TIP3    H235759   0.180   0.871   3.260 -1.1447  1.5264 -0.3685
 4782TIP3   OH235760   3.538   4.594  13.788  0.7261  0.3223 -0.0065
 4782TIP3    H135761   3.572   4.672  13.832 -1.0795 -0.2711  2.5699
 4782TIP3    H235762   3.613   4.534  13.783  1.7641  1.6568 -0.6949
 4783TIP3   OH235763   4.683   4.362  14.224  0.5518 -0.2429  0.1076
 4783TIP3    H135764   4.621   4.288  14.222  0.1304  0.1252 -1.0634
 4783TIP3    H235765   4.762   4.328  14.182  0.5243 -0.1726 -0.0015
 4784TIP3   OH235766   6.469   1.194   5.028 -1.2510  0.0942  0.2205
 4784TIP3    H135767   6.414   1.185   5.106  0.0024  0.7744  1.2157
 4784TIP3    H235768   6.509   1.108   5.017 -2.0009 -0.2160 -0.1199
 4785TIP3   OH235769   2.503   4.064   4.174  0.4340  0.2601  0.3564
 4785TIP3    H135770   2.476   4.070   4.082  1.8733 -0.7183 -0.1429
 4785TIP3    H235771   2.430   4.020   4.218  0.7239 -1.3890 -0.7744
 4786TIP3   OH235772   4.105   0.223  15.449 -0.0877  0.2375  0.1061
 4786TIP3    H135773   4.143   0.138  15.471  0.2498  0.6331  1.0973
 4786TIP3    H235774   4.050   0.206  15.372 -0.7758 -1.0465  0.8705
 4787TIP3   OH235775   2.766   2.615   1.994  0.1589  0.1300 -0.0580
 4787TIP3    H135776   2.692   2.581   2.044 -1.2043  2.6921 -0.2497
 4787TIP3    H235777   2.835   2.627   2.059 -0.0357 -1.0068  0.3641
 4788TIP3   OH235778   4.763   5.514  15.338 -0.6784 -0.2934  0.7468
 4788TIP3    H135779   4.719   5.567  15.271 -0.9561 -0.1649  1.0267
 4788TIP3    H235780   4.788   5.576  15.406  0.5362 -0.2701  0.2893
 4789TIP3   OH235781   1.514   1.738   4.821  0.2083  0.3279 -0.3855
 4789TIP3    H135782   1.419   1.740   4.834  0.2812 -1.4308  0.5340
 4789TIP3    H235783   1.526   1.747   4.726 -0.7733  2.6189 -0.3250
 4790TIP3   OH235784   5.181   4.480   6.614 -0.3168 -0.5130  0.0820
 4790TIP3    H135785   5.183   4.497   6.708 -0.4397  0.8303 -0.1473
 4790TIP3    H235786   5.240   4.406   6.602  0.7897  0.1976  1.0464
 4791TIP3   OH235787   4.920   2.864  11.951 -0.2394 -0.0634  0.1847
 4791TIP3    H135788   4.974   2.924  12.002  0.7726 -0.8363  0.0461
 4791TIP3    H235789   4.838   2.858  12.001  0.2634  0.1555  1.0613
 4792TIP3   OH235790   2.386   5.470   0.705  0.4885 -1.2124 -0.2923
 4792TIP3    H135791   2.386   5.444   0.797 -2.2537  0.1902  0.1778
 4792TIP3    H235792   2.334   5.551   0.703  1.0922 -0.8339 -2.9694
 4793TIP3   OH235793   4.189   1.926   1.884  0.0007  0.2615  0.1341
 4793TIP3    H135794   4.248   1.948   1.812  1.2502 -0.3042  0.9583
 4793TIP3    H235795   4.103   1.916   1.843  0.8774 -1.0696 -1.4313
 4794TIP3   OH235796   3.111   4.507   0.605 -0.7473  0.0644  0.1463
 4794TIP3    H135797   3.033   4.552   0.638  0.4329  1.8596  0.5790
 4794TIP3    H235798   3.177   4.519   0.674 -0.2311 -1.8600  0.0101
 4795TIP3   OH235799   0.677   0.196   3.750 -0.4504  0.1117 -0.0996
 4795TIP3    H135800   0.761   0.242   3.752 -0.6041  0.3931 -0.1206
 4795TIP3    H235801   0.622   0.242   3.813 -1.0041  0.7364 -1.0300
 4796TIP3   OH235802   3.921   3.543  13.850  0.4737  0.4761 -0.0699
 4796TIP3    H135803   3.842   3.576  13.807  0.3186 -0.7914 -0.7928
 4796TIP3    H235804   3.936   3.603  13.923 -0.5480  1.3453 -0.5631
 4797TIP3   OH235805   0.701   4.876   5.398 -0.6271  0.1353 -0.0794
 4797TIP3    H135806   0.658   4.865   5.483 -1.5841  0.0296 -0.5668
 4797TIP3    H235807   0.697   4.789   5.358 -2.2624  0.6866 -1.1830
 4798TIP3   OH235808   5.856   6.580   4.287 -0.0622  0.8320  0.3446
 4798TIP3    H135809   5.911   6.658   4.281  1.6231 -0.2811  0.9138
 4798TIP3    H235810   5.865   6.538   4.201 -0.5070  0.9683  0.2318
 4799TIP3   OH235811   1.645   2.254   3.586 -0.3006 -0.0791  0.5377
 4799TIP3    H135812   1.626   2.175   3.635  0.2081 -0.4189  0.2023
 4799TIP3    H235813   1.654   2.323   3.652 -0.4948 -0.3535  0.8478
 4800TIP3   OH235814   3.010   0.641   2.962 -0.1322 -0.1931 -0.5036
 4800TIP3    H135815   2.944   0.709   2.960 -0.7984 -0.8391 -0.8368
 4800TIP3    H235816   3.076   0.669   2.899  0.0725  0.6030  0.0552
 4801TIP3   OH235817   2.598   2.776  15.307  0.9155  0.1889 -0.0051
 4801TIP3    H135818   2.627   2.865  15.325  2.8672 -0.2183 -1.0531
 4801TIP3    H235819   2.648   2.722  15.367  0.9395 -0.3581 -0.5117
 4802TIP3   OH235820   4.283   6.774   4.521 -0.8069 -0.0099 -0.0838
 4802TIP3    H135821   4.249   6.727   4.445 -0.0546  1.0856 -1.1271
 4802TIP3    H235822   4.247   6.728   4.596  0.6024 -2.8041 -1.0473
 4803TIP3   OH235823   4.509   1.334   4.088  0.4838 -0.3403 -0.0933
 4803TIP3    H135824   4.515   1.364   3.997 -1.8528  0.9465  0.1505
 4803TIP3    H235825   4.472   1.408   4.136  1.3916 -1.1177  1.8761
 4804TIP3   OH235826   1.250   3.116   0.591 -0.1268 -0.2250 -0.6333
 4804TIP3    H135827   1.178   3.160   0.635  0.5849  0.0040  0.3098
 4804TIP3    H235828   1.328   3.139   0.643  0.7173  0.0386 -1.9810
 4805TIP3   OH235829   5.940   2.235  10.495 -0.1014 -0.2001  0.4146
 4805TIP3    H135830   6.008   2.296  10.468 -0.2739 -1.0613 -2.0783
 4805TIP3    H235831   5.979   2.149  10.484 -1.0294 -0.6466  0.5830
 4806TIP3   OH235832   5.808   1.365   1.833 -0.4468  0.1966  0.2789
 4806TIP3    H135833   5.852   1.286   1.863 -0.1515  0.0304 -0.5694
 4806TIP3    H235834   5.880   1.422   1.803 -0.5934  1.0759  1.5136
 4807TIP3   OH235835   4.459   1.772  12.876 -0.4141 -0.1405 -0.2623
 4807TIP3    H135836   4.495   1.853  12.840 -1.0708 -0.1110 -0.8639
 4807TIP3    H235837   4.479   1.777  12.970 -0.3534  0.6734 -0.3118
 4808TIP3   OH235838   6.389   2.017   0.095  0.0551  0.1370 -0.6058
 4808TIP3    H135839   6.413   1.988   0.183 -0.3272 -0.2875 -0.6392
 4808TIP3    H235840   6.374   1.936   0.046  2.2777  0.3196 -1.6430
 4809TIP3   OH235841   3.571   5.879   3.292 -0.1278 -0.6719 -0.1003
 4809TIP3    H135842   3.501   5.945   3.288 -1.8694 -2.5624 -1.7707
 4809TIP3    H235843   3.623   5.894   3.213 -0.2224 -0.9852 -0.2214
 4810TIP3   OH235844   2.099   3.650   5.950 -0.0859  0.6709 -0.3062
 4810TIP3    H135845   2.056   3.615   5.872  0.6755 -1.7947  0.3505
 4810TIP3    H235846   2.028   3.686   6.003 -0.9697 -0.4930 -0.6858
 4811TIP3   OH235847   5.634   2.769   1.534  0.6632 -0.1229 -0.6012
 4811TIP3    H135848   5.562   2.758   1.595  1.1208 -1.3239 -0.2717
 4811TIP3    H235849   5.708   2.797   1.588  0.0371  2.7793 -1.1554
 4812TIP3   OH235850   2.029   1.493   2.602 -0.1094  0.3622 -0.0978
 4812TIP3    H135851   2.039   1.416   2.659  1.6054  0.2449 -0.5359
 4812TIP3    H235852   2.103   1.489   2.542 -1.1536  1.2322 -1.4912
 4813TIP3   OH235853   4.587   4.883  16.053  0.3149  0.2412 -0.3488
 4813TIP3    H135854   4.676   4.910  16.076  0.2090  1.3589 -1.2066
 4813TIP3    H235855   4.557   4.949  15.990 -0.4840 -1.0954 -1.3994
 4814TIP3   OH235856   0.951   4.754   5.649 -0.4226 -0.2428  0.4026
 4814TIP3    H135857   0.975   4.832   5.599 -1.2920 -0.8897 -1.0670
 4814TIP3    H235858   0.871   4.779   5.695  0.1314  0.2113  1.1273
 4815TIP3   OH235859   2.870   4.051   2.589 -0.0288  0.1455  0.4701
 4815TIP3    H135860   2.789   4.011   2.558  0.2582  1.1802 -1.7987
 4815TIP3    H235861   2.933   3.979   2.592 -0.4822 -0.2714  0.1293
 4816TIP3   OH235862   3.827   2.259  15.544 -0.3487  0.1310  0.3270
 4816TIP3    H135863   3.867   2.322  15.485 -3.0835 -0.4224 -2.2656
 4816TIP3    H235864   3.773   2.312  15.602 -0.6885  0.4077 -0.2289
 4817TIP3   OH235865   3.296   4.554   0.330 -0.2045 -0.4814  0.0928
 4817TIP3    H135866   3.215   4.539   0.378  1.1386 -0.1354  2.5048
 4817TIP3    H235867   3.267   4.581   0.243 -2.6960  0.3752  1.1554
 4818TIP3   OH235868   1.805   5.273  16.404 -0.2206  0.4135 -0.2458
 4818TIP3    H135869   1.718   5.235  16.410 -0.0932  0.5141  2.7122
 4818TIP3    H235870   1.852   5.216  16.342 -0.8786 -2.5912  1.9311
 4819TIP3   OH235871   5.476   4.273   1.988 -0.2777 -0.0687  0.1788
 4819TIP3    H135872   5.544   4.279   1.920  0.4547  0.1449  0.9168
 4819TIP3    H235873   5.520   4.231   2.062 -0.4611  1.5850  1.2676
 4820TIP3   OH235874   1.060   4.258   6.781  0.2328 -0.2960 -0.3351
 4820TIP3    H135875   1.150   4.280   6.807 -0.3737  1.3709  0.4455
 4820TIP3    H235876   1.063   4.164   6.761  2.2575 -0.1521 -0.8342
 4821TIP3   OH235877   6.746   4.662  16.625  0.4815 -0.1439 -0.3782
 4821TIP3    H135878   6.723   4.580  16.669 -2.3744  0.5563 -0.4518
 4821TIP3    H235879   6.682   4.669  16.554  1.5766  1.4677 -1.2228
 4822TIP3   OH235880   2.228   3.184  15.086  0.5054 -0.0068 -0.6442
 4822TIP3    H135881   2.159   3.132  15.045  0.1863 -0.5080  0.5185
 4822TIP3    H235882   2.272   3.227  15.013 -0.4720 -0.3819 -1.4594
 4823TIP3   OH235883   1.162   4.081  10.525  0.3289 -0.2691  0.1390
 4823TIP3    H135884   1.079   4.066  10.481 -0.7689  1.7586  1.4004
 4823TIP3    H235885   1.147   4.051  10.615  0.7539  0.6349  0.5212
 4824TIP3   OH235886   6.691   0.915  14.886 -0.0456  0.8719 -0.1615
 4824TIP3    H135887   6.768   0.916  14.943  1.1489  3.7464 -1.7139
 4824TIP3    H235888   6.617   0.899  14.945  1.6679 -1.6418  1.3824
 4825TIP3   OH235889   4.146   5.641  15.427  0.0831  0.7620 -0.1765
 4825TIP3    H135890   4.118   5.563  15.380 -1.8081  1.0903  0.3522
 4825TIP3    H235891   4.080   5.652  15.496  0.6393  2.5020  0.0970
 4826TIP3   OH235892   6.175   4.990   3.915 -0.3335  0.0299  0.2234
 4826TIP3    H135893   6.084   4.995   3.944 -0.4292 -0.3298  0.0018
 4826TIP3    H235894   6.171   5.011   3.822 -0.2698 -0.5242  0.0891
 4827TIP3   OH235895   2.508   3.939  16.992 -0.3111 -0.1159 -0.2065
 4827TIP3    H135896   2.469   4.023  17.017  0.1917 -0.3869  1.5504
 4827TIP3    H235897   2.588   3.933  17.043  0.9804 -0.5251 -2.2441
 4828TIP3   OH235898   5.095   6.514  12.846  1.6905  0.7045  0.3389
 4828TIP3    H135899   5.019   6.494  12.791  0.8679 -1.7850  2.2799
 4828TIP3    H235900   5.164   6.457  12.813  2.2340  1.7195 -0.3098
 4829TIP3   OH235901   4.343   3.224  12.413 -0.4507  0.1524 -0.3553
 4829TIP3    H135902   4.280   3.199  12.481 -1.4504 -0.0976 -1.3779
 4829TIP3    H235903   4.416   3.163  12.424 -1.2737 -0.8638 -0.4782
 4830TIP3   OH235904   0.346   4.079   4.395  0.2359 -0.5002 -0.1068
 4830TIP3    H135905   0.347   4.036   4.481  0.5528  1.1620  0.7567
 4830TIP3    H235906   0.432   4.120   4.388 -0.1867  0.3037 -0.7098
 4831TIP3   OH235907   5.324   5.031   0.581 -0.1338 -0.1770  0.1512
 4831TIP3    H135908   5.325   4.970   0.507  0.6812 -1.5565  1.2548
 4831TIP3    H235909   5.235   5.024   0.617 -0.8939  1.3820 -1.3846
 4832TIP3   OH235910   3.521   1.001  16.947 -0.4593  0.2614  0.0111
 4832TIP3    H135911   3.605   0.965  16.921 -0.6773 -0.8136  0.7175
 4832TIP3    H235912   3.540   1.091  16.974  0.1190  0.6638 -1.6972
 4833TIP3   OH235913   6.650   2.836  16.290  0.1690 -0.3007 -0.4689
 4833TIP3    H135914   6.576   2.776  16.299  0.2297 -0.4573 -1.0216
 4833TIP3    H235915   6.688   2.815  16.205  1.7503 -1.2384  0.4391
 4834TIP3   OH235916   1.073   3.630  12.313  0.1483 -0.5015 -0.3919
 4834TIP3    H135917   1.095   3.612  12.404  1.2927 -3.5185 -1.1782
 4834TIP3    H235918   1.108   3.717  12.296  0.5033 -0.1705  1.8591
 4835TIP3   OH235919   1.094   4.935   0.762 -0.0037  0.4869  0.0031
 4835TIP3    H135920   1.076   4.847   0.729  1.8814 -0.0152  0.2532
 4835TIP3    H235921   1.139   4.920   0.845  0.3950  1.6823  0.0074
 4836TIP3   OH235922   0.380   0.707   0.435  0.6999 -0.6307 -0.8445
 4836TIP3    H135923   0.358   0.645   0.366 -0.2699 -0.4010 -0.7507
 4836TIP3    H235924   0.313   0.692   0.502  0.9808 -0.0867 -0.4408
 4837TIP3   OH235925   4.757   5.676   6.488  0.3212 -0.0614 -0.2606
 4837TIP3    H135926   4.733   5.670   6.580 -0.7266  0.4842 -0.4869
 4837TIP3    H235927   4.757   5.770   6.469  1.3413 -0.1238 -0.6116
 4838TIP3   OH235928   1.318   5.084  12.191 -0.7669  0.0338 -0.2439
 4838TIP3    H135929   1.308   4.990  12.179  0.9728 -0.1989 -0.0321
 4838TIP3    H235930   1.390   5.108  12.132 -0.4033  1.0268  0.5873
 4839TIP3   OH235931   0.133   0.710  16.413 -0.1351  0.2983 -0.4463
 4839TIP3    H135932   0.084   0.744  16.338 -1.1082  1.5691  0.7474
 4839TIP3    H235933   0.067   0.700  16.482  0.8930 -0.0951  0.4977
 4840TIP3   OH235934   0.906   2.404  11.237 -0.0338  0.4724  0.7280
 4840TIP3    H135935   0.896   2.499  11.241 -0.6820  0.3607  2.0056
 4840TIP3    H235936   0.940   2.380  11.323 -1.4312 -0.6219  0.9897
 4841TIP3   OH235937   1.861   1.799  10.732 -0.1388  0.4322 -0.1612
 4841TIP3    H135938   1.795   1.866  10.712 -1.0396 -0.0029  1.2496
 4841TIP3    H235939   1.931   1.814  10.669 -1.7074  0.7440 -1.8737
 4842TIP3   OH235940   4.101   2.244   5.666  0.0903 -0.2658  0.0843
 4842TIP3    H135941   4.032   2.286   5.615 -0.2674 -0.3991  0.4592
 4842TIP3    H235942   4.083   2.150   5.659 -0.2272 -0.2677  0.8267
 4843TIP3   OH235943   5.647   0.360   6.422  0.4498 -0.3955  0.4232
 4843TIP3    H135944   5.738   0.344   6.447  0.7809  0.0250 -0.4710
 4843TIP3    H235945   5.602   0.378   6.504  1.3728  0.3056  0.7861
 4844TIP3   OH235946   4.906   6.196   0.632 -0.2675  0.7510  0.1646
 4844TIP3    H135947   4.971   6.173   0.698  0.1536 -0.1660 -0.5592
 4844TIP3    H235948   4.893   6.290   0.643  0.1023  0.6783  1.2749
 4845TIP3   OH235949   2.617   2.031   3.301  0.4216  0.2206  0.0872
 4845TIP3    H135950   2.647   2.028   3.210 -0.1269  1.9273 -0.1698
 4845TIP3    H235951   2.696   2.021   3.353  0.7252 -0.8682 -0.5788
 4846TIP3   OH235952   4.186   4.580  16.326  0.6612  0.5148 -0.0434
 4846TIP3    H135953   4.228   4.597  16.410  1.6816  1.2237 -0.6808
 4846TIP3    H235954   4.258   4.550  16.270  0.4374  2.3110 -1.3193
 4847TIP3   OH235955   0.331   3.581  16.981  0.3579 -0.0839 -0.2181
 4847TIP3    H135956   0.274   3.619  17.047  0.0487 -1.4511  0.3058
 4847TIP3    H235957   0.272   3.554  16.910  0.4573 -0.5254 -0.1375
 4848TIP3   OH235958   3.102   2.799  14.694 -0.1748  0.6608  0.0778
 4848TIP3    H135959   3.030   2.785  14.756  1.2367  1.3009  1.8871
 4848TIP3    H235960   3.149   2.716  14.692  0.1951  0.8582  0.4232
 4849TIP3   OH235961   5.036   5.701  16.426  0.4335  0.1589  0.0357
 4849TIP3    H135962   5.049   5.788  16.463 -1.1787  0.7897 -0.8458
 4849TIP3    H235963   5.009   5.718  16.335  0.8100 -1.2717 -0.3519
 4850TIP3   OH235964   0.963   1.074   0.057  0.0102  0.6530 -0.1485
 4850TIP3    H135965   1.008   1.008   0.109 -0.8233 -0.3582 -0.7032
 4850TIP3    H235966   0.934   1.139   0.121  1.1241  0.6696  0.3543
 4851TIP3   OH235967   5.337   1.377  13.353  0.4498  0.3797 -0.0050
 4851TIP3    H135968   5.291   1.328  13.421 -1.1294  1.1161 -0.5409
 4851TIP3    H235969   5.406   1.424  13.401  0.4832 -0.4873  0.8267
 4852TIP3   OH235970   4.678   6.146   2.096 -0.1612 -0.1123 -0.5264
 4852TIP3    H135971   4.691   6.054   2.072 -0.7797 -0.3420 -0.0045
 4852TIP3    H235972   4.766   6.184   2.093  0.2096 -0.9050 -0.0239
 4853TIP3   OH235973   5.544   5.141  14.173 -0.0653 -0.1323 -0.2043
 4853TIP3    H135974   5.535   5.116  14.081 -0.1372  1.4766 -0.6481
 4853TIP3    H235975   5.638   5.158  14.183 -0.0217 -0.5491  0.0878
 4854TIP3   OH235976   0.235   3.154   4.361  0.4376 -0.1629 -0.0178
 4854TIP3    H135977   0.163   3.156   4.299 -0.2966  4.3581  0.8249
 4854TIP3    H235978   0.196   3.124   4.443  0.8053 -3.2109 -0.8653
 4855TIP3   OH235979   0.228   3.245   3.733 -0.0976  0.3678 -0.1417
 4855TIP3    H135980   0.193   3.316   3.679 -0.6055 -0.8940 -1.4984
 4855TIP3    H235981   0.230   3.169   3.675  1.1565 -0.5605  1.0660
 4856TIP3   OH235982   2.975   2.339   4.856 -0.4334 -0.1836  0.0357
 4856TIP3    H135983   3.057   2.292   4.845 -0.6402 -0.4907 -0.1769
 4856TIP3    H235984   2.962   2.385   4.773  0.1528  0.8563  0.5089
 4857TIP3   OH235985   2.056   5.052   2.155  0.0196  0.9040 -0.0839
 4857TIP3    H135986   2.064   5.013   2.068  0.3158 -0.7372  0.6587
 4857TIP3    H235987   2.130   5.016   2.204 -1.4999 -0.0911  1.5405
 4858TIP3   OH235988   3.122   2.084   6.302  0.5467  0.4206 -0.1096
 4858TIP3    H135989   3.168   2.150   6.355 -0.7700 -0.0461  1.6158
 4858TIP3    H235990   3.091   2.133   6.226  1.4390  1.3431  0.1075
 4859TIP3   OH235991   4.457   4.478  16.918 -0.1649  0.1516  0.3754
 4859TIP3    H135992   4.396   4.552  16.919  1.3780  1.5242 -1.7005
 4859TIP3    H235993   4.538   4.513  16.956  0.4533 -0.5664 -0.2521
 4860TIP3   OH235994   5.787   5.038   1.677 -0.9344 -0.0545  0.0626
 4860TIP3    H135995   5.750   4.962   1.632  1.3252 -0.9548 -0.3871
 4860TIP3    H235996   5.827   5.001   1.756  0.2061  0.6470 -0.1707
 4861TIP3   OH235997   4.650   3.729  16.073  0.3807 -0.5089  0.3359
 4861TIP3    H135998   4.594   3.715  16.149  0.5353 -2.4485  0.1268
 4861TIP3    H235999   4.607   3.797  16.023 -0.2929  0.0143  1.6142
 4862TIP3   OH236000   4.616   2.704  16.367  0.0553  0.0243  0.0485
 4862TIP3    H136001   4.710   2.701  16.384 -0.0171  1.0147  0.6760
 4862TIP3    H236002   4.578   2.736  16.449 -0.8817 -0.8855 -0.0120
 4863TIP3   OH236003   6.475   2.304   0.076  0.5368  0.5051  0.1301
 4863TIP3    H136004   6.545   2.244   0.102  0.0118 -0.0917  0.1954
 4863TIP3    H236005   6.394   2.253   0.089  0.0327  1.4805  0.8927
 4864TIP3   OH236006   0.230   3.422  11.765 -0.1849 -0.2091 -0.5667
 4864TIP3    H136007   0.250   3.354  11.830  0.3677 -1.0510 -1.6035
 4864TIP3    H236008   0.147   3.460  11.794  0.7348  0.3683  1.3970
 4865TIP3   OH236009   0.871   1.094   2.023 -0.4383  0.3191 -0.7529
 4865TIP3    H136010   0.839   1.039   1.951  0.2234 -1.0193 -0.0341
 4865TIP3    H236011   0.966   1.093   2.013 -0.2796 -0.8110  0.8158
 4866TIP3   OH236012   4.037   6.618  14.041 -0.4680 -0.4404  0.3384
 4866TIP3    H136013   4.009   6.549  14.102 -1.6136 -0.2032  0.0877
 4866TIP3    H236014   3.992   6.597  13.959  0.0646 -0.0312 -0.0556
 4867TIP3   OH236015   4.777   0.725   4.840 -1.0272  0.1697 -0.4588
 4867TIP3    H136016   4.743   0.799   4.791  0.5614 -0.3020 -2.3136
 4867TIP3    H236017   4.713   0.655   4.825 -1.1808  0.3890 -0.8365
 4868TIP3   OH236018   0.727   0.318   4.041  0.7711 -0.3456 -0.1516
 4868TIP3    H136019   0.661   0.358   3.984 -0.0337 -2.0981 -0.4631
 4868TIP3    H236020   0.801   0.379   4.036 -0.5644  1.3369 -0.2753
 4869TIP3   OH236021   0.519   4.159  14.898  0.4423  0.2073  0.1468
 4869TIP3    H136022   0.586   4.203  14.950 -1.2493  1.0870  1.6247
 4869TIP3    H236023   0.548   4.067  14.895  2.1221  0.7240  0.0441
 4870TIP3   OH236024   4.711   5.327  10.736 -0.0746  0.1509 -0.3184
 4870TIP3    H136025   4.758   5.271  10.798  1.4265  1.9910  0.2625
 4870TIP3    H236026   4.633   5.276  10.712  0.9485 -1.9315  0.6047
 4871TIP3   OH236027   2.456   2.708   4.826 -0.2249  0.1600  0.1664
 4871TIP3    H136028   2.490   2.757   4.751  1.2381  0.4006  0.9736
 4871TIP3    H236029   2.532   2.664   4.863 -0.5582  1.6210  2.6985
 4872TIP3   OH236030   2.126   0.914   4.087  0.2446 -0.0560  0.3537
 4872TIP3    H136031   2.179   0.856   4.032 -2.2978 -3.8560  1.7111
 4872TIP3    H236032   2.063   0.954   4.026  0.6869 -0.3374 -0.2906
 4873TIP3   OH236033   4.249   1.550  16.113  0.2959 -0.0320 -0.1694
 4873TIP3    H136034   4.199   1.598  16.179  2.5073  2.3491 -0.1244
 4873TIP3    H236035   4.183   1.518  16.051 -1.5079  0.4412  1.4592
 4874TIP3   OH236036   3.752   2.725   6.380 -0.2814  0.1012  0.0184
 4874TIP3    H136037   3.669   2.770   6.395  0.9695  2.4991  0.0587
 4874TIP3    H236038   3.814   2.795   6.359  1.8512 -1.5778  0.4697
 4875TIP3   OH236039   0.382   6.721  15.100 -0.4381 -0.1495  0.5813
 4875TIP3    H136040   0.443   6.763  15.161 -1.8270  0.2854  1.6853
 4875TIP3    H236041   0.308   6.781  15.095 -1.3521 -1.2827  0.2401
 4876TIP3   OH236042   3.057   3.603  12.184 -0.2296 -0.5362 -0.0267
 4876TIP3    H136043   3.108   3.590  12.264  0.2312 -1.0833 -0.4048
 4876TIP3    H236044   2.997   3.674  12.205  0.6874  0.1073  0.4326
 4877TIP3   OH236045   2.522   4.645   3.153  0.3571 -0.5195  0.1909
 4877TIP3    H136046   2.476   4.624   3.072  2.0915  1.7944 -1.4503
 4877TIP3    H236047   2.613   4.619   3.136  0.6007 -0.7081  1.6864
 4878TIP3   OH236048   0.711   3.959   3.789 -0.0070  0.3221 -0.2743
 4878TIP3    H136049   0.619   3.985   3.788 -0.1700 -0.2261  0.2635
 4878TIP3    H236050   0.747   4.001   3.867 -0.1502 -0.6289  0.3172
 4879TIP3   OH236051   6.287   4.544   6.578  0.3614 -0.3250  0.1372
 4879TIP3    H136052   6.273   4.638   6.563  0.5334 -0.6841 -2.3671
 4879TIP3    H236053   6.371   4.539   6.623 -1.0331  0.9043  3.0094
 4880TIP3   OH236054   1.148   5.520   1.367 -0.1466 -0.1607 -0.0026
 4880TIP3    H136055   1.160   5.475   1.284 -0.9896 -0.8499  0.2482
 4880TIP3    H236056   1.076   5.473   1.410  0.3438  0.1355  1.1493
 4881TIP3   OH236057   3.835   4.152   4.307 -0.7778  0.3555 -0.3383
 4881TIP3    H136058   3.856   4.084   4.371 -1.0779 -0.5205 -1.1428
 4881TIP3    H236059   3.785   4.105   4.239 -1.0835  1.4070 -0.8448
 4882TIP3   OH236060   5.666   0.529  16.385  0.5140 -0.0433 -0.5436
 4882TIP3    H136061   5.671   0.619  16.417  0.8722 -0.0419 -0.6075
 4882TIP3    H236062   5.697   0.534  16.295 -0.4527 -0.0555 -0.8916
 4883TIP3   OH236063   0.346   1.287   5.517  0.1063 -0.1198 -0.5260
 4883TIP3    H136064   0.412   1.324   5.458 -0.9691  2.3278 -0.2730
 4883TIP3    H236065   0.273   1.264   5.459 -0.6542  1.5918 -0.2901
 4884TIP3   OH236066   2.913   2.155   1.939 -0.5102 -0.1197 -0.0040
 4884TIP3    H136067   2.891   2.125   1.851  0.3258  0.0909 -0.2924
 4884TIP3    H236068   2.926   2.075   1.990 -3.0338 -0.2738  0.4767
 4885TIP3   OH236069   0.530   6.765  14.886 -0.0158  0.5234 -0.2266
 4885TIP3    H136070   0.464   6.746  14.819 -0.2410  1.4031 -0.2560
 4885TIP3    H236071   0.485   6.747  14.969  0.6932 -1.9246 -0.3241
 4886TIP3   OH236072   1.381   4.502   4.955 -0.0484  0.1871  0.4665
 4886TIP3    H136073   1.342   4.433   4.902  0.6642  1.0727 -1.2437
 4886TIP3    H236074   1.354   4.584   4.912  2.1489  0.8639  0.2914
 4887TIP3   OH236075   4.800   0.051  13.082 -0.0782  0.0906 -0.6190
 4887TIP3    H136076   4.819   0.056  13.175 -2.7667 -0.7259  0.0229
 4887TIP3    H236077   4.870  -0.003  13.046  0.0134 -1.0705  1.2509
 4888TIP3   OH236078   2.831   0.669  15.695 -0.0595 -0.1281  0.5911
 4888TIP3    H136079   2.910   0.721  15.704  1.3856 -2.5294  2.5491
 4888TIP3    H236080   2.798   0.658  15.784 -1.9646 -0.1246 -0.0765
 4889TIP3   OH236081   0.448   0.466  16.782  0.1609 -0.1815  0.0809
 4889TIP3    H136082   0.393   0.500  16.710  1.3963  0.3507 -0.6207
 4889TIP3    H236083   0.447   0.371  16.770 -0.4388 -0.1643 -0.0438
 4890TIP3   OH236084   5.950   2.158   5.369 -0.6080  0.1289 -0.3187
 4890TIP3    H136085   5.952   2.253   5.381  1.4192 -0.1575  2.4602
 4890TIP3    H236086   6.036   2.138   5.332 -0.8549 -0.6518 -0.4584
 4891TIP3   OH236087   4.053   4.976  14.642  0.2425  0.4415 -0.0839
 4891TIP3    H136088   4.038   4.973  14.548  0.0449  0.8568 -0.0626
 4891TIP3    H236089   4.115   5.047  14.655 -0.6167  1.1487  0.2146
 4892TIP3   OH236090   1.197   2.538  11.438  0.4231 -0.0242 -0.2033
 4892TIP3    H136091   1.222   2.608  11.378 -0.6806 -0.8809 -1.7036
 4892TIP3    H236092   1.194   2.580  11.524 -1.4187  2.1138 -1.2396
 4893TIP3   OH236093   2.071   1.063  15.949  0.0945 -0.2073 -0.2656
 4893TIP3    H136094   2.137   1.110  15.899  1.9588 -1.8181  0.5997
 4893TIP3    H236095   2.027   1.007  15.885  1.5021 -1.2041 -0.3989
 4894TIP3   OH236096   5.304   0.783   4.144  0.0125  0.2038  0.0003
 4894TIP3    H136097   5.252   0.828   4.210  0.7920 -0.9717  1.4361
 4894TIP3    H236098   5.271   0.693   4.145  1.0492 -0.1783 -0.1600
 4895TIP3   OH236099   6.557   1.314   2.523 -0.2618 -0.1258 -0.2310
 4895TIP3    H136100   6.521   1.403   2.519  1.7675  0.8288  1.7365
 4895TIP3    H236101   6.651   1.327   2.537  0.2325 -2.5910 -1.0439
 4896TIP3   OH236102   0.986   3.136  15.232 -0.3248 -0.2436 -0.0642
 4896TIP3    H136103   0.924   3.100  15.168  1.4927 -0.6198 -1.6587
 4896TIP3    H236104   1.060   3.075  15.231 -0.1898 -0.1680  2.3117
 4897TIP3   OH236105   5.692   3.971   5.179 -0.2664 -0.3377 -0.0124
 4897TIP3    H136106   5.746   3.990   5.256  0.4727 -0.8885 -0.3792
 4897TIP3    H236107   5.704   4.047   5.121  0.7559 -0.8132 -0.4347
 4898TIP3   OH236108   1.936   5.245   1.517  0.0041 -0.1186  0.0075
 4898TIP3    H136109   1.885   5.254   1.436 -0.9770  0.3393  0.6691
 4898TIP3    H236110   1.872   5.255   1.587  0.4982 -2.4469  0.8492
 4899TIP3   OH236111   0.047   2.699  10.988 -0.0496 -0.2334  0.2644
 4899TIP3    H136112   0.056   2.670  10.897  0.3413 -0.0694  0.2492
 4899TIP3    H236113   0.129   2.671  11.030 -0.9058 -1.7633  0.9592
 4900TIP3   OH236114   5.651   6.400  11.929 -0.6735  0.2781  0.1983
 4900TIP3    H136115   5.567   6.378  11.969 -1.3761  2.3189 -0.0872
 4900TIP3    H236116   5.662   6.337  11.858 -2.0666  0.1467  0.1024
 4901TIP3   OH236117   2.277   6.451  15.838  0.3462 -0.4660 -0.0123
 4901TIP3    H136118   2.337   6.513  15.795 -0.1926 -1.1028 -1.6907
 4901TIP3    H236119   2.328   6.370  15.846  0.5468 -0.2617  0.8437
 4902TIP3   OH236120   4.232   6.174  14.978  0.1030  0.1633  0.5352
 4902TIP3    H136121   4.195   6.256  14.946 -0.9461 -0.2570  0.6361
 4902TIP3    H236122   4.204   6.169  15.069  1.5759  0.4893  1.0287
 4903TIP3   OH236123   6.057   2.411   1.366 -0.0232  0.5177  0.7978
 4903TIP3    H136124   5.979   2.374   1.325  0.9595 -1.6866  0.7808
 4903TIP3    H236125   6.064   2.499   1.330 -1.4662  0.0899 -0.6134
 4904TIP3   OH236126   2.808   4.717  13.185  0.5748  0.3864  0.5701
 4904TIP3    H136127   2.806   4.809  13.157  0.7382  0.3842  0.5500
 4904TIP3    H236128   2.901   4.695  13.189  0.5031 -0.1044 -0.4801
 4905TIP3   OH236129   3.837   2.686   1.871 -0.2786  0.6402  0.7667
 4905TIP3    H136130   3.925   2.712   1.844 -0.2869  0.7267  0.8199
 4905TIP3    H236131   3.806   2.628   1.802  0.2642 -0.3090  1.3058
 4906TIP3   OH236132   5.950   3.470  11.513  0.1205 -0.2080 -0.5801
 4906TIP3    H136133   5.923   3.400  11.454  0.3966 -0.6245 -0.2119
 4906TIP3    H236134   5.982   3.539  11.456 -0.4323 -0.2581 -0.9584
 4907TIP3   OH236135   0.137   1.234   6.201  0.5288 -0.2343  0.2981
 4907TIP3    H136136   0.225   1.248   6.236  0.5449 -0.0387  0.1782
 4907TIP3    H236137   0.111   1.149   6.235  0.5213 -0.0172  0.8402
 4908TIP3   OH236138   0.656   6.224  15.285 -0.1516 -0.0154 -0.0232
 4908TIP3    H136139   0.691   6.247  15.371 -0.0342 -1.0644  0.2107
 4908TIP3    H236140   0.590   6.156  15.302  0.0644 -0.4261 -0.7806
 4909TIP3   OH236141   4.696   1.267   5.742 -0.2862 -0.3470  0.0866
 4909TIP3    H136142   4.678   1.286   5.834  1.9475  2.3978  0.0145
 4909TIP3    H236143   4.646   1.333   5.694 -0.6696 -1.1678 -0.6474
 4910TIP3   OH236144   4.582   4.081  16.629  0.3166 -0.1656 -0.0547
 4910TIP3    H136145   4.648   4.105  16.564  0.4132  1.6655  0.6953
 4910TIP3    H236146   4.499   4.101  16.587  0.3965  1.5084  0.5594
 4911TIP3   OH236147   5.268   0.916   0.050  0.3209  0.5441 -0.1379
 4911TIP3    H136148   5.330   0.985   0.075  1.4629 -0.2128 -0.8269
 4911TIP3    H236149   5.212   0.957  -0.016 -0.0761  1.3089  0.6637
 4912TIP3   OH236150   0.323   0.885   1.290 -0.4214  0.0239 -0.4542
 4912TIP3    H136151   0.389   0.905   1.356  0.1854  0.8683 -1.3148
 4912TIP3    H236152   0.285   0.970   1.268 -0.1369 -0.1620 -1.6996
 4913TIP3   OH236153   5.934   6.701   3.483 -0.0945 -0.4088 -0.0980
 4913TIP3    H136154   5.880   6.745   3.549 -1.6954 -2.9907  0.3918
 4913TIP3    H236155   6.002   6.765   3.461 -1.5191  1.7577  1.5725
 4914TIP3   OH236156   3.821   5.244   0.606 -0.1213 -0.0488  0.0696
 4914TIP3    H136157   3.818   5.294   0.688 -0.6406  0.3403 -0.1886
 4914TIP3    H236158   3.855   5.306   0.542 -0.2571 -0.1855 -0.1324
 4915TIP3   OH236159   4.018   1.876  12.752 -0.5284 -0.6392 -0.1944
 4915TIP3    H136160   4.027   1.955  12.698 -2.5468 -0.7656 -0.7532
 4915TIP3    H236161   4.103   1.834  12.747  1.4060  2.7337  2.0746
 4916TIP3   OH236162   0.146   0.952   6.015 -0.2581 -0.0145  0.3718
 4916TIP3    H136163   0.225   0.921   6.060 -1.0042  0.7666  2.2678
 4916TIP3    H236164   0.178   0.986   5.931  1.0999 -1.8712  0.1104
 4917TIP3   OH236165   4.753   0.208   0.873 -0.0804  0.0118 -0.3748
 4917TIP3    H136166   4.740   0.134   0.814 -3.0917 -0.1575  0.4269
 4917TIP3    H236167   4.806   0.172   0.945  1.4642 -0.4037 -1.6831
 4918TIP3   OH236168   1.511   1.293   5.304 -0.1888  0.3491 -0.1875
 4918TIP3    H136169   1.605   1.276   5.305 -0.1780  0.4103  0.1411
 4918TIP3    H236170   1.501   1.373   5.356 -0.6166 -0.7109  1.3845
 4919TIP3   OH236171   2.124   3.897   4.604 -0.4681  0.3633 -0.2250
 4919TIP3    H136172   2.100   3.879   4.695  0.4087 -1.9720 -0.4087
 4919TIP3    H236173   2.181   3.974   4.609 -1.1544  0.8062  1.0828
 4920TIP3   OH236174   6.242   3.840   4.779 -0.2957  0.5145  0.1073
 4920TIP3    H136175   6.315   3.779   4.778  0.4380  1.3900 -2.1323
 4920TIP3    H236176   6.188   3.814   4.704 -2.1847  0.0033  1.6186
 4921TIP3   OH236177   1.863   1.838   6.555  0.5548  0.5148 -0.6065
 4921TIP3    H136178   1.937   1.880   6.600  0.6966  0.7569 -1.0621
 4921TIP3    H236179   1.903   1.793   6.481  0.2971  0.2723 -0.5971
 4922TIP3   OH236180   0.859   4.336  12.786 -0.0755  0.1268 -0.2940
 4922TIP3    H136181   0.953   4.321  12.789 -0.3981 -1.9961 -0.0170
 4922TIP3    H236182   0.828   4.316  12.874 -1.2623 -2.6994 -1.3102
 4923TIP3   OH236183   6.303   4.311   1.222 -0.3447 -0.2213  0.1213
 4923TIP3    H136184   6.228   4.270   1.178  0.3775  0.5807 -1.9028
 4923TIP3    H236185   6.269   4.337   1.307 -2.0107 -1.0870 -0.2529
 4924TIP3   OH236186   3.867   3.111   0.855  0.9744  0.2531 -0.3374
 4924TIP3    H136187   3.866   3.046   0.926  0.1450  0.8270  0.1783
 4924TIP3    H236188   3.958   3.142   0.853  1.5689 -1.4822 -1.1082
 4925TIP3   OH236189   4.891   4.530   0.133 -0.0632 -0.2895 -0.0421
 4925TIP3    H136190   4.874   4.535   0.227 -2.5400 -1.0244 -0.3996
 4925TIP3    H236191   4.986   4.536   0.125  0.0792  1.7129  2.3646
 4926TIP3   OH236192   1.195   3.305  15.273  0.9734  0.2646  0.1012
 4926TIP3    H136193   1.187   3.396  15.245  1.7746 -0.3467 -2.3211
 4926TIP3    H236194   1.110   3.266  15.251  0.3720  0.5893  1.8218
 4927TIP3   OH236195   1.623   6.116   1.930  0.5450 -0.0421  0.0159
 4927TIP3    H136196   1.595   6.146   2.016  0.7284 -1.9851  0.7744
 4927TIP3    H236197   1.689   6.179   1.902 -2.5487  3.0781 -0.6165
 4928TIP3   OH236198   4.325   4.295  11.682 -0.2129  0.1930  0.2784
 4928TIP3    H136199   4.318   4.371  11.625 -0.7508 -2.3692 -3.2264
 4928TIP3    H236200   4.410   4.305  11.724  1.0308  1.2780 -2.3466
 4929TIP3   OH236201   0.216   6.433  11.976 -0.4935 -0.2165  0.3297
 4929TIP3    H136202   0.308   6.428  12.003 -0.5647 -0.9333  0.4556
 4929TIP3    H236203   0.176   6.493  12.039  0.1548  1.1172 -0.5031
 4930TIP3   OH236204   2.381   0.065  14.495 -0.0961  0.1310 -0.3633
 4930TIP3    H136205   2.412   0.028  14.577 -0.6245 -0.6219 -0.4945
 4930TIP3    H236206   2.403   0.158  14.500 -1.9221  0.5064  1.5046
 4931TIP3   OH236207   0.065   0.494   3.074 -0.1152  0.6719  0.4354
 4931TIP3    H136208   0.147   0.538   3.098  0.9841 -0.7285 -0.7225
 4931TIP3    H236209   0.042   0.442   3.151  1.1788 -0.5347  0.0109
 4932TIP3   OH236210   1.651   6.224   1.485 -0.0982 -0.3008  0.4766
 4932TIP3    H136211   1.714   6.248   1.416 -0.4031 -0.6827  0.0613
 4932TIP3    H236212   1.581   6.289   1.478  0.4443  0.3807  1.2163
 4933TIP3   OH236213   6.745   5.461   0.237  0.1218  0.8305 -0.1655
 4933TIP3    H136214   6.690   5.422   0.305  1.6525 -0.9950  0.0451
 4933TIP3    H236215   6.683   5.509   0.181 -1.7789 -1.6218 -0.2410
 4934TIP3   OH236216   0.739   4.724   2.871  0.0046 -0.1416  0.5880
 4934TIP3    H136217   0.780   4.773   2.942 -0.7906  1.4805 -0.0458
 4934TIP3    H236218   0.805   4.722   2.802 -0.3936  1.1282  0.1526
 4935TIP3   OH236219   0.918   0.823  14.706 -0.0711 -0.3790 -0.3115
 4935TIP3    H136220   0.938   0.833  14.799 -0.9516 -0.8504 -0.0573
 4935TIP3    H236221   0.910   0.913  14.673 -0.2155 -0.2104  0.1773
 4936TIP3   OH236222   4.732   4.128   1.111  0.0310 -0.5486 -0.0705
 4936TIP3    H136223   4.789   4.164   1.043 -1.7833  0.2040 -1.2290
 4936TIP3    H236224   4.678   4.201   1.140 -0.9130 -1.4188  0.4278
 4937TIP3   OH236225   5.355   2.130  10.609  0.3150 -0.1040  0.0311
 4937TIP3    H136226   5.333   2.043  10.642 -2.4984  0.4736 -0.1786
 4937TIP3    H236227   5.388   2.114  10.520  0.6122 -1.0102  0.2965
 4938TIP3   OH236228   6.753   1.839  13.641  0.3027 -0.0431 -0.4654
 4938TIP3    H136229   6.820   1.893  13.598  0.5236 -1.2077 -1.6137
 4938TIP3    H236230   6.772   1.846  13.734  1.8805 -0.1909 -0.7725
 4939TIP3   OH236231   5.283   4.281  14.612 -0.0759  0.0974 -0.3340
 4939TIP3    H136232   5.362   4.282  14.666  0.1295 -0.0051 -0.6308
 4939TIP3    H236233   5.291   4.201  14.560  0.6548  1.1691 -1.9058
 4940TIP3   OH236234   4.392   3.151  15.167  0.2865  0.1593 -0.4147
 4940TIP3    H136235   4.390   3.079  15.229  0.0913 -0.2579 -0.9010
 4940TIP3    H236236   4.478   3.146  15.127 -0.1013 -0.4391 -1.1867
 4941TIP3   OH236237   4.051   2.442   4.052 -0.2206 -0.1621  0.4097
 4941TIP3    H136238   4.063   2.347   4.047 -0.6482 -0.1372 -1.1646
 4941TIP3    H236239   3.956   2.454   4.060 -0.1145  0.1192  1.3759
 4942TIP3   OH236240   6.749   4.243  14.672  0.2241 -0.4178  0.3957
 4942TIP3    H136241   6.769   4.217  14.763  0.1027  0.3199  0.6311
 4942TIP3    H236242   6.822   4.299  14.647 -0.8108  1.1010  0.7622
 4943TIP3   OH236243   0.038   2.542   5.893  0.3024 -0.8763  0.7710
 4943TIP3    H136244   0.059   2.606   5.825  1.5316 -0.7756  1.2328
 4943TIP3    H236245   0.038   2.458   5.847 -0.0466 -0.6777  0.4097
 4944TIP3   OH236246   1.586   6.078  12.130  0.2031 -0.1179  0.4500
 4944TIP3    H136247   1.523   6.060  12.060  2.4179  0.6428 -1.8239
 4944TIP3    H236248   1.539   6.135  12.191 -1.9010 -1.1150 -0.2014
 4945TIP3   OH236249   4.406   4.269   4.397  0.8663  0.0722  0.1094
 4945TIP3    H136250   4.377   4.178   4.409 -0.6632  0.6944  1.2715
 4945TIP3    H236251   4.332   4.313   4.356  1.1626  1.0567  0.6082
 4946TIP3   OH236252   1.121   1.535   4.347  0.2113  0.2286  0.2089
 4946TIP3    H136253   1.048   1.595   4.359  0.4935  0.3652  1.2989
 4946TIP3    H236254   1.169   1.570   4.272  0.4437  1.4436  0.9112
 4947TIP3   OH236255   2.118   3.734  13.535  0.3214  0.1878  0.3050
 4947TIP3    H136256   2.091   3.826  13.526  0.4248  0.1418 -0.5264
 4947TIP3    H236257   2.209   3.733  13.504  0.2814 -0.2127  0.1937
 4948TIP3   OH236258   4.402   0.294   0.576 -0.1545 -0.0957  0.4236
 4948TIP3    H136259   4.339   0.270   0.509 -1.6579 -0.2682  1.8635
 4948TIP3    H236260   4.474   0.232   0.564 -0.3575 -0.0561 -1.0753
 4949TIP3   OH236261   6.502   6.699  16.900  0.4300  0.1556  0.3011
 4949TIP3    H136262   6.485   6.610  16.930  0.9959  0.7113  2.3909
 4949TIP3    H236263   6.595   6.713  16.919  0.0402  1.6239  1.2225
 4950TIP3   OH236264   1.659   3.491  14.477  0.0551  0.4903  0.4694
 4950TIP3    H136265   1.608   3.568  14.450  0.3988  0.6938  0.3957
 4950TIP3    H236266   1.630   3.474  14.567 -1.8471 -0.8227 -0.3652
 4951TIP3   OH236267   1.708   1.458  13.529  0.4869 -0.3346  0.5289
 4951TIP3    H136268   1.685   1.520  13.598 -0.5072 -1.2332  1.0100
 4951TIP3    H236269   1.761   1.391  13.574  0.0498 -0.7851  0.3692
 4952TIP3   OH236270   5.049   5.615  14.739 -0.2829 -0.4908 -0.0734
 4952TIP3    H136271   4.986   5.581  14.803 -0.4114  1.0728  0.6512
 4952TIP3    H236272   5.112   5.543  14.727 -0.0196 -0.6672  2.1472
 4953TIP3   OH236273   1.924   1.776  14.630  0.9517  0.2924 -0.2106
 4953TIP3    H136274   1.878   1.836  14.572  0.6243 -0.1005 -0.3493
 4953TIP3    H236275   1.988   1.832  14.675  0.6016  0.7623 -0.2893
 4954TIP3   OH236276   0.393   1.963   0.373  0.6478  0.0196 -0.3783
 4954TIP3    H136277   0.459   1.950   0.305  3.0639  1.4749  1.6223
 4954TIP3    H236278   0.381   2.058   0.376  2.0039  0.1487  2.5004
 4955TIP3   OH236279   3.084   3.541  15.241  0.3610  0.1358 -0.0907
 4955TIP3    H136280   3.160   3.483  15.247 -0.1606 -0.4623  0.7930
 4955TIP3    H236281   3.009   3.483  15.247 -0.1691  0.8010 -0.2439
 4956TIP3   OH236282   2.813   2.220   5.046 -0.2689  0.5944 -0.3189
 4956TIP3    H136283   2.857   2.255   4.968  0.8382  0.1512  0.1040
 4956TIP3    H236284   2.879   2.166   5.089 -1.7095 -1.3620 -0.5087
 4957TIP3   OH236285   4.903   4.212   2.599  0.3294  0.0514  0.5819
 4957TIP3    H136286   4.830   4.240   2.655  0.3607  0.8318  0.2444
 4957TIP3    H236287   4.873   4.232   2.510  0.7966  0.0234  0.4168
 4958TIP3   OH236288   5.037   3.798  14.755 -0.2744 -0.7396 -0.4722
 4958TIP3    H136289   5.075   3.765  14.673  1.1601  1.8869 -0.9478
 4958TIP3    H236290   5.026   3.892  14.739 -2.8463 -0.6876  1.2971
 4959TIP3   OH236291   6.108   4.567   4.503  0.2291  0.2263 -0.3027
 4959TIP3    H136292   6.145   4.650   4.531 -0.3817 -0.1197  1.5801
 4959TIP3    H236293   6.014   4.575   4.521  0.2733 -1.1458  0.5796
 4960TIP3   OH236294   3.674   1.620   5.883  0.2530  0.3482 -0.3148
 4960TIP3    H136295   3.636   1.578   5.960  0.7029 -1.1288 -0.8916
 4960TIP3    H236296   3.748   1.565   5.859 -0.9500 -0.2549 -2.8685
 4961TIP3   OH236297   0.876   0.002  15.222  0.0622  0.2713  0.3462
 4961TIP3    H136298   0.910   0.060  15.154 -3.0208  0.7694 -0.8560
 4961TIP3    H236299   0.873   0.057  15.300 -1.8745  1.5233 -0.5470
 4962TIP3   OH236300   3.547   3.245   0.702  0.4950  0.2495 -0.4656
 4962TIP3    H136301   3.494   3.182   0.751  0.3537  0.8482  0.1524
 4962TIP3    H236302   3.595   3.294   0.769  2.7914 -1.1193 -1.0510
 4963TIP3   OH236303   6.007   4.455   4.083  0.4611  0.0409  0.0616
 4963TIP3    H136304   6.007   4.546   4.113 -1.1990  0.3598 -0.8741
 4963TIP3    H236305   6.037   4.405   4.159 -0.4029  1.1796  1.1819
 4964TIP3   OH236306   3.608   3.427  12.972 -0.3009 -0.0815  0.8304
 4964TIP3    H136307   3.561   3.412  12.890 -0.7401 -0.7744  1.2013
 4964TIP3    H236308   3.609   3.342  13.016 -1.4721  0.6086  2.2697
 4965TIP3   OH236309   6.290   6.209   0.327 -0.0231 -0.4911 -0.3860
 4965TIP3    H136310   6.221   6.202   0.261 -0.3759 -1.3429  0.0620
 4965TIP3    H236311   6.248   6.180   0.408  0.9866 -1.4192 -0.1889
 4966TIP3   OH236312   3.421   1.353   3.047  0.6084  0.0697 -0.3852
 4966TIP3    H136313   3.409   1.324   2.957  2.0170 -0.8770 -0.2829
 4966TIP3    H236314   3.462   1.439   3.040 -0.4535  0.5584 -0.6547
 4967TIP3   OH236315   0.897   2.920   1.469 -0.4100  0.7939 -0.1738
 4967TIP3    H136316   0.821   2.955   1.516 -0.1699 -0.4197  1.1478
 4967TIP3    H236317   0.861   2.881   1.389 -1.1320  0.5468  0.2754
 4968TIP3   OH236318   3.690   4.007   4.712 -0.0139 -0.1075  0.0168
 4968TIP3    H136319   3.756   4.046   4.655  0.1348  0.4586  0.5718
 4968TIP3    H236320   3.737   3.983   4.792 -0.1452 -1.2603 -0.2446
 4969TIP3   OH236321   3.407   2.223   1.051  0.0655  0.0354 -0.2245
 4969TIP3    H136322   3.444   2.190   0.969 -0.7205 -1.6045  0.0592
 4969TIP3    H236323   3.344   2.156   1.078 -1.3520  1.6250  0.5457
 4970TIP3   OH236324   5.654   2.370   5.019  0.2770  0.1078 -0.3349
 4970TIP3    H136325   5.680   2.459   4.996  1.1013  0.0333  0.2623
 4970TIP3    H236326   5.563   2.378   5.048  0.1867  0.6704 -0.7574
 4971TIP3   OH236327   0.896   2.674  14.231 -0.1825  0.3839 -0.6876
 4971TIP3    H136328   0.834   2.741  14.259  1.9177  1.6448  1.1344
 4971TIP3    H236329   0.975   2.723  14.207  1.4120 -1.4077  0.7070
 4972TIP3   OH236330   4.268   0.977   3.031  0.1408 -0.3364  0.1415
 4972TIP3    H136331   4.227   0.893   3.052 -0.3418 -0.0332  0.3973
 4972TIP3    H236332   4.339   0.986   3.095 -0.5458  0.0037  0.8603
 4973TIP3   OH236333   1.955   0.058   6.556 -0.5973 -0.3056 -0.0794
 4973TIP3    H136334   2.017   0.132   6.551 -1.3013  0.2243 -1.4223
 4973TIP3    H236335   1.873   0.094   6.522 -0.9474 -1.7164 -0.7388
 4974TIP3   OH236336   2.247   1.846  13.706  0.2218  0.1952 -0.4027
 4974TIP3    H136337   2.283   1.776  13.652  0.9596  0.2815 -0.0312
 4974TIP3    H236338   2.175   1.883  13.654 -0.5402 -1.2117 -0.3522
 4975TIP3   OH236339   2.830   1.674  13.116 -0.2074 -0.7597 -0.0220
 4975TIP3    H136340   2.737   1.654  13.113 -0.6374  1.2792 -1.6005
 4975TIP3    H236341   2.839   1.735  13.189 -0.6360  1.3228 -1.6490
 4976TIP3   OH236342   3.029   2.450   5.853 -0.5060  0.1344  0.3260
 4976TIP3    H136343   2.940   2.454   5.887  0.0285 -0.0845  1.8119
 4976TIP3    H236344   3.057   2.360   5.868  0.1804  0.3575  0.4282
 4977TIP3   OH236345   2.947   2.552   0.857  0.7224 -0.6510 -0.2077
 4977TIP3    H136346   2.909   2.491   0.921  1.3768 -2.1927 -1.2536
 4977TIP3    H236347   3.023   2.505   0.822  2.5411  1.6692  0.5537
 4978TIP3   OH236348   0.067   2.501  13.141 -0.1052  0.6431 -0.2622
 4978TIP3    H136349   0.060   2.585  13.187 -1.1246  0.8773 -0.8273
 4978TIP3    H236350  -0.024   2.473  13.130  0.2764 -1.1791  1.1023
 4979TIP3   OH236351   0.330   0.017  13.129  0.4682 -0.7918 -0.6287
 4979TIP3    H136352   0.384   0.002  13.052 -0.4668  0.3547 -1.5221
 4979TIP3    H236353   0.268   0.085  13.102  0.5184  0.0603  1.3102
 4980TIP3   OH236354   5.714   4.361   0.635 -0.0659 -0.3011  0.4669
 4980TIP3    H136355   5.689   4.388   0.547 -1.5493  0.4795  1.0947
 4980TIP3    H236356   5.807   4.338   0.629 -0.9369 -3.4123 -1.9891
 4981TIP3   OH236357   3.806   5.140   0.013  0.8086  0.2824  0.2457
 4981TIP3    H136358   3.824   5.215   0.069  1.5588  0.0521  0.3188
 4981TIP3    H236359   3.749   5.084   0.066  1.5833  0.0259  0.8192
 4982TIP3   OH236360   1.944   3.987   1.432  0.0343 -0.1564  0.4536
 4982TIP3    H136361   1.861   4.010   1.390  0.7392  0.1606 -0.8021
 4982TIP3    H236362   1.945   3.891   1.433 -0.3284 -0.1604  0.4483
 4983TIP3   OH236363   0.286   3.323   1.126  0.2290  0.5558 -0.7135
 4983TIP3    H136364   0.374   3.349   1.097 -0.1734  0.6529 -1.8849
 4983TIP3    H236365   0.232   3.333   1.048 -0.5410 -0.8860 -0.3730
 4984TIP3   OH236366   0.944   0.804  13.100 -0.4500 -0.5704  0.1544
 4984TIP3    H136367   0.857   0.839  13.118 -0.1308  1.6296 -2.3664
 4984TIP3    H236368   0.972   0.848  13.020  2.9314 -1.3494  0.8341
 4985TIP3   OH236369   3.721   6.689  11.805 -1.0345  0.3080  0.0116
 4985TIP3    H136370   3.809   6.680  11.840 -0.2794  1.0069 -1.6614
 4985TIP3    H236371   3.695   6.778  11.827 -0.9001  0.4593 -0.4461
 4986TIP3   OH236372   1.798   2.111  14.738 -0.1548 -0.1033 -0.0095
 4986TIP3    H136373   1.742   2.034  14.751 -0.5078 -0.1065 -1.4556
 4986TIP3    H236374   1.744   2.171  14.687  1.1080 -0.0467 -1.3090
 4987TIP3   OH236375   1.618   2.783   1.357 -0.1194 -0.0038 -0.0074
 4987TIP3    H136376   1.530   2.758   1.329 -0.1057  1.6426 -1.5454
 4987TIP3    H236377   1.612   2.785   1.453 -1.0959 -2.2090  0.0171
 4988TIP3   OH236378   1.149   4.886   4.411 -0.2465  0.5330  0.2500
 4988TIP3    H136379   1.170   4.820   4.478 -0.3835  1.3505  1.1019
 4988TIP3    H236380   1.184   4.968   4.447 -0.2297  0.9551 -0.7302
 4989TIP3   OH236381   4.566   3.818   2.805  0.0417 -1.0871  0.0291
 4989TIP3    H136382   4.600   3.746   2.752  0.6950 -0.3839 -0.5307
 4989TIP3    H236383   4.520   3.874   2.743  0.2157 -0.6195  0.3155
 4990TIP3   OH236384   2.898   4.109  12.866  0.4142 -0.4700  0.6074
 4990TIP3    H136385   2.934   4.197  12.859 -0.9438  0.2384  2.1536
 4990TIP3    H236386   2.846   4.097  12.787  0.0343  0.3867  0.7278
 4991TIP3   OH236387   1.858   2.499   5.404  0.3141  0.2774  0.4379
 4991TIP3    H136388   1.846   2.528   5.314 -0.4614  0.8138  0.7024
 4991TIP3    H236389   1.776   2.523   5.448  1.0991  0.9971  1.5389
 4992TIP3   OH236390   4.838   2.962   6.090 -0.5238 -0.5345 -0.1581
 4992TIP3    H136391   4.771   2.950   6.157 -0.4432  3.3829  0.7265
 4992TIP3    H236392   4.792   3.006   6.018  0.6745  0.5151 -0.2979
 4993TIP3   OH236393   0.239   0.328  12.439  0.1295 -0.4818 -0.1396
 4993TIP3    H136394   0.259   0.339  12.347 -2.2107  1.7410 -0.4666
 4993TIP3    H236395   0.190   0.408  12.462  0.0073 -1.3464  2.8067
 4994TIP3   OH236396   6.043   3.043  15.252 -0.4091 -0.4535  0.0367
 4994TIP3    H136397   6.108   3.095  15.299 -0.5628  0.1657 -0.4253
 4994TIP3    H236398   6.008   3.102  15.185 -0.1350 -1.3407 -0.9127
 4995TIP3   OH236399   5.431   6.775   2.429  0.3340  0.4616 -0.1356
 4995TIP3    H136400   5.501   6.730   2.382  0.3478  0.6396 -0.2867
 4995TIP3    H236401   5.433   6.865   2.395  0.2781  0.5637  0.1327
 4996TIP3   OH236402   1.228   2.569   4.786  0.3156  0.0812 -0.0911
 4996TIP3    H136403   1.171   2.524   4.724  1.0082  1.8835 -2.0960
 4996TIP3    H236404   1.317   2.548   4.758  0.6295  0.5838  0.5113
 4997TIP3   OH236405   3.409   3.973   4.784  0.1724  0.4096  0.2483
 4997TIP3    H136406   3.396   3.967   4.879  0.2913  0.8006  0.2885
 4997TIP3    H236407   3.499   4.001   4.773  0.1337  0.4489  0.0204
 4998TIP3   OH236408   5.620   2.082   5.642 -0.8236 -0.5773 -0.1129
 4998TIP3    H136409   5.617   1.992   5.676  1.2030  0.0445  1.8356
 4998TIP3    H236410   5.713   2.099   5.629 -1.1129  1.5540  0.4597
 4999TIP3   OH236411   0.576   1.613  14.341 -0.4687 -0.3156 -0.1214
 4999TIP3    H136412   0.632   1.624  14.417 -0.1425  0.4698 -0.4643
 4999TIP3    H236413   0.592   1.523  14.312 -1.7492 -1.1408  1.6215
 5000TIP3   OH236414   1.704   6.544   0.117 -0.5693  0.1274 -0.0964
 5000TIP3    H136415   1.769   6.473   0.121 -0.0037  0.6311 -0.2382
 5000TIP3    H236416   1.740   6.605   0.052 -0.7389  0.8613  0.4982
 5001TIP3   OH236417   1.325   1.224  16.118 -0.7256  0.0165  0.0025
 5001TIP3    H136418   1.347   1.134  16.097 -0.6240  0.1163 -0.3194
 5001TIP3    H236419   1.275   1.256  16.043 -1.8075 -0.1436  0.6509
 5002TIP3   OH236420   3.410   3.273   0.296  0.2206 -0.6245  0.2056
 5002TIP3    H136421   3.329   3.223   0.293 -0.7385  0.9009  0.2480
 5002TIP3    H236422   3.431   3.291   0.204 -1.1655  1.5864  0.2732
 5003TIP3   OH236423   0.911   6.413  13.439  0.1306  0.4243  0.1408
 5003TIP3    H136424   0.858   6.408  13.519 -0.9972 -2.0687 -0.7002
 5003TIP3    H236425   0.982   6.349  13.453  0.2712  0.4062 -0.6091
 5004TIP3   OH236426   0.988   5.689  16.557  0.0796  0.3615 -0.2752
 5004TIP3    H136427   1.084   5.694  16.552  0.0209  2.1343  0.0539
 5004TIP3    H236428   0.966   5.608  16.512  1.7040  0.2239 -0.8651
 5005TIP3   OH236429   2.759   0.365   5.412 -0.1986 -0.5649  0.2610
 5005TIP3    H136430   2.798   0.280   5.391 -1.4611 -0.4311 -2.9005
 5005TIP3    H236431   2.666   0.346   5.426 -0.5726  0.3649 -0.9395
 5006TIP3   OH236432   6.150   6.293   1.368 -0.6769 -0.2849  0.3267
 5006TIP3    H136433   6.211   6.267   1.299 -0.2032  2.3683 -0.3112
 5006TIP3    H236434   6.080   6.340   1.323 -0.7692  0.7813  1.5371
 5007TIP3   OH236435   3.426   5.188  15.979 -0.2216  0.2538  0.1448
 5007TIP3    H136436   3.463   5.257  16.034 -1.5282  0.2226  1.1101
 5007TIP3    H236437   3.366   5.141  16.038 -1.9662  0.4905 -1.4113
 5008TIP3   OH236438   3.091   2.019   1.773  0.2035  0.5269  0.2745
 5008TIP3    H136439   3.008   1.998   1.729  0.9326  1.4007 -1.5749
 5008TIP3    H236440   3.128   1.934   1.796 -0.1330  0.0246 -0.9559
 5009TIP3   OH236441   1.548   0.379  14.274 -0.0816  0.2329  0.4147
 5009TIP3    H136442   1.550   0.397  14.369 -0.3347 -2.7728  1.0201
 5009TIP3    H236443   1.455   0.376  14.252 -0.0430 -0.5376  0.3613
 5010TIP3   OH236444   5.536   6.148  13.014 -0.1803  0.3198 -0.0797
 5010TIP3    H136445   5.444   6.127  13.027  0.1591  0.3258  2.7776
 5010TIP3    H236446   5.572   6.071  12.970 -1.1588 -0.5619  0.6317
 5011TIP3   OH236447   6.406   6.332  16.742 -0.0841 -0.6338  0.4622
 5011TIP3    H136448   6.332   6.272  16.730 -0.8763  0.3495  0.3709
 5011TIP3    H236449   6.463   6.315  16.666 -0.9738 -0.3095 -0.2858
 5012TIP3   OH236450   3.459   6.478   1.550  0.0352 -0.1999 -0.2023
 5012TIP3    H136451   3.507   6.529   1.614 -1.5058 -0.9353  1.5746
 5012TIP3    H236452   3.425   6.403   1.599 -0.5690 -1.1575 -2.0307
 5013TIP3   OH236453   6.547   0.269   2.109 -0.0883  0.0930 -0.6492
 5013TIP3    H136454   6.578   0.340   2.166  1.6340 -1.3660  0.2576
 5013TIP3    H236455   6.457   0.294   2.087 -0.7386  0.8001  2.5537
 5014TIP3   OH236456   6.583   4.064   2.640 -0.3076  0.1437 -0.1116
 5014TIP3    H136457   6.577   4.159   2.629  1.3909  0.5509  2.1358
 5014TIP3    H236458   6.628   4.053   2.724  0.4604 -2.6496 -0.8615
 5015TIP3   OH236459   1.214   3.396  15.789 -0.8059 -0.0252  0.0130
 5015TIP3    H136460   1.209   3.301  15.781 -0.6965  0.0576 -1.0180
 5015TIP3    H236461   1.192   3.430  15.702  0.8994  0.8391 -0.1057
 5016TIP3   OH236462   0.304   1.744   2.973 -0.2228 -0.3427  0.3448
 5016TIP3    H136463   0.312   1.811   3.040  1.3783 -0.2779  0.0987
 5016TIP3    H236464   0.308   1.661   3.021  0.9822 -0.2970  0.3309
 5017TIP3   OH236465   6.152   0.729   0.977  0.0060 -0.0098 -0.2863
 5017TIP3    H136466   6.191   0.691   0.898  1.7563 -0.6825  0.8773
 5017TIP3    H236467   6.067   0.684   0.985  0.0463 -0.3247 -1.4676
 5018TIP3   OH236468   3.826   0.803  12.219 -0.6836 -0.1871  0.5010
 5018TIP3    H136469   3.832   0.762  12.132 -0.3945 -0.8088  0.8135
 5018TIP3    H236470   3.820   0.730  12.280 -2.8080  0.2669  0.8755
 5019TIP3   OH236471   2.783   4.708  16.594  0.2666 -0.4941 -0.4460
 5019TIP3    H136472   2.706   4.719  16.651  1.3109 -0.6116  1.0237
 5019TIP3    H236473   2.807   4.797  16.568  0.1488 -0.3921 -0.2057
 5020TIP3   OH236474   1.798   0.640  12.313  0.0967 -0.0585 -0.3309
 5020TIP3    H136475   1.724   0.584  12.287 -0.2356  1.0599 -1.8733
 5020TIP3    H236476   1.762   0.729  12.314  0.7684  0.2102  1.5375
 5021TIP3   OH236477   3.677   4.642   3.416 -0.2857 -0.1860 -0.2432
 5021TIP3    H136478   3.597   4.590   3.423 -1.2777  1.3404 -0.1207
 5021TIP3    H236479   3.727   4.599   3.347 -1.7211 -0.4945 -1.1166
 5022TIP3   OH236480   1.185   1.155   0.436 -0.2466 -0.0658 -0.1692
 5022TIP3    H136481   1.145   1.097   0.371  0.1639  0.9031 -1.3228
 5022TIP3    H236482   1.119   1.164   0.504 -0.2811 -1.9546  0.0841
 5023TIP3   OH236483   6.587   4.583   1.846  0.0129  0.4847 -0.6730
 5023TIP3    H136484   6.632   4.641   1.785 -1.8861  2.5228 -0.1838
 5023TIP3    H236485   6.494   4.594   1.825 -0.6417  0.7775  2.1769
 5024TIP3   OH236486   1.692   1.796   0.738 -0.1614  0.1547 -0.2490
 5024TIP3    H136487   1.606   1.819   0.772  0.1914  1.1622 -0.0246
 5024TIP3    H236488   1.674   1.740   0.662 -0.9668 -1.3794  1.0508
 5025TIP3   OH236489   3.731   2.272   0.896 -0.1270  0.5240 -0.5268
 5025TIP3    H136490   3.727   2.336   0.968 -1.2306  1.5814 -1.5126
 5025TIP3    H236491   3.703   2.190   0.936  0.2962  0.8634  0.5100
 5026TIP3   OH236492   2.797   6.281   3.731  0.6489  0.6561 -0.3503
 5026TIP3    H136493   2.704   6.275   3.753  0.8163  0.8373  0.4236
 5026TIP3    H236494   2.807   6.369   3.695  0.4190  0.4452 -0.9334
 5027TIP3   OH236495   4.619   1.170   2.612 -0.4060 -0.1233 -0.3400
 5027TIP3    H136496   4.705   1.204   2.588 -0.4225 -0.4015 -0.8003
 5027TIP3    H236497   4.597   1.109   2.541 -0.6717 -0.5769  0.1284
 5028TIP3   OH236498   4.847   3.541  12.281  0.2314 -0.1964  0.3984
 5028TIP3    H136499   4.894   3.523  12.199 -1.1772  1.1164 -0.7249
 5028TIP3    H236500   4.764   3.493  12.272 -0.5453  1.1280  0.4156
 5029TIP3   OH236501   2.689   1.479   2.459 -0.5439 -0.1448  0.3289
 5029TIP3    H136502   2.730   1.552   2.505 -0.3585  1.0679 -1.7260
 5029TIP3    H236503   2.759   1.415   2.448 -0.2188  0.2011  0.3977
 5030TIP3   OH236504   5.564   6.625   1.606  0.6271  0.4811 -0.5009
 5030TIP3    H136505   5.614   6.563   1.659 -0.4238  1.1560  1.3212
 5030TIP3    H236506   5.619   6.703   1.602 -0.3631  1.3536  1.8092
 5031TIP3   OH236507   5.691   1.070   1.721  0.0925  0.2541  0.3216
 5031TIP3    H136508   5.630   1.141   1.741 -2.1288 -1.2729 -0.9526
 5031TIP3    H236509   5.676   1.005   1.790 -0.9806 -0.9005 -0.9851
 5032TIP3   OH236510   2.053   0.431   1.611 -0.0210 -0.1014  0.7354
 5032TIP3    H136511   1.964   0.457   1.588 -0.6870 -4.4746 -2.2311
 5032TIP3    H236512   2.109   0.487   1.558 -1.0389  1.2804  1.0896
 5033TIP3   OH236513   5.936   3.418  14.374  0.2244 -0.3552 -0.2084
 5033TIP3    H136514   5.901   3.501  14.408 -1.9726 -2.0146  1.7901
 5033TIP3    H236515   5.999   3.390  14.440  1.5219  0.0778 -1.2547
 5034TIP3   OH236516   3.636   1.078  11.602 -0.5948 -0.1273  0.1577
 5034TIP3    H136517   3.594   0.997  11.630 -1.9377  0.4965  0.0288
 5034TIP3    H236518   3.566   1.144  11.608  0.8960  1.3638  1.8676
 5035TIP3   OH236519   1.459   3.845  14.092 -1.0391 -0.0376  0.4776
 5035TIP3    H136520   1.518   3.919  14.107 -1.6263  0.6702 -0.5446
 5035TIP3    H236521   1.507   3.788  14.032 -0.4372 -0.6757  1.5611
 5036TIP3   OH236522   4.121   4.618  11.198 -0.1693 -0.0416 -0.0572
 5036TIP3    H136523   4.042   4.667  11.176  1.5444  2.2759 -1.1833
 5036TIP3    H236524   4.111   4.535  11.153 -1.8620  0.3098 -0.3530
 5037TIP3   OH236525   4.921   6.438   0.839  0.4406  0.4314 -0.3858
 5037TIP3    H136526   4.953   6.400   0.921 -0.1299 -1.2309 -0.9107
 5037TIP3    H236527   4.836   6.475   0.861  0.1332 -0.3173 -0.2728
 5038TIP3   OH236528   0.478   1.612  12.469 -0.1247 -0.4053 -0.4858
 5038TIP3    H136529   0.469   1.527  12.512  0.5082 -1.1737 -1.8426
 5038TIP3    H236530   0.418   1.669  12.516  0.0100 -1.4132  0.9319
 5039TIP3   OH236531   1.196   6.280  15.703  0.0024 -0.6911  0.1231
 5039TIP3    H136532   1.158   6.238  15.779 -2.6490  1.1540 -0.0831
 5039TIP3    H236533   1.122   6.293  15.643  1.3335  1.1386 -1.2089
 5040TIP3   OH236534   6.041   6.055  17.123  0.1652  0.7763 -0.0614
 5040TIP3    H136535   5.998   6.136  17.095 -1.3231 -0.2243 -0.7612
 5040TIP3    H236536   5.968   5.994  17.141  1.2558 -0.5704 -0.1134
 5041TIP3   OH236537   1.685   0.374  16.175  0.1001  0.4909 -0.1140
 5041TIP3    H136538   1.649   0.434  16.110 -0.7232  0.4114  0.2613
 5041TIP3    H236539   1.626   0.299  16.174  0.8811 -0.1239 -0.2727
 5042TIP3   OH236540   0.933   6.625   6.471 -0.3899 -0.0604 -0.3437
 5042TIP3    H136541   1.002   6.655   6.412  1.7132  0.7299  2.4677
 5042TIP3    H236542   0.860   6.684   6.453 -0.0038 -0.1912 -2.5404
 5043TIP3   OH236543   6.753   1.290  15.282 -0.4061  0.2292  0.2513
 5043TIP3    H136544   6.832   1.300  15.228 -0.3476  1.0231  0.4817
 5043TIP3    H236545   6.688   1.346  15.241 -0.3122  0.9690  1.0874
 5044TIP3   OH236546   3.507   4.973  11.589  0.3186  0.3783  0.2703
 5044TIP3    H136547   3.489   4.880  11.604 -0.2150  0.2611 -1.0467
 5044TIP3    H236548   3.422   5.010  11.565  1.0475  0.6315 -2.0033
 5045TIP3   OH236549   6.213   2.152   2.371 -0.4544 -0.1909 -0.3187
 5045TIP3    H136550   6.215   2.201   2.289  0.4034 -1.0075 -0.8015
 5045TIP3    H236551   6.219   2.060   2.344 -2.8822 -0.6333  0.5148
 5046TIP3   OH236552   5.697   3.411   1.987 -0.6091 -0.1186 -0.0051
 5046TIP3    H136553   5.695   3.319   2.014  0.4454 -0.6070 -1.4911
 5046TIP3    H236554   5.637   3.415   1.912  0.8345 -0.0468 -1.1909
 5047TIP3   OH236555   5.295   3.484  14.771  0.1694 -0.0240  0.5776
 5047TIP3    H136556   5.225   3.521  14.718 -2.4783 -0.8309  3.4027
 5047TIP3    H236557   5.347   3.560  14.798 -0.9209  0.8289  0.2988
 5048TIP3   OH236558   5.849   6.305  15.175  0.0154  0.4186  0.0240
 5048TIP3    H136559   5.868   6.219  15.138 -0.1768  0.7411 -0.8469
 5048TIP3    H236560   5.935   6.342  15.195  0.1300  0.3214 -0.2866
 5049TIP3   OH236561   4.213   3.026  13.522  0.2693 -0.3789 -0.0624
 5049TIP3    H136562   4.212   2.970  13.599  0.2678  1.0736  1.0063
 5049TIP3    H236563   4.121   3.044  13.504  0.3069  0.0297  0.1488
 5050TIP3   OH236564   4.827   5.644   0.583 -0.2251  0.1359 -0.1237
 5050TIP3    H136565   4.801   5.669   0.494 -1.6436 -1.1551 -0.1085
 5050TIP3    H236566   4.832   5.549   0.580 -1.8771 -0.0430  1.5640
 5051TIP3   OH236567   4.846   4.236   5.360  0.3554 -0.3317 -0.0865
 5051TIP3    H136568   4.871   4.216   5.450 -3.4928 -1.2351  0.8772
 5051TIP3    H236569   4.799   4.158   5.330 -3.9213  2.2457 -0.5993
 5052TIP3   OH236570   6.546   2.569  11.817  0.4267 -0.6629  0.9191
 5052TIP3    H136571   6.534   2.598  11.727 -0.2708  0.4135  1.3462
 5052TIP3    H236572   6.458   2.547  11.848  0.4859  0.2056  1.7350
 5053TIP3   OH236573   6.399   4.912   4.068  0.5834  0.1348  0.2471
 5053TIP3    H136574   6.373   4.981   4.128  0.2113 -0.0326  0.2862
 5053TIP3    H236575   6.341   4.924   3.992 -0.9125 -1.3828  1.1116
 5054TIP3   OH236576   1.954   4.818   6.915 -0.1154 -0.0337 -0.2555
 5054TIP3    H136577   1.917   4.852   6.997 -2.3537 -1.5291 -0.6100
 5054TIP3    H236578   1.902   4.860   6.847 -0.2211 -1.0729 -0.8127
 5055TIP3   OH236579   5.312   4.544   0.115 -0.4183 -0.4045 -0.7025
 5055TIP3    H136580   5.279   4.464   0.074  2.7534 -2.9095  1.3760
 5055TIP3    H236581   5.258   4.554   0.194  0.0764 -1.3616 -0.2215
 5056TIP3   OH236582   4.934   0.205  14.636 -0.0845  0.3073  0.4681
 5056TIP3    H136583   4.919   0.222  14.729  1.7524  0.1011  0.8281
 5056TIP3    H236584   4.892   0.279  14.591  0.6199  1.4056  1.5688
 5057TIP3   OH236585   5.111   3.485   4.657  0.7097 -0.3631 -0.7603
 5057TIP3    H136586   5.109   3.471   4.562  0.6223 -1.4894 -0.5936
 5057TIP3    H236587   5.168   3.561   4.669  0.7955 -0.2774 -1.7061
 5058TIP3   OH236588   1.335   2.105  14.243  0.0974  0.4075  0.8335
 5058TIP3    H136589   1.407   2.145  14.292 -0.5030 -1.0358  2.9201
 5058TIP3    H236590   1.367   2.018  14.220 -0.1431  0.5868 -0.2346
 5059TIP3   OH236591   6.630   3.051  13.460  0.1160  0.3583 -0.5079
 5059TIP3    H136592   6.676   3.129  13.430  0.3216  0.3155 -0.3093
 5059TIP3    H236593   6.597   3.010  13.380  0.1305  0.5726 -0.6246
 5060TIP3   OH236594   5.634   1.579  13.745 -0.2519  0.4718  0.0256
 5060TIP3    H136595   5.615   1.592  13.838 -1.1997 -2.0277  0.2238
 5060TIP3    H236596   5.641   1.668  13.709 -0.8460  1.4658  2.2850
 5061TIP3   OH236597   5.147   1.989   1.451 -0.1621 -0.0961  0.2761
 5061TIP3    H136598   5.122   1.929   1.381 -1.0918 -0.9520  1.3279
 5061TIP3    H236599   5.066   2.004   1.500  0.7039 -0.3844  1.8364
 5062TIP3   OH236600   5.350   0.978  12.420 -0.5228  0.3632  0.0710
 5062TIP3    H136601   5.271   1.017  12.458 -0.0631  0.6093  0.7934
 5062TIP3    H236602   5.406   0.961  12.496  1.0481  2.2478 -0.6391
 5063TIP3   OH236603   5.711   4.438   5.122  0.1184  0.3288 -0.8326
 5063TIP3    H136604   5.708   4.526   5.083  1.4285 -0.1094 -1.9777
 5063TIP3    H236605   5.764   4.448   5.201 -0.4037  0.7280 -0.5332
 5064TIP3   OH236606   5.315   1.608   0.024  0.3615  0.3189  0.6672
 5064TIP3    H136607   5.385   1.651   0.072 -0.0100  0.0047  1.4901
 5064TIP3    H236608   5.359   1.562  -0.047  1.0773 -0.6077  1.7085
 5065TIP3   OH236609   2.085   1.085  14.259  0.0033  0.1766 -0.8156
 5065TIP3    H136610   2.033   1.016  14.218  0.0001 -0.6154  0.5024
 5065TIP3    H236611   2.055   1.166  14.217 -1.3424 -0.4168 -0.9994
 5066TIP3   OH236612   4.852   1.281   2.510  0.6878  0.1832  0.5928
 5066TIP3    H136613   4.935   1.235   2.497  0.6080 -0.6448  2.7533
 5066TIP3    H236614   4.874   1.356   2.565  0.2305  0.7422  0.0197
 5067TIP3   OH236615   4.753   3.940   1.306 -0.2091 -0.4673 -0.3052
 5067TIP3    H136616   4.847   3.937   1.325 -0.8211  0.7564  3.3075
 5067TIP3    H236617   4.745   4.009   1.240  1.1916  1.2183  1.2183
 5068TIP3   OH236618   1.631   0.456  13.118 -0.0945 -0.2963 -0.1745
 5068TIP3    H136619   1.549   0.413  13.096  0.2194 -0.3047 -1.3536
 5068TIP3    H236620   1.698   0.390  13.103  0.3315  0.3922 -1.4021
 5069TIP3   OH236621   0.251   2.865   5.283 -0.2554 -0.3537 -0.1484
 5069TIP3    H136622   0.277   2.886   5.193  1.2412  1.3836  0.6702
 5069TIP3    H236623   0.318   2.804   5.313 -0.0819  0.0135  0.2035
 5070TIP3   OH236624   1.532   5.384  10.651 -0.2089  0.0683 -0.0148
 5070TIP3    H136625   1.501   5.293  10.654 -0.3143  0.0409 -1.4445
 5070TIP3    H236626   1.603   5.387  10.714 -0.2806 -0.9898  0.1277
 5071TIP3   OH236627   6.095   6.324  12.534  0.4268 -0.4868  0.5212
 5071TIP3    H136628   6.156   6.396  12.516  0.6778 -0.4360  1.5482
 5071TIP3    H236629   6.144   6.265  12.591  0.2094 -1.4698 -0.2792
 5072TIP3   OH236630   4.029   3.126  12.375  0.6109 -0.4293  0.1575
 5072TIP3    H136631   4.061   3.040  12.347  1.8191 -0.3304  1.2167
 5072TIP3    H236632   3.934   3.114  12.384  0.2149 -0.5622 -3.5284
 5073TIP3   OH236633   5.488   1.537   3.964  0.2463 -0.2149  0.2751
 5073TIP3    H136634   5.499   1.519   3.871 -0.0145 -3.5819  0.8267
 5073TIP3    H236635   5.511   1.455   4.007 -0.7368  0.9360  3.1231
 5074TIP3   OH236636   0.420   2.321  16.675 -0.6715 -0.2377  0.0499
 5074TIP3    H136637   0.351   2.341  16.738 -0.5608  0.6837 -0.1193
 5074TIP3    H236638   0.386   2.245  16.627 -0.7637 -0.9255  1.1874
 5075TIP3   OH236639   0.133   1.044  12.670 -0.0639 -0.1024 -0.1365
 5075TIP3    H136640   0.074   1.038  12.595  1.0972 -0.2808 -1.0369
 5075TIP3    H236641   0.127   1.136  12.697 -2.7153 -0.6577  1.4043
 5076TIP3   OH236642   5.909   1.527  12.167  0.3356 -0.3002 -0.5367
 5076TIP3    H136643   5.977   1.572  12.218  1.2857 -2.8492  0.5251
 5076TIP3    H236644   5.861   1.598  12.124  3.6314  1.5879 -1.3128
 5077TIP3   OH236645   6.013   2.899  11.429  0.0023 -0.0402 -0.0584
 5077TIP3    H136646   6.041   2.990  11.442 -0.8247  0.3800 -1.1574
 5077TIP3    H236647   6.047   2.874  11.344  1.2180 -1.1651  0.7390
 5078TIP3   OH236648   4.158   3.692  13.365 -0.8777 -0.0754  0.2120
 5078TIP3    H136649   4.077   3.720  13.407 -0.1279  2.3874  0.1447
 5078TIP3    H236650   4.163   3.746  13.286  0.6016 -0.5067 -0.0114
 5079TIP3   OH236651   5.100   2.674  17.210  0.5464  0.7516  0.1207
 5079TIP3    H136652   5.069   2.735  17.277 -2.1442 -1.6415  1.1778
 5079TIP3    H236653   5.127   2.596  17.259  1.6978  0.2009 -1.3514
 5080TIP3   OH236654   4.123   5.721  15.991  0.6623 -0.2607  0.4240
 5080TIP3    H136655   4.171   5.727  16.074  5.2291  0.6566 -2.0823
 5080TIP3    H236656   4.169   5.652  15.942 -3.2328 -2.2438 -0.6245
 5081TIP3   OH236657   0.860   3.042  15.670 -0.2785  0.2298 -0.3398
 5081TIP3    H136658   0.891   3.114  15.615 -0.0025  0.4246  0.0689
 5081TIP3    H236659   0.886   2.963  15.622  1.0425  0.3882  0.0998
 5082TIP3   OH236660   0.816   3.278   1.794 -0.1547 -0.1319  0.0423
 5082TIP3    H136661   0.780   3.358   1.833  0.2091  0.2892 -0.4811
 5082TIP3    H236662   0.827   3.219   1.868  0.9394  0.8166  0.6645
 5083TIP3   OH236663   2.562   4.703  11.379  0.1061  0.3242 -0.9980
 5083TIP3    H136664   2.623   4.639  11.342 -0.3073 -1.1138  0.7532
 5083TIP3    H236665   2.540   4.760  11.305  2.0659 -0.2973 -2.1036
 5084TIP3   OH236666   3.365   6.468  14.234  0.0190  0.1592 -0.2150
 5084TIP3    H136667   3.382   6.376  14.216 -0.8159  0.0738 -0.6188
 5084TIP3    H236668   3.446   6.501  14.272  1.2296 -0.0841 -2.5369
 5085TIP3   OH236669   3.904   5.338   3.949  0.6939  0.1818  0.1112
 5085TIP3    H136670   3.917   5.398   4.022 -0.6829 -0.4053  0.8516
 5085TIP3    H236671   3.843   5.272   3.982 -0.1745  0.0661 -1.6629
 5086TIP3   OH236672   6.779   0.632   5.873  1.0123 -0.1263  0.1256
 5086TIP3    H136673   6.744   0.601   5.789 -1.8454 -0.8025  1.4955
 5086TIP3    H236674   6.870   0.653   5.855  1.1614 -2.7904 -2.5160
 5087TIP3   OH236675   5.844   3.968   1.428 -0.4529 -0.5027 -0.4492
 5087TIP3    H136676   5.755   3.974   1.461 -0.8277 -0.8891 -1.3858
 5087TIP3    H236677   5.862   4.056   1.393 -0.4907 -0.4437 -0.3213
 5088TIP3   OH236678   6.763   6.120  12.475 -0.6052 -0.2149  0.0486
 5088TIP3    H136679   6.683   6.166  12.451 -0.5396  0.4483  1.0314
 5088TIP3    H236680   6.827   6.145  12.408 -1.0905 -0.3632 -0.4686
 5089TIP3   OH236681   1.130   4.125  12.104  0.2288  0.1362 -0.3172
 5089TIP3    H136682   1.100   4.196  12.047  1.1086  1.3574  0.7194
 5089TIP3    H236683   1.087   4.046  12.069  0.2887  0.9554 -2.2980
 5090TIP3   OH236684   1.005   2.582  10.993  0.5536  0.1013  0.0244
 5090TIP3    H136685   1.055   2.505  11.022 -2.5659 -1.2744  1.9279
 5090TIP3    H236686   0.956   2.551  10.917  1.3916  1.0471 -0.9261
 5091TIP3   OH236687   2.832   1.323  15.292  0.6767  0.0907  0.3808
 5091TIP3    H136688   2.777   1.396  15.321  0.1481 -0.1806  0.0592
 5091TIP3    H236689   2.787   1.245  15.324  1.7242 -0.0561  1.5356
 5092TIP3   OH236690   2.777   1.628  16.314  0.2642 -0.7698 -0.3796
 5092TIP3    H136691   2.689   1.601  16.340  0.3987 -1.0444 -0.2096
 5092TIP3    H236692   2.821   1.547  16.288  0.5236 -0.6609 -0.2913
 5093TIP3   OH236693   5.543   6.577  11.035  0.3133 -0.7560 -0.5030
 5093TIP3    H136694   5.462   6.629  11.029  0.2234 -0.6385  1.3568
 5093TIP3    H236695   5.611   6.636  11.002 -0.2005 -0.4680 -1.0660
 5094TIP3   OH236696   5.395   1.282  10.849 -0.3064 -0.6702 -0.1793
 5094TIP3    H136697   5.397   1.220  10.776 -0.7459 -0.1417 -0.6424
 5094TIP3    H236698   5.343   1.356  10.817  2.4531  1.1600 -0.5700
 5095TIP3   OH236699   1.958   6.764  16.848 -0.3382 -0.0861 -0.1930
 5095TIP3    H136700   1.987   6.843  16.892  1.9546 -0.8597 -0.2628
 5095TIP3    H236701   1.957   6.787  16.755  1.1528 -0.3628 -0.2926
 5096TIP3   OH236702   3.907   6.076   5.954 -0.4459  0.1190 -0.0118
 5096TIP3    H136703   3.966   6.138   5.911  0.6341 -1.4564 -0.8613
 5096TIP3    H236704   3.887   6.117   6.038  0.8596  1.2677 -0.2308
 5097TIP3   OH236705   2.271   6.285   2.502 -0.3333 -0.2944 -0.1444
 5097TIP3    H136706   2.366   6.278   2.516 -0.4206 -1.3759 -0.1132
 5097TIP3    H236707   2.262   6.342   2.425  0.3043  0.7569  0.5367
 5098TIP3   OH236708   2.361   4.577   5.946 -0.0886  0.2906 -0.2009
 5098TIP3    H136709   2.309   4.498   5.963  0.8456  0.0669  1.6734
 5098TIP3    H236710   2.439   4.544   5.902  0.7237  0.0592  1.4064
 5099TIP3   OH236711   0.129   0.818   4.728 -0.3762  0.0192  0.1708
 5099TIP3    H136712   0.198   0.758   4.754  0.2753  1.0270  0.7781
 5099TIP3    H236713   0.053   0.761   4.712 -0.7647 -0.6866  4.0170
 5100TIP3   OH236714   4.251   5.313  12.443 -0.0942  0.4113  0.7456
 5100TIP3    H136715   4.330   5.283  12.398 -1.4091  0.0936 -1.4641
 5100TIP3    H236716   4.259   5.408  12.445  0.3872  0.3770  0.5995
 5101TIP3   OH236717   1.478   1.519  14.078 -0.0635  0.3426 -0.0341
 5101TIP3    H136718   1.527   1.601  14.067 -0.5237  0.5780 -0.3213
 5101TIP3    H236719   1.540   1.451  14.052  0.0731  0.6514 -0.5200
 5102TIP3   OH236720   5.174   6.421   1.392 -0.0638 -0.3046  0.1234
 5102TIP3    H136721   5.201   6.492   1.333 -0.9844  0.1558  0.2504
 5102TIP3    H236722   5.080   6.415   1.380  0.0146 -1.5409  0.0917
 5103TIP3   OH236723   2.821   5.765  11.436  0.2008 -0.2533 -0.4250
 5103TIP3    H136724   2.870   5.712  11.373  3.1467 -0.5465  1.9981
 5103TIP3    H236725   2.751   5.707  11.467  1.4558 -1.6674 -0.1623
 5104TIP3   OH236726   5.062   1.150  14.054  0.6630  0.3106 -0.2514
 5104TIP3    H136727   5.080   1.102  13.973 -0.3817 -0.1254 -0.2285
 5104TIP3    H236728   5.058   1.082  14.122 -0.1250  0.4981 -0.1075
 5105TIP3   OH236729   1.954   6.330   0.466  0.1755  0.1475  0.0748
 5105TIP3    H136730   1.961   6.246   0.510  1.7072 -0.0020 -0.4265
 5105TIP3    H236731   1.862   6.338   0.443 -0.1605 -0.9255  1.0262
 5106TIP3   OH236732   3.091   0.035   3.480  0.2841  0.0082  0.7656
 5106TIP3    H136733   3.111   0.012   3.389  0.6288 -1.6411  1.2319
 5106TIP3    H236734   3.125   0.124   3.491  1.1573 -0.1662 -0.4310
 5107TIP3   OH236735   2.912   6.053  15.777  0.0328 -0.6042 -0.0057
 5107TIP3    H136736   2.890   6.131  15.829  0.6199 -0.4190 -0.0297
 5107TIP3    H236737   2.846   6.050  15.708 -1.0716 -1.1495  1.0631
 5108TIP3   OH236738   3.365   4.537  16.003  0.7277  0.1304  0.1722
 5108TIP3    H136739   3.283   4.528  15.955  1.7236  1.6588 -1.8721
 5108TIP3    H236740   3.356   4.620  16.051  0.6477 -0.2651  0.8588
 5109TIP3   OH236741   1.790   0.542   4.307 -0.1862 -0.2931  0.0693
 5109TIP3    H136742   1.817   0.453   4.285  0.0967 -0.4168  0.8788
 5109TIP3    H236743   1.770   0.538   4.401  0.8784  0.7461  0.3531
 5110TIP3   OH236744   6.555   4.721  12.380 -0.0442 -0.0626 -0.0879
 5110TIP3    H136745   6.476   4.763  12.346 -0.1999 -0.3611 -0.0993
 5110TIP3    H236746   6.621   4.791  12.382 -0.0160 -0.0567 -1.0738
 5111TIP3   OH236747   6.648   4.712  13.318 -0.2932  0.0169  0.2791
 5111TIP3    H136748   6.675   4.751  13.235  0.2109  0.0357  0.4511
 5111TIP3    H236749   6.632   4.787  13.375  1.1958 -0.0204  0.7740
 5112TIP3   OH236750   4.107   5.462   5.942  0.6882  0.1522 -0.5808
 5112TIP3    H136751   4.139   5.423   6.023  0.8618 -0.3306 -0.8759
 5112TIP3    H236752   4.167   5.535   5.925 -0.0174  0.9492  0.3094
 5113TIP3   OH236753   6.330   6.282   3.652 -0.4138  0.0519  0.8511
 5113TIP3    H136754   6.238   6.266   3.628 -0.4020 -0.0925  0.9013
 5113TIP3    H236755   6.350   6.366   3.612 -0.1177 -0.6154 -0.4457
 5114TIP3   OH236756   4.342   5.756  15.079 -0.1081 -0.2030 -0.0502
 5114TIP3    H136757   4.355   5.806  15.160  0.4059 -0.1497 -0.1618
 5114TIP3    H236758   4.410   5.689  15.082 -1.2118 -1.3137  0.4244
 5115TIP3   OH236759   0.661   5.530   5.695  0.5225  0.5707 -0.2838
 5115TIP3    H136760   0.582   5.477   5.682  0.6379  1.1939 -4.1998
 5115TIP3    H236761   0.628   5.620   5.702  0.7985  0.6859 -0.4790
 5116TIP3   OH236762   6.699   2.459  16.196 -0.1964 -0.3887  0.2330
 5116TIP3    H136763   6.614   2.470  16.154 -0.9280  0.3514  1.8683
 5116TIP3    H236764   6.758   2.517  16.148 -1.8012  3.1910  2.4179
 5117TIP3   OH236765   1.934   4.402   5.093  0.4073 -0.3298  0.2574
 5117TIP3    H136766   1.849   4.444   5.105  0.2859 -0.4750 -0.0756
 5117TIP3    H236767   1.981   4.416   5.176  0.3191  0.3467  0.1914
 5118TIP3   OH236768   0.358   2.407  12.794 -0.4359 -0.6847  0.1747
 5118TIP3    H136769   0.280   2.357  12.814 -0.4564 -0.2019  1.3311
 5118TIP3    H236770   0.385   2.445  12.878  1.9487 -2.1359  0.1073
 5119TIP3   OH236771   6.227   5.471  15.232 -0.3563 -0.3585 -0.0237
 5119TIP3    H136772   6.240   5.492  15.325  0.3028 -1.1228  0.0659
 5119TIP3    H236773   6.225   5.375  15.229 -0.9238 -0.3281 -0.7276
 5120TIP3   OH236774   6.682   1.822  11.270  0.6080  0.8536 -0.1394
 5120TIP3    H136775   6.759   1.878  11.269 -0.2137  1.9953  0.3232
 5120TIP3    H236776   6.681   1.784  11.357 -0.2919  2.1664  0.4382
 5121TIP3   OH236777   1.563   0.739  12.130 -0.5873  0.1383  0.4843
 5121TIP3    H136778   1.536   0.748  12.039  0.4714 -1.4437  0.0018
 5121TIP3    H236779   1.574   0.645  12.144  1.5078  0.4927  1.5574
 5122TIP3   OH236780   0.428   2.307  12.071 -0.5754  0.9043 -0.6594
 5122TIP3    H136781   0.390   2.393  12.091 -1.3226  0.7562 -1.4210
 5122TIP3    H236782   0.445   2.310  11.977 -0.1547  0.3827 -0.6021
 5123TIP3   OH236783   3.974   5.970  13.239  0.4763  0.2886  0.4092
 5123TIP3    H136784   4.060   6.010  13.250  0.9753 -0.3254 -1.1384
 5123TIP3    H236785   3.919   6.039  13.202  0.7009  0.2538  0.0088
 5124TIP3   OH236786   5.475   3.992   4.958 -0.2439  0.3333 -0.0407
 5124TIP3    H136787   5.516   3.910   4.985 -0.2333 -0.1639 -1.4893
 5124TIP3    H236788   5.547   4.045   4.922 -0.4287  0.5229 -0.1354
 5125TIP3   OH236789   0.369   4.183  15.713 -0.6000  0.1436  0.3345
 5125TIP3    H136790   0.427   4.233  15.655  0.0716 -0.2254  0.6773
 5125TIP3    H236791   0.297   4.242  15.732  0.2048  0.9989  0.7620
 5126TIP3   OH236792   5.024   4.864  15.239 -0.7072  0.0953  0.0078
 5126TIP3    H136793   5.119   4.853  15.243 -0.7683 -1.5122 -1.9838
 5126TIP3    H236794   5.011   4.932  15.173 -1.0034 -1.1770 -1.2570
 5127TIP3   OH236795   3.278   2.334  12.039  0.4914 -0.5263  0.8831
 5127TIP3    H136796   3.282   2.259  11.980  1.3131 -0.9595  1.4714
 5127TIP3    H236797   3.313   2.407  11.989  2.0215 -1.0856  1.1269
 5128TIP3   OH236798   3.408   3.654  16.218 -0.8366 -0.1628 -0.3783
 5128TIP3    H136799   3.361   3.572  16.231 -0.7427  0.1220  1.8345
 5128TIP3    H236800   3.340   3.718  16.199 -1.3039  0.0549  1.8862
 5129TIP3   OH236801   1.797   1.916   5.101  0.0046 -0.1440 -0.0873
 5129TIP3    H136802   1.713   1.903   5.057  0.7523 -1.4339 -1.2013
 5129TIP3    H236803   1.846   1.835   5.082  1.7994  0.9362 -0.1844
 5130TIP3   OH236804   2.975   1.562  15.734 -0.1872  0.1202  0.5885
 5130TIP3    H136805   3.047   1.500  15.746  0.5375  1.0142  0.9278
 5130TIP3    H236806   2.910   1.534  15.798 -0.8459 -1.6851 -0.8267
 5131TIP3   OH236807   0.297   2.060   4.626  0.7026  0.0269 -0.9295
 5131TIP3    H136808   0.332   2.132   4.679  0.9008 -0.2500 -0.6790
 5131TIP3    H236809   0.209   2.046   4.659  1.6517 -1.7587  1.0232
 5132TIP3   OH236810   1.506   1.194  12.469  0.4227  0.4351  0.0816
 5132TIP3    H136811   1.439   1.147  12.519 -1.0315  2.3416 -0.0334
 5132TIP3    H236812   1.579   1.132  12.464 -1.4146 -1.7934 -0.0317
 5133TIP3   OH236813   0.977   2.162   6.628 -0.6847 -0.0800  0.3967
 5133TIP3    H136814   1.017   2.134   6.710  0.9500 -0.3073 -0.4355
 5133TIP3    H236815   1.023   2.111   6.561 -1.4625  0.6498 -0.7094
 5134TIP3   OH236816   0.264   0.284  13.469  0.8017  0.4252  0.0908
 5134TIP3    H136817   0.322   0.361  13.478  1.0728  0.1313  0.8921
 5134TIP3    H236818   0.313   0.212  13.508  1.5308 -0.6855 -2.7270
 5135TIP3   OH236819   1.149   4.633  11.882 -0.2149 -0.0036 -0.3608
 5135TIP3    H136820   1.234   4.598  11.856  0.1547  0.5226  0.1227
 5135TIP3    H236821   1.170   4.708  11.938 -0.9587 -1.9581  2.6750
 5136TIP3   OH236822   6.156   0.444   5.669 -0.0649 -0.0903  0.2714
 5136TIP3    H136823   6.066   0.476   5.671  0.7266  2.2384  0.0988
 5136TIP3    H236824   6.205   0.507   5.722  1.6875 -0.6103 -0.6836
 5137TIP3   OH236825   0.333   1.765  13.772 -0.3980  0.0330 -0.3396
 5137TIP3    H136826   0.396   1.697  13.748  0.4010  0.2994  0.9611
 5137TIP3    H236827   0.257   1.717  13.803 -0.4628 -0.2779 -0.9638
 5138TIP3   OH236828   2.635   3.388  10.688  0.4171  0.2313 -0.6202
 5138TIP3    H136829   2.563   3.380  10.626  1.0262  0.3513 -1.3432
 5138TIP3    H236830   2.605   3.453  10.752  0.4690  1.3760 -1.7493
 5139TIP3   OH236831   5.485   2.797  11.949 -0.0107  0.7334  0.2004
 5139TIP3    H136832   5.512   2.709  11.924  0.0309  1.1635 -1.3337
 5139TIP3    H236833   5.481   2.845  11.866  2.4249  2.8630  1.2254
 5140TIP3   OH236834   3.800   5.356   3.624  0.7187  0.0406 -0.4620
 5140TIP3    H136835   3.867   5.292   3.602 -1.1512 -1.8766 -0.6824
 5140TIP3    H236836   3.720   5.305   3.634 -0.7255  2.2899 -0.2136
 5141TIP3   OH236837   1.236   5.794  11.190 -0.1444  0.5794  0.4385
 5141TIP3    H136838   1.246   5.879  11.148  0.7093  0.0291 -0.4993
 5141TIP3    H236839   1.261   5.730  11.123 -1.2650 -0.4455  0.9637
 5142TIP3   OH236840   1.651   3.446  15.209  0.3041 -0.3376 -0.1276
 5142TIP3    H136841   1.736   3.477  15.239 -0.1957 -0.3582  1.3547
 5142TIP3    H236842   1.635   3.367  15.260 -1.7173  1.0292  1.4357
 5143TIP3   OH236843   1.953   1.915  11.381 -0.0636 -0.5226  0.0838
 5143TIP3    H136844   1.933   1.821  11.384  1.6838 -0.8861  1.1764
 5143TIP3    H236845   1.881   1.956  11.429 -0.1232 -1.4586  0.8182
 5144TIP3   OH236846   0.844   0.381  16.440  0.1666  0.1545 -0.1662
 5144TIP3    H136847   0.839   0.422  16.355 -1.2555 -0.4646 -0.3968
 5144TIP3    H236848   0.755   0.351  16.458  0.6397 -0.5533  1.1080
 5145TIP3   OH236849   5.701   0.594   4.688  0.2451  0.0144  0.3297
 5145TIP3    H136850   5.686   0.519   4.631 -3.5432  0.5347  0.4909
 5145TIP3    H236851   5.696   0.671   4.631  1.4545  0.3148  0.5978
 5146TIP3   OH236852   4.318   1.947   6.183  0.0126  0.3871 -0.0758
 5146TIP3    H136853   4.373   1.886   6.133  0.4507  0.4152  0.3727
 5146TIP3    H236854   4.358   2.033   6.169  0.4774  0.3151  0.7963
 5147TIP3   OH236855   6.139   0.916   5.328 -0.0948 -0.1798  0.4599
 5147TIP3    H136856   6.143   0.863   5.408  1.1093 -0.0019  0.5232
 5147TIP3    H236857   6.088   0.993   5.352  1.3935  0.5219  1.4426
 5148TIP3   OH236858   4.279   2.523   3.187 -0.5596 -0.8830 -0.6536
 5148TIP3    H136859   4.367   2.552   3.164 -0.9026  0.0127 -0.8758
 5148TIP3    H236860   4.264   2.447   3.130  0.7744 -2.2233  0.7451
 5149TIP3   OH236861   2.951   5.560  11.830 -0.2175 -0.0965  0.5029
 5149TIP3    H136862   2.994   5.589  11.911 -0.3235 -0.3069  0.6380
 5149TIP3    H236863   2.888   5.629  11.810  1.0776  0.8390 -0.4093
 5150TIP3   OH236864   5.904   5.067  11.575 -0.6018  0.1529 -0.7117
 5150TIP3    H136865   5.886   5.034  11.487 -1.9139 -0.5197 -0.2049
 5150TIP3    H236866   5.871   4.999  11.633  0.2255  0.6097  0.3117
 5151TIP3   OH236867   6.404   3.605  10.361 -0.0811 -0.5649 -0.1315
 5151TIP3    H136868   6.450   3.651  10.431  0.5347 -3.2925  1.3252
 5151TIP3    H236869   6.468   3.598  10.290 -0.6142  1.9465 -0.9059
 5152TIP3   OH236870   3.518   1.570  12.023 -0.2522 -0.0284 -0.0706
 5152TIP3    H136871   3.560   1.529  12.099  0.9081  0.4012 -0.4574
 5152TIP3    H236872   3.525   1.664  12.040 -0.2486  0.0601 -0.5622
 5153TIP3   OH236873   4.503   2.238  15.057 -0.8758  0.1658 -0.0160
 5153TIP3    H136874   4.507   2.273  14.968 -2.9898  2.1057  0.6092
 5153TIP3    H236875   4.421   2.189  15.059 -0.5656 -0.3167  0.7124
 5154TIP3   OH236876   2.132   0.042  16.083 -0.9222 -0.1224  0.4274
 5154TIP3    H136877   2.150  -0.040  16.128  1.4124  1.0166  1.6730
 5154TIP3    H236878   2.123   0.018  15.990 -0.7254 -1.8197  0.8455
 5155TIP3   OH236879   6.020   4.822  12.593 -0.9164 -0.0668  0.0891
 5155TIP3    H136880   6.113   4.845  12.592 -0.7240 -0.8167 -1.8419
 5155TIP3    H236881   5.976   4.899  12.629  0.3637  0.7110  0.0111
 5156TIP3   OH236882   0.358   4.358   2.894 -0.3050 -0.1596 -0.3970
 5156TIP3    H136883   0.371   4.278   2.945  0.6464 -0.9411 -1.8154
 5156TIP3    H236884   0.447   4.385   2.870 -0.7408  0.1427 -1.7039
 5157TIP3   OH236885   0.593   0.475  15.581  0.1457  0.0419  0.6765
 5157TIP3    H136886   0.517   0.503  15.531 -0.1027  0.6313  1.3749
 5157TIP3    H236887   0.570   0.493  15.672  1.6759  1.5548  0.8012
 5158TIP3   OH236888   3.281   1.955  15.530  0.1249 -0.4450  0.1612
 5158TIP3    H136889   3.326   1.875  15.555 -0.4322 -1.1963 -1.1885
 5158TIP3    H236890   3.339   1.996  15.465  0.1434 -0.0509  0.4279
 5159TIP3   OH236891   2.401   5.810  13.149 -0.4044 -0.4456  0.6810
 5159TIP3    H136892   2.312   5.820  13.117  0.0033  2.0607  0.2553
 5159TIP3    H236893   2.437   5.736  13.099 -2.1039 -1.2368  0.6089
 5160TIP3   OH236894   0.694   0.826   3.317  0.2569  0.4459  0.6478
 5160TIP3    H136895   0.682   0.846   3.410 -1.4214 -1.8392  0.9612
 5160TIP3    H236896   0.623   0.872   3.273  1.7071  2.4577  0.3122
 5161TIP3   OH236897   1.391   5.620   1.045 -0.0719  0.3687 -0.2397
 5161TIP3    H136898   1.315   5.569   1.017  0.5190  0.2386 -1.6927
 5161TIP3    H236899   1.355   5.694   1.093 -1.1411  0.4704 -1.1763
 5162TIP3   OH236900   4.793   1.112   0.414 -0.0872  0.6033  0.3347
 5162TIP3    H136901   4.799   1.177   0.344 -0.3492  0.3616  0.0851
 5162TIP3    H236902   4.801   1.028   0.369 -2.6780  0.3438  0.2739
 5163TIP3   OH236903   1.537   3.928  16.964 -0.4186 -0.7713 -0.0010
 5163TIP3    H136904   1.457   3.936  17.016 -1.3020 -1.1373 -1.2811
 5163TIP3    H236905   1.510   3.954  16.876  1.0243 -0.3318 -0.3145
 5164TIP3   OH236906   2.187   1.445  13.832 -0.0612  0.2036  0.7179
 5164TIP3    H136907   2.100   1.439  13.872 -0.7731 -0.7571 -0.9020
 5164TIP3    H236908   2.219   1.532  13.857 -0.9318  0.0506  2.4238
 5165TIP3   OH236909   6.174   0.704  15.790  0.2248  0.0713  0.6446
 5165TIP3    H136910   6.172   0.794  15.759  0.5285  0.1929  0.9752
 5165TIP3    H236911   6.264   0.676  15.778 -0.1668 -0.6498 -0.7478
 5166TIP3   OH236912   3.444   4.757  16.726  0.5596  0.7977  0.2233
 5166TIP3    H136913   3.484   4.779  16.811 -2.5002  0.8022  1.7180
 5166TIP3    H236914   3.390   4.833  16.705 -1.7475 -0.8048  0.2076
 5167TIP3   OH236915   2.351   0.380  11.886  0.7372 -0.1752 -0.3253
 5167TIP3    H136916   2.446   0.375  11.888  0.8691  1.3792 -1.6510
 5167TIP3    H236917   2.324   0.303  11.836  1.2885 -0.5291 -0.0868
 5168TIP3   OH236918   3.412   6.235   1.671 -0.1946 -0.3288  0.2469
 5168TIP3    H136919   3.448   6.181   1.600  0.5501  0.1184  0.2883
 5168TIP3    H236920   3.399   6.173   1.743 -2.1308 -1.0350 -0.6801
 5169TIP3   OH236921   1.812   4.766  13.207 -0.6875 -0.4011 -0.6768
 5169TIP3    H136922   1.719   4.773  13.228 -0.7275  1.4690 -1.3552
 5169TIP3    H236923   1.849   4.851  13.233  0.5697 -0.6185 -1.6630
 5170TIP3   OH236924   0.793   4.669   1.484 -0.0143 -0.1942  0.0421
 5170TIP3    H136925   0.782   4.684   1.390 -0.0535  0.4068  0.1410
 5170TIP3    H236926   0.749   4.585   1.500  0.7086 -0.7011 -0.6137
 5171TIP3   OH236927   5.888   0.841   5.027 -0.2145  0.2504  0.0696
 5171TIP3    H136928   5.839   0.862   5.106  0.9356  1.2035  0.5466
 5171TIP3    H236929   5.972   0.887   5.038  0.8785 -1.5346 -0.6130
 5172TIP3   OH236930   4.904   5.760   5.558 -0.0947  0.6480  0.0225
 5172TIP3    H136931   4.971   5.726   5.618 -0.1919  0.2830 -0.0705
 5172TIP3    H236932   4.856   5.682   5.531 -0.5134  0.9031  0.0342
 5173TIP3   OH236933   2.873   4.701  14.713 -0.6634  0.3155  0.2289
 5173TIP3    H136934   2.788   4.740  14.730 -0.6643  0.0508  0.8335
 5173TIP3    H236935   2.882   4.703  14.617 -0.2201  2.7625  0.2739
 5174TIP3   OH236936   3.255   6.645   0.878 -0.2864 -0.0317  1.0598
 5174TIP3    H136937   3.224   6.594   0.804 -0.3655  3.0039 -1.0668
 5174TIP3    H236938   3.193   6.625   0.949 -1.6032 -1.0961 -0.3664
 5175TIP3   OH236939   0.576   0.911   3.005  0.2768  0.6973 -0.6549
 5175TIP3    H136940   0.525   0.871   2.935 -1.6284  1.8455  0.0285
 5175TIP3    H236941   0.513   0.924   3.076  1.0857  3.7716 -0.4304
 5176TIP3   OH236942   2.182   6.377  16.146 -0.3831 -0.1418  0.2509
 5176TIP3    H136943   2.219   6.289  16.156 -1.4211 -0.3650  2.3173
 5176TIP3    H236944   2.258   6.433  16.135  0.3543 -1.1504  0.0869
 5177TIP3   OH236945   0.682   1.142   2.617  0.6122  0.1745 -0.0268
 5177TIP3    H136946   0.708   1.186   2.699  0.3961 -1.7274  1.0978
 5177TIP3    H236947   0.596   1.177   2.598  0.7761  0.8350  0.4244
 5178TIP3   OH236948   1.052   3.972  12.948  0.5564 -0.5775  0.3753
 5178TIP3    H136949   0.960   3.977  12.974  0.9356 -1.5676  2.0302
 5178TIP3    H236950   1.079   4.063  12.935 -0.0106 -0.1162  2.3012
 5179TIP3   OH236951   4.095   5.572  12.129  0.4247 -0.0867  0.2238
 5179TIP3    H136952   4.088   5.485  12.170 -1.0337 -0.1872 -0.1997
 5179TIP3    H236953   4.007   5.590  12.096  0.9791  1.0861 -0.6608
 5180TIP3   OH236954   4.380   1.239  15.900 -0.0599  0.3547 -0.2502
 5180TIP3    H136955   4.353   1.325  15.868  1.2691  0.5751 -0.8302
 5180TIP3    H236956   4.443   1.208  15.835  0.1620 -0.6652  0.4323
 5181TIP3   OH236957   1.831   4.661  17.006  0.0583 -0.0533  0.1157
 5181TIP3    H136958   1.918   4.697  17.024 -0.3080  0.2010  1.3985
 5181TIP3    H236959   1.774   4.738  17.004 -0.3500 -0.3442  0.5485
 5182TIP3   OH236960   0.462   1.122  12.041  0.0470  0.0484 -0.3172
 5182TIP3    H136961   0.481   1.208  12.078 -0.5100  0.5534 -1.2014
 5182TIP3    H236962   0.430   1.139  11.953 -0.8813 -1.0061 -0.2064
 5183TIP3   OH236963   3.569   5.370  12.113 -0.3525 -0.2141 -0.2141
 5183TIP3    H136964   3.643   5.395  12.058  1.7159 -0.9247  2.1689
 5183TIP3    H236965   3.568   5.274  12.110 -0.2908 -0.2583  0.8659
 5184TIP3   OH236966   5.368   1.516  11.481  0.0874 -1.3265 -0.1185
 5184TIP3    H136967   5.421   1.530  11.560 -0.4596  2.2786 -0.2835
 5184TIP3    H236968   5.411   1.569  11.414 -1.7122 -1.1603 -1.1775
 5185TIP3   OH236969   6.345   4.329   6.407  0.0825  0.2982  0.4013
 5185TIP3    H136970   6.309   4.403   6.455 -2.3293 -0.6332  0.0759
 5185TIP3    H236971   6.402   4.368   6.341 -0.2346  1.8008  0.9984
 5186TIP3   OH236972   0.950   5.824   1.658 -0.3514 -0.1556 -0.1644
 5186TIP3    H136973   0.868   5.861   1.626 -0.5367  0.3722  0.8950
 5186TIP3    H236974   0.938   5.730   1.652 -0.7279 -0.0705 -0.7737
 5187TIP3   OH236975   1.108   5.786   2.116 -0.1750  0.4263 -0.3684
 5187TIP3    H136976   1.073   5.767   2.203 -1.1717  1.6687 -0.4689
 5187TIP3    H236977   1.194   5.824   2.132  0.7710 -1.8101 -0.0634
 5188TIP3   OH236978   5.088   6.508   3.176 -0.1181 -0.1272  0.5754
 5188TIP3    H136979   5.045   6.584   3.215  0.5636  0.8455 -0.5249
 5188TIP3    H236980   5.167   6.544   3.134  1.1301 -1.7036  1.5306
 5189TIP3   OH236981   1.518   4.297  11.941  0.2586 -0.0358  0.1074
 5189TIP3    H136982   1.473   4.259  12.016 -1.2647  1.3471 -0.0781
 5189TIP3    H236983   1.473   4.261  11.865 -0.2260  0.9634 -0.0881
 5190TIP3   OH236984   2.719   3.034   2.215 -0.2070 -0.1107  0.4438
 5190TIP3    H136985   2.730   3.002   2.125 -0.5559 -1.3434  0.8331
 5190TIP3    H236986   2.626   3.057   2.222 -0.2907 -0.5001  0.6400
 5191TIP3   OH236987   2.271   2.069   2.248  0.3233 -0.4230  0.1059
 5191TIP3    H136988   2.211   2.089   2.176 -0.9252  0.9252  1.4575
 5191TIP3    H236989   2.238   1.988   2.286 -0.3414  0.0242  0.5008
 5192TIP3   OH236990   2.222   2.608  13.931 -0.0775 -0.3078  0.0685
 5192TIP3    H136991   2.233   2.702  13.937 -0.3573 -0.2105 -0.8648
 5192TIP3    H236992   2.299   2.571  13.974 -0.6362  0.3314  1.6531
 5193TIP3   OH236993   2.879   4.872  12.200 -0.4034  0.1521  0.3387
 5193TIP3    H136994   2.808   4.875  12.263  0.2541 -0.2198  1.1049
 5193TIP3    H236995   2.957   4.852  12.252  0.0088 -1.0049 -0.6919
 5194TIP3   OH236996   1.012   0.413   1.430  0.5281  0.9317 -0.0026
 5194TIP3    H136997   1.045   0.503   1.431 -0.3355  1.2562 -0.5688
 5194TIP3    H236998   1.086   0.361   1.399  0.3267  1.7462 -1.9479
 5195TIP3   OH236999   2.318   4.865  16.034  0.0073 -0.0661  0.1315
 5195TIP3    H137000   2.356   4.952  16.045  0.3583 -0.3309  1.0414
 5195TIP3    H237001   2.249   4.859  16.100 -0.2240 -0.3600 -0.1334
 5196TIP3   OH237002   5.230   1.266  12.622 -0.0434  0.0498  0.6670
 5196TIP3    H137003   5.193   1.206  12.558  1.7109  0.6875 -0.9923
 5196TIP3    H237004   5.235   1.215  12.703 -1.0975 -1.1567 -0.0082
 5197TIP3   OH237005   3.308   0.034  11.877  0.1140 -0.0219 -1.6553
 5197TIP3    H137006   3.355   0.058  11.957 -1.2488 -0.5122 -0.6748
 5197TIP3    H237007   3.336   0.099  11.812  4.2680 -1.9526 -1.9299
 5198TIP3   OH237008   0.773   4.326  11.656  0.0681 -0.3717 -0.4363
 5198TIP3    H137009   0.766   4.355  11.565 -0.7186 -0.3646 -0.3795
 5198TIP3    H237010   0.860   4.353  11.683  0.2312 -0.1906 -1.1270
 5199TIP3   OH237011   0.422   3.967   4.637  0.2876 -0.3910 -0.7993
 5199TIP3    H137012   0.498   3.915   4.663 -0.8473 -1.1286  1.1313
 5199TIP3    H237013   0.354   3.942   4.699 -1.0386  1.5239 -1.4534
 5200TIP3   OH237014   6.729   5.838   3.546  0.3953 -0.1902  0.1911
 5200TIP3    H137015   6.759   5.798   3.465  0.8202 -1.1671  0.8117
 5200TIP3    H237016   6.693   5.765   3.596 -0.5594  0.5282  0.5682
 5201TIP3   OH237017   1.186   3.510   5.936  0.2017 -0.2514  0.0194
 5201TIP3    H137018   1.172   3.416   5.921  0.1087 -0.2150 -0.1140
 5201TIP3    H237019   1.281   3.521   5.930  0.1573 -0.2240 -0.5852
 5202TIP3   OH237020   6.519   0.885  16.261  0.1500  0.2537 -0.2476
 5202TIP3    H137021   6.460   0.959  16.249  0.8059  0.4977 -2.0510
 5202TIP3    H237022   6.463   0.808  16.252  0.1330  0.4783 -2.2591
 5203TIP3   OH237023   0.781   1.705   5.690  0.6092  0.3474 -0.0418
 5203TIP3    H137024   0.726   1.710   5.612  0.9266  1.1563 -0.2150
 5203TIP3    H237025   0.723   1.670   5.757  0.0496  0.6219 -0.3761
 5204TIP3   OH237026   2.297   1.945   3.313  0.5311  0.8929 -0.2342
 5204TIP3    H137027   2.364   1.877   3.299  0.1479  0.7677 -1.5481
 5204TIP3    H237028   2.341   2.026   3.288  0.5230  0.9477 -0.0722
 5205TIP3   OH237029   0.761   4.193  16.427 -0.5029  0.0631 -0.1785
 5205TIP3    H137030   0.774   4.122  16.365 -0.0250  0.8152 -0.9564
 5205TIP3    H237031   0.777   4.154  16.512  2.5394 -0.1015 -0.7794
 5206TIP3   OH237032   4.802   5.736  12.105  0.0116  0.0269 -0.5293
 5206TIP3    H137033   4.746   5.688  12.044  0.0077  1.1372 -1.4086
 5206TIP3    H237034   4.845   5.668  12.156 -0.2005 -0.9121 -1.5802
 5207TIP3   OH237035   5.612   0.497   5.104 -0.4453  0.3944  0.1428
 5207TIP3    H137036   5.697   0.517   5.144 -1.2838  2.1275  1.1373
 5207TIP3    H237037   5.596   0.570   5.044 -0.8985 -0.3105 -0.6118
 5208TIP3   OH237038   0.976   2.101  16.375  0.1359  0.4291  0.1204
 5208TIP3    H137039   0.963   2.022  16.427  0.1644  2.2105  2.9520
 5208TIP3    H237040   1.071   2.116  16.376 -0.0351  1.5327  1.2381
 5209TIP3   OH237041   6.687   2.029   1.815 -0.0032 -0.1188  0.4081
 5209TIP3    H137042   6.642   2.113   1.809 -0.1157 -0.2406 -0.7245
 5209TIP3    H237043   6.777   2.052   1.837 -0.4514  0.1669  2.0109
 5210TIP3   OH237044   3.735   6.628  14.001  0.1324  0.1255 -0.1521
 5210TIP3    H137045   3.744   6.710  13.952  0.5115  1.6167  2.3192
 5210TIP3    H237046   3.646   6.632  14.038  0.1239 -0.6131 -0.0907
 5211TIP3   OH237047   6.043   3.564   2.085  0.0630  1.1153  0.0496
 5211TIP3    H137048   6.126   3.524   2.058  1.2238  1.8701  2.3363
 5211TIP3    H237049   5.977   3.525   2.027  1.8467 -0.3495 -1.0466
 5212TIP3   OH237050   2.115   4.561  12.055 -0.5070 -0.1138 -0.1602
 5212TIP3    H137051   2.133   4.502  11.982 -0.7657  0.6165 -0.8208
 5212TIP3    H237052   2.178   4.535  12.123  0.1346 -0.3980 -0.8590
 5213TIP3   OH237053   5.319   1.867   5.497  0.1749 -0.5376  0.0856
 5213TIP3    H137054   5.336   1.848   5.590  0.5734  1.2364  0.3950
 5213TIP3    H237055   5.277   1.952   5.498  0.2265 -0.4932 -1.3892
 5214TIP3   OH237056   1.606   3.666  16.960 -0.0960  0.2954 -0.5657
 5214TIP3    H137057   1.570   3.755  16.965  0.3562  0.5264 -1.3185
 5214TIP3    H237058   1.669   3.662  17.033 -1.0300  0.1640  0.2444
 5215TIP3   OH237059   3.369   3.321  15.969  0.1300 -0.1243 -0.0244
 5215TIP3    H137060   3.282   3.360  15.963  0.9708  1.9478  0.7221
 5215TIP3    H237061   3.395   3.306  15.879  0.0577  1.7214 -0.3684
 5216TIP3   OH237062   6.362   3.324   5.534  0.3200  0.6333 -0.2837
 5216TIP3    H137063   6.272   3.295   5.550 -0.1433  2.0811 -0.1940
 5216TIP3    H237064   6.380   3.298   5.443 -0.2714  0.5328 -0.3741
 5217TIP3   OH237065   5.565   3.397   1.246  0.1819 -0.1289  0.2045
 5217TIP3    H137066   5.552   3.463   1.314  0.6652  1.1214 -0.9011
 5217TIP3    H237067   5.476   3.369   1.223 -0.0956  0.9920 -0.1344
 5218TIP3   OH237068   4.571   4.872  14.830  0.0142 -0.8429  0.5086
 5218TIP3    H137069   4.664   4.880  14.810  0.1697 -0.6073  1.3321
 5218TIP3    H237070   4.533   4.830  14.752  1.0123 -2.0713  0.6859
 5219TIP3   OH237071   3.515   5.251   0.052 -0.3365  0.0218  0.2112
 5219TIP3    H137072   3.580   5.242   0.122 -0.6333 -0.6200  0.4121
 5219TIP3    H237073   3.553   5.204  -0.022 -0.7270 -0.6680  0.4446
 5220TIP3   OH237074   3.220   4.100   3.737 -0.0672  0.2981  0.3574
 5220TIP3    H137075   3.308   4.089   3.700 -0.1911 -1.6554  0.6064
 5220TIP3    H237076   3.161   4.088   3.664 -0.2199 -1.0397  0.6947
 5221TIP3   OH237077   0.084   0.304  11.766 -0.4860  0.0128  0.0815
 5221TIP3    H137078   0.170   0.291  11.805  0.5487 -2.7530 -2.8511
 5221TIP3    H237079   0.079   0.398  11.750  0.7628  0.5971  2.8506
 5222TIP3   OH237080   3.762   0.262   4.650 -0.6279  0.1306 -0.3017
 5222TIP3    H137081   3.695   0.233   4.589 -1.0386 -1.4920  0.8738
 5222TIP3    H237082   3.713   0.297   4.725 -0.1384  1.8369 -0.7575
 5223TIP3   OH237083   5.197   5.951  13.821  0.2513  0.2517  0.2915
 5223TIP3    H137084   5.112   5.971  13.780 -0.7236 -0.5046  1.8951
 5223TIP3    H237085   5.190   5.988  13.909  0.9122 -1.3743  1.0435
 5224TIP3   OH237086   4.517   2.807   0.519  0.6793  0.4302  0.2005
 5224TIP3    H137087   4.421   2.801   0.517  0.7790 -1.3082 -0.7351
 5224TIP3    H237088   4.544   2.776   0.432  2.0980  0.8582  0.4788
 5225TIP3   OH237089   0.093   2.182  12.235  0.5824 -0.0563 -0.2375
 5225TIP3    H137090   0.029   2.249  12.210 -0.6635 -0.9494  0.4808
 5225TIP3    H237091   0.153   2.228  12.295 -1.1617  0.0670  1.4710
 5226TIP3   OH237092   3.260   5.621  13.073  0.4719  0.4307  0.6091
 5226TIP3    H137093   3.234   5.619  13.166  1.1731 -0.5211  0.7999
 5226TIP3    H237094   3.331   5.557  13.067 -1.2482 -1.3982 -1.0894
 5227TIP3   OH237095   2.599   5.826   5.985  0.1268 -0.1992 -0.2722
 5227TIP3    H137096   2.693   5.848   5.988  0.6856 -2.5795  0.3966
 5227TIP3    H237097   2.568   5.843   6.073  0.2111 -0.6002 -0.1645
 5228TIP3   OH237098   5.956   1.127   1.935 -0.0061  0.7902  0.5380
 5228TIP3    H137099   5.913   1.060   1.989  0.3693  0.8327  0.8889
 5228TIP3    H237100   6.008   1.077   1.872 -1.9942  0.6933 -1.0890
 5229TIP3   OH237101   3.240   0.928   3.503 -0.1179 -0.4657 -0.2840
 5229TIP3    H137102   3.287   0.880   3.571  0.9890  1.3721  0.2792
 5229TIP3    H237103   3.278   1.016   3.505 -0.4568 -0.2234 -2.9096
 5230TIP3   OH237104   2.639   6.632  13.517  1.1238 -0.1884  1.2002
 5230TIP3    H137105   2.610   6.546  13.548  0.4110  0.0134  1.0987
 5230TIP3    H237106   2.591   6.694  13.571  0.2607  0.1623  0.0285
 5231TIP3   OH237107   0.889   0.537  16.196 -0.0635 -0.1570  0.4921
 5231TIP3    H137108   0.958   0.603  16.192 -1.4600  1.3823  1.2712
 5231TIP3    H237109   0.857   0.529  16.107  0.8074 -0.5586  0.2066
 5232TIP3   OH237110   0.492   6.229   0.934 -0.5370 -0.1703  0.3753
 5232TIP3    H137111   0.463   6.284   0.861 -0.2161 -0.1316  0.2738
 5232TIP3    H237112   0.576   6.194   0.905 -1.0502 -1.2574  0.1642
 5233TIP3   OH237113   4.398   0.616  10.500 -0.5842  0.2473 -0.5441
 5233TIP3    H137114   4.432   0.562  10.428 -1.7812 -1.1816 -0.0547
 5233TIP3    H237115   4.428   0.571  10.579 -1.8516  0.1190 -0.1336
 5234TIP3   OH237116   1.186   2.318   6.330 -0.0423 -0.4552 -0.4664
 5234TIP3    H137117   1.276   2.349   6.336 -0.4662  0.5558  1.0915
 5234TIP3    H237118   1.136   2.395   6.300 -0.8935  0.0669  2.0952
 5235TIP3   OH237119   3.572   2.797   5.184  0.0570 -0.0676 -0.0625
 5235TIP3    H137120   3.519   2.718   5.193 -2.2269  1.6788  2.8661
 5235TIP3    H237121   3.509   2.868   5.171  1.9799  1.4765 -1.3747
 5236TIP3   OH237122   5.806   5.173  14.100 -0.5898 -0.2320  0.2211
 5236TIP3    H137123   5.899   5.179  14.119 -0.4212 -2.0021  0.0560
 5236TIP3    H237124   5.801   5.176  14.004 -0.5356 -2.0008  0.1534
 5237TIP3   OH237125   1.353   6.151  13.607 -0.1538 -0.5268  0.0790
 5237TIP3    H137126   1.377   6.062  13.633  0.0550 -0.2980  0.6732
 5237TIP3    H237127   1.427   6.181  13.554 -0.3095 -0.7761 -0.2797
 5238TIP3   OH237128   3.000   1.249  12.742  0.2260  0.6133  0.3292
 5238TIP3    H137129   2.916   1.205  12.727 -1.0631  3.0059  0.2292
 5238TIP3    H237130   3.003   1.263  12.837  0.1277  1.2244  0.2455
 5239TIP3   OH237131   2.870   4.216  16.737  0.1411  0.4167  0.2821
 5239TIP3    H137132   2.784   4.246  16.708 -0.2735 -1.9865 -1.1218
 5239TIP3    H237133   2.872   4.235  16.831 -2.3666 -0.4499  0.5554
 5240TIP3   OH237134   3.659   4.450   5.912 -0.1319 -0.9340 -0.7780
 5240TIP3    H137135   3.568   4.432   5.934  0.5755 -0.1022  3.1976
 5240TIP3    H237136   3.660   4.542   5.886 -0.0565 -0.1672  1.8091
 5241TIP3   OH237137   4.107   6.434  14.961  0.3520 -0.3659  0.3895
 5241TIP3    H137138   4.168   6.500  14.928 -2.7979  1.2659 -2.4629
 5241TIP3    H237139   4.077   6.470  15.045 -2.0052  2.4342 -1.5350
 5242TIP3   OH237140   1.513   3.708  12.736  0.4708  0.2205 -0.0199
 5242TIP3    H137141   1.484   3.618  12.724  0.0042  0.3824 -0.0925
 5242TIP3    H237142   1.464   3.739  12.812  0.7417  0.3687  0.0978
 5243TIP3   OH237143   2.159   0.082   2.690  0.6331  0.2390 -0.2057
 5243TIP3    H137144   2.225   0.071   2.758  0.5994 -0.4818 -0.2759
 5243TIP3    H237145   2.089   0.021   2.715  0.7888 -0.3093 -1.0772
 5244TIP3   OH237146   3.905   4.138  15.043 -0.1835 -0.5813 -0.0718
 5244TIP3    H137147   3.983   4.107  15.089  0.2934  1.8182  0.7876
 5244TIP3    H237148   3.912   4.100  14.956  3.0850  1.2975 -0.7037
 5245TIP3   OH237149   6.746   1.064   5.517  0.2816  0.1244 -0.0486
 5245TIP3    H137150   6.670   1.070   5.460 -0.6201 -1.4895  0.9272
 5245TIP3    H237151   6.780   0.976   5.503 -0.9425 -0.9328  3.0428
 5246TIP3   OH237152   5.400   1.934  14.506  0.3702  0.2258  0.4749
 5246TIP3    H137153   5.438   1.987  14.436  0.0516 -0.4648 -0.2399
 5246TIP3    H237154   5.334   1.991  14.546  1.5670  1.1375  1.1901
 5247TIP3   OH237155   0.462   4.103  11.969 -0.1199 -0.0290  0.1519
 5247TIP3    H137156   0.522   4.156  11.916 -0.8784  0.3917 -0.2908
 5247TIP3    H237157   0.391   4.081  11.909  0.0801 -1.3627  0.3992
 5248TIP3   OH237158   5.755   1.058   1.463 -0.3225  0.4882 -0.4401
 5248TIP3    H137159   5.755   0.967   1.434 -0.5324  0.0946  0.7827
 5248TIP3    H237160   5.724   1.055   1.554  2.6449  1.4569  0.6476
 5249TIP3   OH237161   4.453   3.483  15.276  0.0011 -0.0113 -0.2527
 5249TIP3    H137162   4.388   3.500  15.344  0.9624 -0.9742  0.9354
 5249TIP3    H237163   4.401   3.460  15.199 -1.0838  0.0089  0.4530
 5250TIP3   OH237164   3.715   2.575  14.473 -0.4784 -0.1030 -0.0452
 5250TIP3    H137165   3.706   2.494  14.424  1.2284  0.3385 -1.1247
 5250TIP3    H237166   3.653   2.635  14.432  0.4609  0.0603 -1.2551
 5251TIP3   OH237167   6.166   1.743  12.098  0.0899 -0.1612  0.3995
 5251TIP3    H137168   6.177   1.832  12.064  0.8066 -1.2847 -2.4562
 5251TIP3    H237169   6.123   1.755  12.182 -1.0771  2.8214 -0.5450
 5252TIP3   OH237170   6.639   0.983   2.522  0.0785 -0.0880 -0.0948
 5252TIP3    H137171   6.666   1.028   2.602 -1.4357  0.4350  0.1290
 5252TIP3    H237172   6.553   1.019   2.501 -0.0280 -1.0216 -1.3483
 5253TIP3   OH237173   4.018   1.356  14.600 -0.2591 -0.4575 -0.1529
 5253TIP3    H137174   4.035   1.275  14.649 -2.0573 -1.6878 -1.4981
 5253TIP3    H237175   4.017   1.328  14.508 -0.7339  1.1259 -0.6367
 5254TIP3   OH237176   1.344   0.254   2.964  0.3821 -0.1180 -0.4622
 5254TIP3    H137177   1.374   0.170   2.927 -0.3443  0.4611 -2.4404
 5254TIP3    H237178   1.249   0.249   2.960  0.3438  1.4248 -2.1220
 5255TIP3   OH237179   0.682   1.570  13.750  0.5980  0.6158  0.4051
 5255TIP3    H137180   0.712   1.515  13.822 -3.1197 -0.7139  1.0601
 5255TIP3    H237181   0.663   1.655  13.790 -0.9124  0.0541  0.8894
 5256TIP3   OH237182   1.644   4.674   1.880  0.4778 -0.1478  0.9121
 5256TIP3    H137183   1.553   4.651   1.899  0.1501 -0.1591 -0.6209
 5256TIP3    H237184   1.655   4.654   1.787  2.0277 -0.0724  1.0673
 5257TIP3   OH237185   4.173   1.267  17.081  0.6063 -0.0159 -0.0949
 5257TIP3    H137186   4.234   1.283  17.153 -0.0219  0.6630  0.2983
 5257TIP3    H237187   4.124   1.190  17.107  0.5430  0.0894  0.0977
 5258TIP3   OH237188   4.520   1.047  12.137  0.1639  0.4642  0.5021
 5258TIP3    H137189   4.454   1.089  12.082  0.0594 -0.8149 -0.3528
 5258TIP3    H237190   4.474   1.029  12.219  0.1857  1.9183  0.8514
 5259TIP3   OH237191   4.396   3.332  13.851  0.2450  0.1900 -0.5242
 5259TIP3    H137192   4.304   3.349  13.873 -0.3550 -1.7712 -1.4321
 5259TIP3    H237193   4.423   3.265  13.913  1.2531  1.1648  0.1082
 5260TIP3   OH237194   1.107   6.590  13.538 -0.1525  0.0764 -0.3658
 5260TIP3    H137195   1.097   6.544  13.621  0.8231  0.2675 -0.1444
 5260TIP3    H237196   1.040   6.551  13.481 -0.8287 -0.0429  0.5018
 5261TIP3   OH237197   0.969   2.857  15.912  0.3913  0.5190  0.2603
 5261TIP3    H137198   1.000   2.769  15.933 -1.4570  0.0978  1.3652
 5261TIP3    H237199   1.042   2.914  15.937  1.2269 -0.6243  0.4824
 5262TIP3   OH237200   2.689   2.454   4.937  0.3983 -0.5238  0.5799
 5262TIP3    H137201   2.689   2.521   5.005  1.9843 -0.3429  0.4135
 5262TIP3    H237202   2.731   2.378   4.978  1.1399 -0.4935 -0.1235
 5263TIP3   OH237203   0.742   0.839  10.892 -0.2475 -0.0950  0.0217
 5263TIP3    H137204   0.798   0.916  10.895  0.7964 -0.8511 -0.0441
 5263TIP3    H237205   0.802   0.765  10.880 -1.1484 -1.0312  1.1078
 5264TIP3   OH237206   5.319   6.265  13.785  0.3064 -0.2908 -0.4626
 5264TIP3    H137207   5.237   6.217  13.775  0.5213 -0.6736 -0.3683
 5264TIP3    H237208   5.292   6.355  13.803 -0.0911 -0.1132 -1.8936
 5265TIP3   OH237209   4.144   6.295  11.613  0.2151 -0.6540  0.0488
 5265TIP3    H137210   4.155   6.210  11.656 -0.8857 -0.4213  0.7959
 5265TIP3    H237211   4.050   6.308  11.608  0.3116  2.8858  4.6515
 5266TIP3   OH237212   3.239   1.304  13.611 -0.1652 -0.8796  0.4807
 5266TIP3    H137213   3.314   1.245  13.617  0.7301  0.2438  0.4325
 5266TIP3    H237214   3.215   1.321  13.702 -0.6447 -1.5863  0.4903
 5267TIP3   OH237215   4.521   2.019   3.248 -0.1679  0.4636 -0.1894
 5267TIP3    H137216   4.616   2.015   3.262 -0.1314  1.2480 -0.1758
 5267TIP3    H237217   4.485   1.954   3.308  0.2900  0.9093  0.5706
 5268TIP3   OH237218   4.150   4.604   6.337  0.0210 -0.0051 -0.4642
 5268TIP3    H137219   4.131   4.653   6.418  0.0807  0.1156 -0.5228
 5268TIP3    H237220   4.122   4.515   6.356  1.1342 -0.2455  0.1130
 5269TIP3   OH237221   3.022   5.286   1.054  0.6024 -0.5210  0.9622
 5269TIP3    H137222   3.065   5.219   1.000  0.0430 -1.4272  1.6180
 5269TIP3    H237223   2.930   5.260   1.053  0.1288  1.1365 -0.0545
 5270TIP3   OH237224   2.318   1.389  16.100 -0.0263 -0.1194  0.2743
 5270TIP3    H137225   2.239   1.438  16.122 -1.4402 -1.4077 -1.7515
 5270TIP3    H237226   2.294   1.297  16.111  2.0608 -0.4818  2.2933
 5271TIP3   OH237227   2.439   1.388   0.058  0.2514 -0.2543  0.0707
 5271TIP3    H137228   2.395   1.379  -0.027  2.5342 -0.5739 -1.1465
 5271TIP3    H237229   2.465   1.480   0.062 -0.9769  0.0655  1.0355
 5272TIP3   OH237230   6.225   5.437  14.257  0.2514 -0.3527 -0.0922
 5272TIP3    H137231   6.316   5.427  14.286  0.9561 -0.4766 -2.2544
 5272TIP3    H237232   6.202   5.527  14.281  1.1707 -0.1032 -0.1288
 5273TIP3   OH237233   5.239   3.365   4.399 -0.2553  0.0550 -0.2397
 5273TIP3    H137234   5.301   3.309   4.445 -1.6843 -1.4676 -0.0983
 5273TIP3    H237235   5.207   3.312   4.326 -1.9852  0.4717  0.1689
 5274TIP3   OH237236   5.579   3.698  14.338 -0.0606 -0.0762 -0.0389
 5274TIP3    H137237   5.609   3.779  14.380 -2.8387  1.8350 -1.6002
 5274TIP3    H237238   5.622   3.628  14.388  2.1848  2.3241  1.5239
 5275TIP3   OH237239   6.426   5.142   0.379 -0.2378  0.3447  0.0357
 5275TIP3    H137240   6.511   5.185   0.381 -0.5647  1.2077 -2.2974
 5275TIP3    H237241   6.437   5.069   0.318 -1.7450  1.8642 -2.1181
 5276TIP3   OH237242   1.822   6.699  13.842 -0.2755  0.3242  0.7441
 5276TIP3    H137243   1.792   6.661  13.759  2.2366 -0.2485  0.0585
 5276TIP3    H237244   1.845   6.624  13.896  0.8027  0.7454  0.8947
 5277TIP3   OH237245   6.627   1.065   6.257  0.0403 -0.7264  0.2766
 5277TIP3    H137246   6.648   1.126   6.187  1.0456 -0.7490  0.5507
 5277TIP3    H237247   6.710   1.021   6.276 -0.5821 -1.9034  0.3397
 5278TIP3   OH237248   1.325   4.712   5.614  0.6479 -0.0429 -0.6073
 5278TIP3    H137249   1.382   4.643   5.649 -0.8024 -0.0363  1.9162
 5278TIP3    H237250   1.367   4.794   5.642  0.2646 -0.0107 -0.1082
 5279TIP3   OH237251   5.494   1.136  12.721  0.1490 -0.3121 -0.1351
 5279TIP3    H137252   5.497   1.230  12.703  1.5086 -0.1738  0.7882
 5279TIP3    H237253   5.577   1.102  12.688 -0.4698 -1.2475 -0.7539
 5280TIP3   OH237254   3.549   5.859   4.656 -0.1608  0.5924  0.0248
 5280TIP3    H137255   3.612   5.923   4.690  0.6003 -0.0904 -0.1073
 5280TIP3    H237256   3.497   5.833   4.733 -0.4452  1.3188  0.0907
 5281TIP3   OH237257   5.690   0.800   0.504 -0.7593 -0.5966 -0.4698
 5281TIP3    H137258   5.765   0.751   0.471 -0.0854  0.0994  0.0002
 5281TIP3    H237259   5.696   0.886   0.461  0.2570  0.3962  1.6033
 5282TIP3   OH237260   4.973   4.561   4.996 -0.2666 -0.5908  0.1784
 5282TIP3    H137261   4.934   4.621   5.059 -1.8745 -1.7339  0.3116
 5282TIP3    H237262   5.052   4.605   4.965 -0.8936  1.1354  1.0184
 5283TIP3   OH237263   2.392   5.939   1.116  0.5408  0.6134 -0.7027
 5283TIP3    H137264   2.403   6.032   1.134  0.8787  0.2026  1.4116
 5283TIP3    H237265   2.393   5.932   1.021 -0.8453  2.9179 -0.9095
 5284TIP3   OH237266   6.095   4.346  15.682  0.6854 -0.4236  0.3198
 5284TIP3    H137267   6.066   4.411  15.618  0.0843 -0.0577  0.9523
 5284TIP3    H237268   6.088   4.263  15.636 -0.5847 -0.2609  0.1740
 5285TIP3   OH237269   4.101   5.387  13.643 -0.3967 -0.3309 -0.1242
 5285TIP3    H137270   4.070   5.297  13.652  0.6983 -0.6108  0.9958
 5285TIP3    H237271   4.175   5.393  13.703 -1.4441  1.7745  0.9980
 5286TIP3   OH237272   3.844   4.729   4.373 -0.4005  0.1233  0.4332
 5286TIP3    H137273   3.790   4.653   4.357  0.5126 -0.2669 -0.9430
 5286TIP3    H237274   3.912   4.725   4.306  0.3433  1.5109  1.0616
 5287TIP3   OH237275   0.957   0.841  16.044 -0.3647  0.4889 -0.4174
 5287TIP3    H137276   0.991   0.922  16.008 -1.1243  1.2833  0.6100
 5287TIP3    H237277   0.965   0.851  16.139 -1.1554 -0.3249 -0.2544
 5288TIP3   OH237278   0.947   0.271   0.496  0.6062 -0.6876  0.0756
 5288TIP3    H137279   1.002   0.285   0.573  1.5878 -2.0307 -0.3755
 5288TIP3    H237280   0.899   0.191   0.514 -1.5303  0.6815  0.6329
 5289TIP3   OH237281   6.139   4.270  13.599 -0.1015  0.0555 -0.9386
 5289TIP3    H137282   6.052   4.241  13.627  0.3779 -0.5237 -0.0302
 5289TIP3    H237283   6.170   4.202  13.539  0.1435 -0.2615 -0.4589
 5290TIP3   OH237284   0.273   1.773   5.384  0.2634  0.3523  0.1265
 5290TIP3    H137285   0.299   1.690   5.344  2.1848  0.4789  1.0381
 5290TIP3    H237286   0.192   1.797   5.339  1.6885 -0.1145 -2.8603
 5291TIP3   OH237287   2.922   6.376  14.392 -0.2460  0.2511  0.0749
 5291TIP3    H137288   2.945   6.287  14.365 -0.8499  0.0673  0.1571
 5291TIP3    H237289   2.938   6.429  14.314  0.9121  0.2092  0.2750
 5292TIP3   OH237290   2.563   6.092  11.631  0.3343  0.3541 -0.0973
 5292TIP3    H137291   2.615   6.098  11.711 -1.1749 -0.8588  1.0278
 5292TIP3    H237292   2.625   6.070  11.562  1.3699 -0.5307  1.1162
 5293TIP3   OH237293   2.581   4.551   1.752  0.1154  0.1710  0.6721
 5293TIP3    H137294   2.487   4.553   1.773  0.1756 -1.4799  1.1703
 5293TIP3    H237295   2.589   4.485   1.684  0.9677  0.0043  0.9293
 5294TIP3   OH237296   4.164   6.065  13.642 -0.3044  0.1327 -0.6949
 5294TIP3    H137297   4.087   6.110  13.609 -2.0749 -2.8346 -0.7928
 5294TIP3    H237298   4.155   6.069  13.738 -1.2278 -1.2255 -0.7133
 5295TIP3   OH237299   6.282   3.942  12.826  0.2277 -0.3051 -0.0211
 5295TIP3    H137300   6.373   3.928  12.852 -0.0609 -0.8451  0.7256
 5295TIP3    H237301   6.259   4.026  12.864  0.8344  0.4964 -1.3892
 5296TIP3   OH237302   4.830   3.160  11.747  0.4791 -0.2041  0.5408
 5296TIP3    H137303   4.857   3.176  11.838 -0.6361 -0.9820  1.0239
 5296TIP3    H237304   4.745   3.203  11.739  0.3254 -0.5927  0.0275
 5297TIP3   OH237305   2.863   5.949   1.717 -0.1574 -0.5243 -0.4629
 5297TIP3    H137306   2.805   5.969   1.791 -0.8434  0.5194 -1.2665
 5297TIP3    H237307   2.946   5.992   1.739 -0.8427  1.1100 -1.0071
 5298TIP3   OH237308   6.390   1.859  15.016 -0.6627 -0.1642  0.1803
 5298TIP3    H137309   6.482   1.843  14.996 -0.6014  0.4530 -0.0321
 5298TIP3    H237310   6.390   1.883  15.109 -0.5982 -0.0674  0.1553
 5299TIP3   OH237311   3.332   2.301  12.549  0.1070 -0.1989  0.4940
 5299TIP3    H137312   3.357   2.298  12.456  1.7020 -0.8254  0.9245
 5299TIP3    H237313   3.247   2.257  12.553  2.1734 -4.4360 -0.0114
 5300TIP3   OH237314   4.529   5.271   0.017 -0.2906  0.0844 -0.7438
 5300TIP3    H137315   4.548   5.361  -0.011 -1.0840  0.9208  1.2799
 5300TIP3    H237316   4.442   5.252  -0.018 -0.3839  0.3415 -0.6515
 5301TIP3   OH237317   2.422   4.518  14.990  0.0979 -0.0435 -0.6283
 5301TIP3    H137318   2.347   4.574  15.013 -0.1383 -0.6784  0.1675
 5301TIP3    H237319   2.384   4.430  14.983  0.9282 -0.5311  0.7317
 5302TIP3   OH237320   5.607   6.157   6.046 -0.2892 -0.3622  0.6348
 5302TIP3    H137321   5.616   6.238   6.097  0.7438  0.5246 -0.9053
 5302TIP3    H237322   5.513   6.151   6.027 -0.3035  0.7610  0.3105
 5303TIP3   OH237323   2.313   4.844   3.070 -0.4886 -0.4346 -0.2939
 5303TIP3    H137324   2.383   4.832   3.134 -0.7614 -2.9134 -0.4294
 5303TIP3    H237325   2.331   4.780   3.001 -0.7842  1.4948 -2.2185
 5304TIP3   OH237326   4.074   4.233   2.739 -0.0701  0.5751 -0.4415
 5304TIP3    H137327   4.000   4.180   2.770  0.9020  0.1726  1.2890
 5304TIP3    H237328   4.049   4.323   2.758  0.8564  0.2898  2.4468
 5305TIP3   OH237329   6.771   2.708  15.185 -0.1581 -0.2240  0.1940
 5305TIP3    H137330   6.684   2.679  15.159 -0.1031 -1.4693  1.3273
 5305TIP3    H237331   6.826   2.689  15.110 -0.2729 -2.4367  0.6313
 5306TIP3   OH237332   0.742   0.807   0.713  0.1067  0.1406  0.3820
 5306TIP3    H137333   0.807   0.872   0.687  0.1747  0.2787  0.8882
 5306TIP3    H237334   0.671   0.858   0.752  0.3515 -0.1206  1.1721
 5307TIP3   OH237335   3.691   0.717  13.455  0.3763  0.0305 -0.4962
 5307TIP3    H137336   3.708   0.772  13.531 -0.0582  0.0641 -0.4254
 5307TIP3    H237337   3.751   0.643  13.465 -0.0162 -0.2116  0.1320
 5308TIP3   OH237338   3.723   4.868  12.416 -0.3437  0.3610  0.1516
 5308TIP3    H137339   3.628   4.879  12.412 -0.3724  1.0123  2.2646
 5308TIP3    H237340   3.737   4.803  12.484  0.6384 -1.5015 -1.7643
 5309TIP3   OH237341   4.835   0.924  16.316 -0.2634 -0.4357 -0.2763
 5309TIP3    H137342   4.783   0.888  16.244 -0.3560  1.5000 -1.2192
 5309TIP3    H237343   4.832   0.857  16.384 -0.5183 -2.1329 -1.9104
 5310TIP3   OH237344   4.522   3.580  16.352 -0.8819  0.8018  0.3862
 5310TIP3    H137345   4.579   3.645  16.393  0.8903 -0.1458 -0.5061
 5310TIP3    H237346   4.446   3.573  16.410  0.0207  1.9231  1.7097
 5311TIP3   OH237347   3.134   2.037  14.510 -0.2245  0.3320  0.3442
 5311TIP3    H137348   3.107   1.963  14.564 -0.6328  1.2004  1.3755
 5311TIP3    H237349   3.229   2.037  14.515 -0.2336 -0.0188  0.5035
 5312TIP3   OH237350   1.321   2.996   0.995  0.6649  0.1762  0.4086
 5312TIP3    H137351   1.394   2.992   0.933 -0.6711  0.6780 -1.2475
 5312TIP3    H237352   1.286   2.907   0.997  0.2215  0.3323 -0.1820
 5313TIP3   OH237353   2.481   3.352  16.072  0.0684 -0.2894 -0.1297
 5313TIP3    H137354   2.539   3.403  16.015  0.8298  0.1852  1.0434
 5313TIP3    H237355   2.535   3.277  16.099  1.0214  1.3940  2.8963
 5314TIP3   OH237356   2.562   1.699   2.057 -0.1156  0.6962  0.3173
 5314TIP3    H137357   2.643   1.660   2.026  0.2026  0.0883  1.8882
 5314TIP3    H237358   2.567   1.790   2.029  2.1076  1.2222  2.2531
 5315TIP3   OH237359   5.314   5.819  14.795 -0.4541  0.6516 -0.0732
 5315TIP3    H137360   5.241   5.787  14.742 -1.5111  0.8154  1.2429
 5315TIP3    H237361   5.364   5.875  14.736 -0.6821 -0.4539 -1.3447
 5316TIP3   OH237362   1.310   1.578   3.225  0.0428  0.3616 -0.8390
 5316TIP3    H137363   1.356   1.661   3.212  0.3877  0.0611 -1.5817
 5316TIP3    H237364   1.291   1.547   3.136  2.1098 -1.5524 -0.6686
 5317TIP3   OH237365   5.724   1.584  10.365 -0.4091 -0.2378  0.3400
 5317TIP3    H137366   5.772   1.504  10.389 -0.6784 -0.6792 -0.5830
 5317TIP3    H237367   5.761   1.651  10.422 -0.1421 -1.0077  1.0904
 5318TIP3   OH237368   0.788   6.458   6.657  0.4481  0.5469  0.5935
 5318TIP3    H137369   0.712   6.471   6.601  0.1592  0.2761  0.9250
 5318TIP3    H237370   0.858   6.508   6.614  0.0459  0.9291  0.3803
 5319TIP3   OH237371   0.829   2.341   1.921 -0.2114  0.2252  0.2022
 5319TIP3    H137372   0.801   2.350   2.012 -0.4679  0.8568  0.0589
 5319TIP3    H237373   0.803   2.252   1.897  1.6156 -0.6596  1.3543
 5320TIP3   OH237374   3.151   5.213  13.737 -0.3245 -0.4612 -0.7543
 5320TIP3    H137375   3.166   5.302  13.705  0.8584 -0.4427 -0.1408
 5320TIP3    H237376   3.121   5.224  13.827  1.0782 -0.7374 -0.2471
 5321TIP3   OH237377   4.240   4.852  11.892 -0.6211  0.2967 -0.5063
 5321TIP3    H137378   4.283   4.895  11.818 -0.5270  0.6172 -0.2639
 5321TIP3    H237379   4.161   4.904  11.907 -0.7664  0.0874 -0.5354
 5322TIP3   OH237380   1.265   0.282   4.614  0.0603 -0.1622 -0.0837
 5322TIP3    H137381   1.230   0.272   4.703  0.7567  0.3782  0.2598
 5322TIP3    H237382   1.347   0.233   4.614 -0.4091 -0.9496 -0.7162
 5323TIP3   OH237383   6.593   2.676   5.654 -0.0886 -0.2646 -0.1734
 5323TIP3    H137384   6.509   2.632   5.662 -0.0423 -0.5992 -1.4659
 5323TIP3    H237385   6.581   2.761   5.698 -1.7467  0.5844 -2.1912
 5324TIP3   OH237386   1.110   5.093  12.413 -0.8732  0.2588  0.0143
 5324TIP3    H137387   1.161   5.049  12.481 -1.1589  1.4583  1.0134
 5324TIP3    H237388   1.041   5.030  12.391 -1.2951  0.1975  1.4615
 5325TIP3   OH237389   5.847   6.145   5.900  0.1630 -0.6054 -0.3561
 5325TIP3    H137390   5.768   6.116   5.946  0.8344  2.0599  2.7037
 5325TIP3    H237391   5.919   6.104   5.948  0.8222  1.1425  0.1815
 5326TIP3   OH237392   1.033   6.391   0.735  0.3991  1.0453  0.4672
 5326TIP3    H137393   1.082   6.317   0.770 -0.0146 -0.1627 -1.4140
 5326TIP3    H237394   1.052   6.390   0.641 -0.9786  2.2674  0.1483
 5327TIP3   OH237395   0.274   0.809   5.032  0.1552  0.6638 -0.5613
 5327TIP3    H137396   0.212   0.861   5.084 -0.3756  0.8788 -1.3892
 5327TIP3    H237397   0.308   0.870   4.967  1.3600  0.5785 -0.0082
 5328TIP3   OH237398   0.306   0.993  17.231  1.1948 -0.3646  0.0346
 5328TIP3    H137399   0.391   0.952  17.251  0.8898 -1.5890 -1.0972
 5328TIP3    H237400   0.264   0.932  17.171 -0.8171 -0.1250  1.1618
 5329TIP3   OH237401   6.243   4.751   6.347  0.4890 -0.1569  0.0898
 5329TIP3    H137402   6.278   4.819   6.289 -2.2371  0.2874 -1.1144
 5329TIP3    H237403   6.251   4.670   6.298 -0.1508 -0.0564 -0.1816
 5330TIP3   OH237404   5.683   4.905  13.153  0.0674  0.6105  0.0172
 5330TIP3    H137405   5.673   4.868  13.241  1.2782  0.4268  0.0850
 5330TIP3    H237406   5.629   4.984  13.154 -1.0727 -0.1602  0.4559
 5331TIP3   OH237407   3.959   1.400  11.281  0.8437 -0.3705  0.5889
 5331TIP3    H137408   3.863   1.392  11.281  0.7884  0.2220 -0.7650
 5331TIP3    H237409   3.984   1.383  11.372 -0.8369  2.6320  1.6715
 5332TIP3   OH237410   0.889   3.780  14.452  0.0871  0.5409  0.0705
 5332TIP3    H137411   0.856   3.857  14.406  2.3497  2.6846  1.8902
 5332TIP3    H237412   0.976   3.766  14.415 -0.1265 -0.9039  0.0677
 5333TIP3   OH237413   3.868   5.060   6.049 -0.3921 -0.6460 -0.1142
 5333TIP3    H137414   3.788   5.051   5.997  0.1524 -0.3732 -1.0064
 5333TIP3    H237415   3.851   5.136   6.104 -0.9492 -0.8982  0.0720
 5334TIP3   OH237416   5.387   1.807   4.461 -0.0507 -0.4450 -0.3561
 5334TIP3    H137417   5.373   1.728   4.514 -0.8543  0.1030  0.2669
 5334TIP3    H237418   5.310   1.861   4.478 -1.6304 -1.3606 -4.1391
 5335TIP3   OH237419   1.293   2.463   0.524 -0.2722  0.6802  0.5171
 5335TIP3    H137420   1.237   2.495   0.595 -1.5873  0.9828 -0.6436
 5335TIP3    H237421   1.355   2.534   0.508 -1.7514  1.7312 -0.5284
 5336TIP3   OH237422   2.282   1.023   0.105  0.1373  0.1042  0.0125
 5336TIP3    H137423   2.367   1.012   0.147  0.6413  2.5033 -0.2791
 5336TIP3    H237424   2.292   0.982   0.019  1.3004  1.1282 -0.3570
 5337TIP3   OH237425   5.800   6.080   5.105 -0.0995 -0.0212  0.1395
 5337TIP3    H137426   5.827   6.043   5.020 -2.0283 -1.1882  0.0162
 5337TIP3    H237427   5.736   6.018   5.139 -1.5104  1.9389  1.1153
 5338TIP3   OH237428   2.073   2.761  14.762  0.1346  0.2261  0.0660
 5338TIP3    H137429   2.108   2.694  14.821 -0.6267 -0.8737 -0.7131
 5338TIP3    H237430   1.978   2.753  14.770  0.0371  0.9001 -0.3835
 5339TIP3   OH237431   2.601   1.633  14.468  0.1069 -0.8976 -0.4577
 5339TIP3    H137432   2.601   1.696  14.540  0.4340 -0.0752 -1.1743
 5339TIP3    H237433   2.664   1.566  14.496  3.6158  1.6446 -1.8794
 5340TIP3   OH237434   1.497   0.874   2.082  0.0880 -0.3305 -0.5009
 5340TIP3    H137435   1.439   0.937   2.125 -2.0007 -1.5513 -1.4551
 5340TIP3    H237436   1.445   0.840   2.009  2.0777 -1.3572 -1.4799
 5341TIP3   OH237437   4.935   2.741  16.699  0.0993  0.7878  0.3190
 5341TIP3    H137438   4.840   2.746  16.709 -0.0272  1.4191 -1.1208
 5341TIP3    H237439   4.967   2.826  16.728  0.0133  1.4235 -1.4080
 5342TIP3   OH237440   3.661   4.949   3.474  0.3306 -0.6610 -0.1375
 5342TIP3    H137441   3.698   4.861   3.462 -0.6222 -1.0612 -0.2514
 5342TIP3    H237442   3.670   4.991   3.388 -2.2642 -1.8709 -1.0775
 5343TIP3   OH237443   2.400   0.810  15.625 -0.1214 -0.1926  0.5157
 5343TIP3    H137444   2.471   0.747  15.607  0.1738 -0.0603  1.1702
 5343TIP3    H237445   2.368   0.784  15.712  0.2323  0.7695  0.9376
 5344TIP3   OH237446   0.702   2.675   5.692  0.0211  0.7446  0.2473
 5344TIP3    H137447   0.760   2.664   5.617  0.4788  2.7716  0.2527
 5344TIP3    H237448   0.621   2.630   5.668  0.8841 -0.3722 -0.5960
 5345TIP3   OH237449   1.354   0.934   1.699  0.3205  0.1645 -0.5873
 5345TIP3    H137450   1.321   0.969   1.782  0.7670 -0.9804  0.0779
 5345TIP3    H237451   1.314   0.990   1.632 -0.3215  0.8722  0.3759
 5346TIP3   OH237452   2.409   4.051  13.049 -0.2821 -0.1004 -0.3084
 5346TIP3    H137453   2.432   4.143  13.061 -1.5419  0.2823 -0.6902
 5346TIP3    H237454   2.318   4.053  13.017 -1.4403 -1.5747  2.6641
 5347TIP3   OH237455   0.037   2.512  12.198 -0.3095 -0.0067 -0.1113
 5347TIP3    H137456  -0.044   2.525  12.248  0.0341  0.2038  0.3959
 5347TIP3    H237457   0.013   2.451  12.128 -0.9460  0.1784 -0.0584
 5348TIP3   OH237458   5.934   0.970  13.495 -0.3089  0.3260 -0.3394
 5348TIP3    H137459   5.937   1.065  13.480 -2.2398  0.5294  0.4579
 5348TIP3    H237460   5.859   0.940  13.445  0.2978 -0.8091 -0.5900
 5349TIP3   OH237461   6.199   0.327   3.343 -0.3612 -0.4053  0.1262
 5349TIP3    H137462   6.165   0.379   3.270 -2.7911 -1.9629  0.0947
 5349TIP3    H237463   6.225   0.391   3.409 -0.0062  0.9453 -1.3030
 5350TIP3   OH237464   0.994   1.561  11.101  0.1045 -0.1683  0.4951
 5350TIP3    H137465   1.028   1.555  11.012  0.5354  0.4624  0.6125
 5350TIP3    H237466   0.914   1.508  11.100 -0.8374  1.2448 -0.7130
 5351TIP3   OH237467   3.312   1.866  10.466  0.4106  0.0409 -0.2889
 5351TIP3    H137468   3.345   1.922  10.395 -1.3397  0.0059 -1.1470
 5351TIP3    H237469   3.218   1.881  10.466  0.2632 -0.8468  1.2864
 5352TIP3   OH237470   6.667   0.049   2.011  0.4173  0.0728 -0.4941
 5352TIP3    H137471   6.622   0.116   2.063 -1.0437 -0.5115 -0.9844
 5352TIP3    H237472   6.723   0.004   2.073 -1.9474 -1.1866  0.8202
 5353TIP3   OH237473   2.645   1.501   3.862  0.4084 -0.2950  0.3867
 5353TIP3    H137474   2.733   1.523   3.831  0.6198  0.8082  1.7315
 5353TIP3    H237475   2.655   1.416   3.905  0.8324 -0.1306  0.6157
 5354TIP3   OH237476   6.567   3.713  12.123 -0.0340 -0.5250 -0.5312
 5354TIP3    H137477   6.571   3.618  12.121 -2.1991 -0.6598  0.3854
 5354TIP3    H237478   6.658   3.741  12.118  0.8187 -2.7127  1.7521
 5355TIP3   OH237479   1.126   3.430  15.538  0.3713 -0.3678 -0.5549
 5355TIP3    H137480   1.166   3.367  15.479 -0.5223 -0.9850 -0.5140
 5355TIP3    H237481   1.036   3.399  15.550  0.4359 -0.0576  0.8536
 5356TIP3   OH237482   2.677   5.559  15.194  0.6989  0.8718 -0.2613
 5356TIP3    H137483   2.750   5.621  15.201 -0.5114  2.4315 -1.3685
 5356TIP3    H237484   2.606   5.599  15.244 -0.0355  0.2888 -0.8255
 5357TIP3   OH237485   5.586   2.607   0.966 -0.2479  0.1690  0.4531
 5357TIP3    H137486   5.535   2.685   0.943  0.5969  0.6529  0.1501
 5357TIP3    H237487   5.674   2.642   0.983  1.1778 -1.1214 -3.5227
 5358TIP3   OH237488   4.955   5.394   1.609 -0.3587 -0.0897 -0.1683
 5358TIP3    H137489   4.963   5.479   1.653 -0.5841 -0.5369  0.7463
 5358TIP3    H237490   5.024   5.395   1.542  1.6172 -0.3901  1.8056
 5359TIP3   OH237491   0.886   2.440  11.679  0.7553  0.4262  0.5130
 5359TIP3    H137492   0.865   2.527  11.643 -1.5579 -0.7327 -1.1069
 5359TIP3    H237493   0.836   2.435  11.760  1.1466  0.7322  0.7725
 5360TIP3   OH237494   5.020   1.452   2.952 -0.6129  0.1306 -0.1884
 5360TIP3    H137495   5.096   1.431   2.897  2.0970  2.2810  2.5771
 5360TIP3    H237496   4.970   1.515   2.900  0.1524 -0.3378 -1.5286
 5361TIP3   OH237497   3.231   1.718   4.670 -0.8314 -0.3357 -0.0443
 5361TIP3    H137498   3.201   1.641   4.622 -0.0573  0.1073 -1.2491
 5361TIP3    H237499   3.251   1.783   4.603 -2.1214  1.1800  0.9881
 5362TIP3   OH237500   5.319   3.601   5.706  0.2718 -0.4734 -0.8405
 5362TIP3    H137501   5.274   3.640   5.631  0.5543  1.3717 -0.0865
 5362TIP3    H237502   5.265   3.527   5.732 -1.8109  1.0940 -0.5879
 5363TIP3   OH237503   0.007   4.431  16.984  0.0643 -0.0619  0.1647
 5363TIP3    H137504   0.059   4.500  17.025  0.4882 -0.3871  0.1749
 5363TIP3    H237505   0.070   4.380  16.933 -0.3244 -0.1592 -0.2264
 5364TIP3   OH237506   4.797   1.674  16.248  0.0713 -0.4481 -0.1051
 5364TIP3    H137507   4.784   1.584  16.277  1.4870 -0.2690  1.1146
 5364TIP3    H237508   4.764   1.675  16.158  0.9011 -2.4022 -0.4547
 5365TIP3   OH237509   3.624   4.015  12.728  0.1173 -0.1937 -0.6237
 5365TIP3    H137510   3.571   3.995  12.651  0.6801  0.3962 -1.1712
 5365TIP3    H237511   3.614   4.109  12.740 -1.7932 -0.6116  1.3992
 5366TIP3   OH237512   1.543   5.800  11.917  0.1690 -0.0204  0.2864
 5366TIP3    H137513   1.549   5.737  11.846 -1.0172  0.9646 -0.7106
 5366TIP3    H237514   1.451   5.798  11.944  0.2535  0.8051  0.6818
 5367TIP3   OH237515   4.465   3.925  16.316  0.4578 -0.4107 -0.2883
 5367TIP3    H137516   4.516   3.886  16.387 -0.6988  0.2356  0.9253
 5367TIP3    H237517   4.528   3.977  16.267  1.7470 -2.6635 -1.1299
 5368TIP3   OH237518   2.373   6.027  12.589  0.2783  0.3876  0.4186
 5368TIP3    H137519   2.386   5.933  12.600  1.9672  0.4755 -0.6043
 5368TIP3    H237520   2.429   6.067  12.655 -0.3666  0.6787  0.7913
 5369TIP3   OH237521   3.923   6.513   0.942 -0.0462  0.0166 -0.3712
 5369TIP3    H137522   3.871   6.442   0.904 -0.3010 -0.1791  0.3306
 5369TIP3    H237523   3.869   6.545   1.015  0.0662  0.9285 -0.6773
 5370TIP3   OH237524   0.415   3.433   5.148  0.1268 -0.0270 -0.5398
 5370TIP3    H137525   0.505   3.412   5.176  0.6998  0.9055 -1.6351
 5370TIP3    H237526   0.370   3.455   5.229  1.0850  0.1594 -0.0434
 5371TIP3   OH237527   0.403   1.691   2.310 -0.2940  0.1010  0.3646
 5371TIP3    H137528   0.376   1.738   2.231  0.7032  0.4430  0.2216
 5371TIP3    H237529   0.425   1.603   2.280  1.6071  0.6762 -0.0211
 5372TIP3   OH237530   2.051   1.553   1.717 -0.4677 -0.1024 -0.1237
 5372TIP3    H137531   2.026   1.461   1.721  1.1401 -0.6115 -1.2502
 5372TIP3    H237532   2.050   1.575   1.624  0.0204  0.7689  0.0666
 5373TIP3   OH237533   5.343   1.025   4.007  0.3097  0.5596 -0.0370
 5373TIP3    H137534   5.322   0.937   4.040  1.2216 -0.5176 -2.1754
 5373TIP3    H237535   5.420   1.011   3.951  0.4218  2.7237 -0.4571
 5374TIP3   OH237536   3.980   6.400   2.509  0.1673  0.0393  0.3545
 5374TIP3    H137537   3.953   6.419   2.599 -1.0530 -1.0869  0.2433
 5374TIP3    H237538   3.930   6.461   2.456  1.2849  1.0652  0.4720
 5375TIP3   OH237539   4.191   1.464  16.877  0.0536  0.0857  0.2856
 5375TIP3    H137540   4.173   1.418  16.795  1.4121 -1.2090  0.7017
 5375TIP3    H237541   4.186   1.397  16.944 -2.9298  1.4913  1.5314
 5376TIP3   OH237542   2.483   4.205  12.149  0.1907 -0.3743 -0.0114
 5376TIP3    H137543   2.445   4.132  12.198  0.2805 -0.0682  0.5176
 5376TIP3    H237544   2.544   4.165  12.088 -0.3277 -0.8031 -0.2526
 5377TIP3   OH237545   5.259   5.398   2.575 -0.5270  0.2169 -0.3950
 5377TIP3    H137546   5.274   5.362   2.488 -2.1262 -3.0824  0.5890
 5377TIP3    H237547   5.237   5.322   2.629  2.6843  1.8391  3.4814
 5378TIP3   OH237548   4.296   5.664   4.428  0.3997  0.3319  0.1395
 5378TIP3    H137549   4.357   5.600   4.464  1.4001  1.4141  0.4392
 5378TIP3    H237550   4.213   5.618   4.422  1.0412 -0.9153  0.5612
 5379TIP3   OH237551   6.411   2.181  15.211 -1.1435  0.2455  0.1603
 5379TIP3    H137552   6.320   2.165  15.237 -0.8327  1.3686  2.1026
 5379TIP3    H237553   6.454   2.206  15.293  1.0863 -1.0116 -0.6022
 5380TIP3   OH237554   2.356   3.804   1.267  0.1191  0.5802 -0.1231
 5380TIP3    H137555   2.276   3.855   1.252  0.6753  1.5632  0.1959
 5380TIP3    H237556   2.362   3.746   1.191 -0.5062  1.0177 -0.5151
 5381TIP3   OH237557   4.978   5.427   6.019 -0.0771 -0.6106 -0.2012
 5381TIP3    H137558   4.993   5.490   5.949 -0.7382 -0.0959  0.1096
 5381TIP3    H237559   4.950   5.480   6.094 -1.4421 -1.3389 -0.1751
 5382TIP3   OH237560   6.075   0.544  12.914  0.2120  0.7918 -0.4620
 5382TIP3    H137561   6.103   0.523  13.003 -0.0580  1.5050 -0.2037
 5382TIP3    H237562   6.010   0.613  12.925  1.1223  1.8130 -1.2813
 5383TIP3   OH237563   4.068   6.166  12.956  0.5922  0.6217 -0.2815
 5383TIP3    H137564   4.157   6.193  12.980  1.4672 -0.8665 -1.7675
 5383TIP3    H237565   4.066   6.072  12.973 -0.7115  0.6460 -0.2600
 5384TIP3   OH237566   6.501   0.354   6.097  0.0508  0.0642 -0.7142
 5384TIP3    H137567   6.591   0.321   6.099  0.1780  0.4336  0.4822
 5384TIP3    H237568   6.468   0.337   6.186 -0.9982  0.0884 -1.0943
 5385TIP3   OH237569   1.983   6.703   4.126  0.0314  0.6338  0.0328
 5385TIP3    H137570   2.004   6.698   4.033 -0.0884 -0.8714  0.0679
 5385TIP3    H237571   1.901   6.753   4.129 -1.3332 -1.4278 -0.9208
 5386TIP3   OH237572   2.039   3.265  13.417  0.1249  0.5395  0.9961
 5386TIP3    H137573   2.065   3.173  13.417 -1.7624 -0.1482 -3.1830
 5386TIP3    H237574   2.118   3.312  13.444  1.6016 -2.1914  1.6893
 5387TIP3   OH237575   1.380   3.686   1.227  0.1391 -0.0635 -0.3250
 5387TIP3    H137576   1.446   3.669   1.159 -0.1137  1.1710 -0.9073
 5387TIP3    H237577   1.389   3.614   1.288  0.4975 -1.1109 -1.5932
 5388TIP3   OH237578   5.695   2.074  12.793 -0.2855  0.7247 -0.4794
 5388TIP3    H137579   5.663   1.985  12.809 -0.1050  0.9210  1.0483
 5388TIP3    H237580   5.708   2.111  12.880 -0.4387  2.2903 -1.0969
 5389TIP3   OH237581   2.976   5.828   3.179 -0.4689  0.1326 -0.2841
 5389TIP3    H137582   3.015   5.866   3.258 -1.1307 -1.1759  0.6974
 5389TIP3    H237583   2.884   5.852   3.184 -0.7260 -0.8635 -0.0960
 5390TIP3   OH237584   0.898   1.212  16.595 -0.1815  0.4473  0.0510
 5390TIP3    H137585   0.818   1.263  16.581  0.4847  1.8883  1.2845
 5390TIP3    H237586   0.934   1.246  16.677  2.1385  0.4363 -0.9232
 5391TIP3   OH237587   0.831   6.764  12.987  0.6584  0.0901 -0.4623
 5391TIP3    H137588   0.845   6.723  13.072  0.6841  1.2015  0.0761
 5391TIP3    H237589   0.910   6.816  12.973 -0.0479  1.1821 -0.4255
 5392TIP3   OH237590   0.024   3.169   3.264 -0.2799 -0.3981  0.0811
 5392TIP3    H137591   0.075   3.199   3.189 -0.3588 -0.6556 -0.0728
 5392TIP3    H237592   0.036   3.238   3.330 -0.8777  0.2279 -0.4548
 5393TIP3   OH237593   2.783   1.481  14.277 -0.9483  0.5525  0.0822
 5393TIP3    H137594   2.695   1.503  14.247 -1.1400  0.7956  0.8102
 5393TIP3    H237595   2.841   1.531  14.219 -1.3200  1.1287  0.2021
 5394TIP3   OH237596   6.272   5.722   5.779 -0.0386  0.5285  0.2072
 5394TIP3    H137597   6.228   5.756   5.857 -1.8858 -4.6602  1.6481
 5394TIP3    H237598   6.200   5.702   5.719  1.0093 -0.0504 -0.8568
 5395TIP3   OH237599   2.766   1.090  10.887  0.5069 -0.4701 -0.1305
 5395TIP3    H137600   2.825   1.148  10.935 -0.2199 -0.3693  0.6636
 5395TIP3    H237601   2.704   1.059  10.953 -3.4430  3.4073 -1.7711
 5396TIP3   OH237602   4.852   2.237  12.462 -0.0714  0.6052 -0.5936
 5396TIP3    H137603   4.887   2.302  12.401  2.4249 -0.8092 -0.7525
 5396TIP3    H237604   4.837   2.160  12.407  1.0039 -0.2795  0.3226
 5397TIP3   OH237605   5.253   5.269   1.729 -0.2378  0.4585 -0.0987
 5397TIP3    H137606   5.216   5.257   1.641 -0.4895 -0.9848  0.1879
 5397TIP3    H237607   5.315   5.197   1.738  1.4255  1.8729  0.0820
 5398TIP3   OH237608   2.989   6.459   3.535  0.3918 -0.9475 -0.0898
 5398TIP3    H137609   3.055   6.391   3.522 -0.3198 -1.6552  0.0180
 5398TIP3    H237610   2.967   6.488   3.447  1.0565 -0.5082 -0.1141
 5399TIP3   OH237611   1.011   1.743   3.823 -0.9805 -0.3660 -0.4137
 5399TIP3    H137612   1.075   1.705   3.883 -0.2008 -0.4722 -1.3158
 5399TIP3    H237613   0.970   1.668   3.780 -2.3720 -0.3489  0.8045
 5400TIP3   OH237614   1.049   0.626  15.677  0.2906 -0.3632 -0.6880
 5400TIP3    H137615   0.999   0.573  15.615 -0.3841  0.4552 -0.8592
 5400TIP3    H237616   1.021   0.716  15.660  2.4132  0.1951 -1.2870
 5401TIP3   OH237617   0.907   5.221   0.232 -0.1402 -0.6285 -0.4192
 5401TIP3    H137618   0.832   5.275   0.258 -1.2297 -2.3641  0.1360
 5401TIP3    H237619   0.908   5.226   0.136 -1.6048 -1.3915 -0.5001
 5402TIP3   OH237620   4.646   5.824   0.929 -0.0511 -0.0184 -0.4831
 5402TIP3    H137621   4.695   5.757   0.978  1.4656  1.1211 -0.3995
 5402TIP3    H237622   4.636   5.896   0.991  0.5903  0.8509 -1.3888
 5403TIP3   OH237623   1.212   6.271  13.276  0.2940 -0.3444 -0.1574
 5403TIP3    H137624   1.269   6.348  13.273  0.0960 -0.1852  0.0915
 5403TIP3    H237625   1.175   6.264  13.188  0.0482  0.0486 -0.0902
 5404TIP3   OH237626   5.435   2.726  11.473 -0.0449 -1.1657  0.0894
 5404TIP3    H137627   5.357   2.680  11.504  0.5596 -1.9351  0.4822
 5404TIP3    H237628   5.471   2.767  11.551 -0.1332 -0.6957 -0.1176
 5405TIP3   OH237629   4.673   2.237   1.630 -0.4562 -0.2294  0.0272
 5405TIP3    H137630   4.612   2.253   1.559  0.6552 -0.2233 -0.9548
 5405TIP3    H237631   4.644   2.294   1.702 -0.6105  0.9994 -1.0001
 5406TIP3   OH237632   6.057   2.810   1.505  0.4972  0.0139 -0.1398
 5406TIP3    H137633   6.013   2.776   1.427  1.0029  0.9196 -0.8274
 5406TIP3    H237634   6.146   2.775   1.500  0.6541  0.4145 -0.2005
 5407TIP3   OH237635   2.485   1.550  16.262 -0.1385 -0.4251 -0.1368
 5407TIP3    H137636   2.450   1.498  16.335  0.7655 -3.6653 -1.8715
 5407TIP3    H237637   2.407   1.580  16.214 -0.6967  0.1850  1.1485
 5408TIP3   OH237638   3.169   4.565   5.475 -0.0521 -0.7500  0.4605
 5408TIP3    H137639   3.084   4.528   5.499 -0.3671 -1.2085 -1.2733
 5408TIP3    H237640   3.232   4.497   5.496 -0.1971 -0.7211  0.9936
 5409TIP3   OH237641   2.040   1.715  12.755 -0.4701  0.9027 -0.2046
 5409TIP3    H137642   1.978   1.643  12.743 -0.4742  1.0998 -1.4479
 5409TIP3    H237643   2.105   1.702  12.686 -0.3250  1.9373 -0.2646
 5410TIP3   OH237644   3.292   6.340  10.949 -0.2172 -0.1197  0.3196
 5410TIP3    H137645   3.203   6.313  10.969 -0.1281 -1.5067 -1.1385
 5410TIP3    H237646   3.282   6.419  10.896 -0.5740 -0.2943  0.1260
 5411TIP3   OH237647   5.901   0.084  17.221  0.7577  0.0110 -0.2117
 5411TIP3    H137648   5.815   0.120  17.244  1.2764 -0.1059  2.0712
 5411TIP3    H237649   5.928   0.134  17.144 -1.9456 -0.8903 -1.8213
 5412TIP3   OH237650   3.094   3.595  11.669 -0.6347  0.3183 -0.6217
 5412TIP3    H137651   3.129   3.517  11.713  2.1825  1.8708  0.0162
 5412TIP3    H237652   3.138   3.596  11.584 -1.2740  0.7659 -0.9502
 5413TIP3   OH237653   2.321   5.595   5.926  0.0619 -1.1516 -0.2370
 5413TIP3    H137654   2.229   5.620   5.916 -0.4119 -2.2975  1.0696
 5413TIP3    H237655   2.325   5.504   5.897  0.3769 -1.7168  1.4769
 5414TIP3   OH237656   2.069   5.767   6.020 -0.1449  0.2560 -0.7642
 5414TIP3    H137657   2.070   5.773   5.924 -1.3982  0.9829 -0.7371
 5414TIP3    H237658   1.976   5.771   6.043  0.0049 -1.9527  0.3670
 5415TIP3   OH237659   0.359   4.708   3.534  0.1603 -0.4916 -0.4406
 5415TIP3    H137660   0.281   4.658   3.559 -0.2086  0.2561 -0.0681
 5415TIP3    H237661   0.376   4.765   3.609  1.2054 -0.8057 -0.4274
 5416TIP3   OH237662   1.389   2.442  14.039 -0.1927 -0.3373 -0.4304
 5416TIP3    H137663   1.458   2.420  13.976 -1.7593 -4.9385 -0.6921
 5416TIP3    H237664   1.308   2.442  13.987 -0.7986  2.4024  0.3869
 5417TIP3   OH237665   0.246   1.983  14.563  0.4474  0.0123 -0.1965
 5417TIP3    H137666   0.189   1.908  14.579  1.3163 -0.9960 -1.6726
 5417TIP3    H237667   0.255   2.025  14.648 -2.1206 -0.0762  0.1473
 5418TIP3   OH237668   3.314   2.754  12.782  0.0371  0.2099  0.1152
 5418TIP3    H137669   3.340   2.704  12.705 -2.1283 -0.3806 -0.2723
 5418TIP3    H237670   3.232   2.796  12.757  0.0141  1.1147  1.6328
 5419TIP3   OH237671   4.825   2.050  12.850  0.2851 -0.1852 -0.8679
 5419TIP3    H137672   4.730   2.065  12.858  0.0033 -1.8818 -0.7800
 5419TIP3    H237673   4.842   1.976  12.909  1.9932  1.2758  0.5052
 5420TIP3   OH237674   2.943   0.508   4.573  0.0088  0.4939  0.5276
 5420TIP3    H137675   2.882   0.441   4.541 -0.8869  1.8645 -0.6608
 5420TIP3    H237676   2.994   0.533   4.496  0.5355  0.9861  1.0293
 5421TIP3   OH237677   0.623   5.359   2.497 -0.0936  0.1896 -0.2866
 5421TIP3    H137678   0.616   5.295   2.568 -1.4481  0.2679 -0.3443
 5421TIP3    H237679   0.592   5.441   2.536 -0.1045  0.4045 -0.7457
 5422TIP3   OH237680   5.247   6.129  16.831 -0.8633 -0.0461  0.1482
 5422TIP3    H137681   5.240   6.036  16.808  0.7409 -0.8305  2.5782
 5422TIP3    H237682   5.296   6.129  16.913  1.9522  3.1706 -1.4232
 5423TIP3   OH237683   1.986   5.235   4.008  0.2832 -0.3292 -0.2265
 5423TIP3    H137684   1.953   5.150   4.038 -0.7027  0.0281 -0.2620
 5423TIP3    H237685   2.068   5.215   3.963  0.4762 -1.1640  0.4789
 5424TIP3   OH237686   5.358   2.741   2.924  0.3689 -0.0706  0.3715
 5424TIP3    H137687   5.391   2.689   2.850  0.4790  0.4769  0.0374
 5424TIP3    H237688   5.318   2.817   2.884  0.3053  0.1608  0.8741
 5425TIP3   OH237689   5.189   4.743   2.961 -0.4943 -0.2798  0.0145
 5425TIP3    H137690   5.181   4.714   3.052  2.6798 -0.2658  0.3213
 5425TIP3    H237691   5.160   4.668   2.910 -1.1958 -0.6988  0.9981
 5426TIP3   OH237692   0.635   4.509  13.159 -0.4395  0.2152 -0.0267
 5426TIP3    H137693   0.631   4.569  13.084  1.4826  0.5008  0.0739
 5426TIP3    H237694   0.623   4.565  13.235 -1.4935  0.0565 -0.0779
 5427TIP3   OH237695   1.641   3.081  14.377  0.2756  0.6126 -0.5649
 5427TIP3    H137696   1.561   3.130  14.396 -0.2452  0.2797 -1.8233
 5427TIP3    H237697   1.703   3.147  14.346  0.3027  0.7906 -0.1324
 5428TIP3   OH237698   0.968   6.524  15.263  0.8281 -0.0421  0.0571
 5428TIP3    H137699   0.894   6.580  15.237  0.7538 -0.7856 -1.3335
 5428TIP3    H237700   1.021   6.580  15.320  1.3661  1.8419 -2.2412
 5429TIP3   OH237701   4.929   4.470  16.481 -0.3304  0.0383 -0.2302
 5429TIP3    H137702   5.012   4.506  16.450  0.2360 -0.7732  0.3264
 5429TIP3    H237703   4.947   4.441  16.570 -0.7927 -1.5382 -0.6359
 5430TIP3   OH237704   6.430   4.405   4.459 -0.0919  0.0722  0.1140
 5430TIP3    H137705   6.389   4.465   4.396  0.7484 -0.7919 -1.2729
 5430TIP3    H237706   6.473   4.339   4.405 -1.5818 -2.2045  1.6329
 5431TIP3   OH237707   5.119   0.932  14.706  0.4388 -0.0463  0.0934
 5431TIP3    H137708   5.052   0.993  14.737  1.2568  0.8539  0.1142
 5431TIP3    H237709   5.136   0.875  14.780  1.4999  1.3225  0.9373
 5432TIP3   OH237710   3.630   5.571  12.721 -0.1199 -0.0592  0.1408
 5432TIP3    H137711   3.695   5.505  12.746  1.2447  0.6945 -1.2982
 5432TIP3    H237712   3.550   5.521  12.706 -0.1214 -0.9101  2.7085
 5433TIP3   OH237713   1.805   4.687  11.535 -0.2679 -0.0523  0.0946
 5433TIP3    H137714   1.889   4.720  11.502 -0.2747 -1.2459 -1.1689
 5433TIP3    H237715   1.739   4.740  11.490 -0.3140 -2.4107 -2.7789
 5434TIP3   OH237716   4.118   6.702  13.409 -0.0178 -0.3710  0.0173
 5434TIP3    H137717   4.172   6.762  13.358  0.4831 -0.8610 -0.0342
 5434TIP3    H237718   4.064   6.656  13.345 -0.6813  0.3073  0.0931
 5435TIP3   OH237719   0.946   2.843   1.872  0.3869 -0.7620 -0.4967
 5435TIP3    H137720   1.014   2.816   1.810  0.0299 -0.3622 -1.0608
 5435TIP3    H237721   0.913   2.926   1.837  0.4831 -0.3181  0.4646
 5436TIP3   OH237722   4.379   2.200   2.843  0.6573 -0.1321 -0.2922
 5436TIP3    H137723   4.369   2.289   2.878  2.0983 -0.4983  1.1505
 5436TIP3    H237724   4.422   2.152   2.914  1.2873 -1.5863 -1.6345
 5437TIP3   OH237725   0.179   0.178  14.184  0.7461  0.3622  0.0870
 5437TIP3    H137726   0.087   0.201  14.185  1.1293  1.8904  1.0689
 5437TIP3    H237727   0.180   0.083  14.168 -0.9923  0.2376  0.6623
 5438TIP3   OH237728   0.226   6.755   2.597 -0.5652  0.1281 -0.4791
 5438TIP3    H137729   0.210   6.766   2.503 -0.0469  0.6519 -0.5114
 5438TIP3    H237730   0.270   6.836   2.624  0.4260 -0.5268 -0.0565
 5439TIP3   OH237731   4.151   6.327  12.056 -0.0277  0.7900  0.0321
 5439TIP3    H137732   4.206   6.272  12.112  0.5953  1.9807  0.6170
 5439TIP3    H237733   4.213   6.387  12.014 -0.7222  1.1993 -0.4062
 5440TIP3   OH237734   4.914   1.460  12.471  0.3414  0.5663  0.0654
 5440TIP3    H137735   4.840   1.399  12.464  1.7891 -1.1300 -0.7482
 5440TIP3    H237736   4.902   1.521  12.399  0.5066 -0.5711 -0.9401
 5441TIP3   OH237737   1.369   6.142   4.961 -0.7873 -0.1617  0.1959
 5441TIP3    H137738   1.371   6.134   5.056 -2.2137  0.3520  0.2708
 5441TIP3    H237739   1.456   6.176   4.938 -1.1863  1.7688  1.4960
 5442TIP3   OH237740   2.199   0.781  11.759 -0.2227  0.1546  0.4616
 5442TIP3    H137741   2.275   0.725  11.775  0.2375  0.7426  0.3469
 5442TIP3    H237742   2.130   0.720  11.732  0.2461 -0.3676  0.4331
 5443TIP3   OH237743   4.813   1.830  17.066  0.0040 -0.3033  0.0883
 5443TIP3    H137744   4.752   1.861  17.132  1.4638  0.0694  1.3117
 5443TIP3    H237745   4.803   1.735  17.065 -2.4446 -0.0654 -1.6193
 5444TIP3   OH237746   0.328   0.837  12.682  0.3288  0.2455  0.1470
 5444TIP3    H137747   0.258   0.902  12.675 -1.7620 -1.7472  1.3227
 5444TIP3    H237748   0.326   0.810  12.774  1.4284 -1.1218 -0.2071
 5445TIP3   OH237749   5.390   1.655  10.977 -0.4985 -0.3337  0.3787
 5445TIP3    H137750   5.308   1.658  11.027 -1.2840  1.0267 -0.9559
 5445TIP3    H237751   5.367   1.610  10.896 -0.8586  3.2344 -1.5901
 5446TIP3   OH237752   2.514   1.046  15.508  0.2709  0.1602 -0.4057
 5446TIP3    H137753   2.476   1.003  15.432  1.5162  0.3046 -1.1188
 5446TIP3    H237754   2.485   0.993  15.582 -0.1928 -0.5184 -1.0660
 5447TIP3   OH237755   2.258   0.552  16.208 -0.0183  0.4401  0.0232
 5447TIP3    H137756   2.271   0.644  16.229  2.9460  0.0159  0.2517
 5447TIP3    H237757   2.320   0.534  16.138 -2.7782 -0.6684 -2.2698
 5448TIP3   OH237758   4.050   2.779   1.253  0.2036  0.3435 -0.0627
 5448TIP3    H137759   4.135   2.822   1.240  0.3087 -0.0534 -0.7199
 5448TIP3    H237760   4.026   2.800   1.343 -0.3470  2.8821 -0.7513
 5449TIP3   OH237761   0.904   3.964   2.370  0.2576  0.2684  0.4565
 5449TIP3    H137762   0.874   3.893   2.427  2.6861 -2.8066 -1.9126
 5449TIP3    H237763   0.995   3.976   2.394 -0.4095  3.4246  1.5681
 5450TIP3   OH237764   3.106   6.564  14.952 -0.8211  0.1715  0.4532
 5450TIP3    H137765   3.081   6.648  14.991  0.5944  1.1566 -0.6854
 5450TIP3    H237766   3.077   6.570  14.861 -0.8000 -0.6000  0.3942
 5451TIP3   OH237767   0.058   0.984   1.000  0.1044  0.0559 -0.5484
 5451TIP3    H137768  -0.033   1.009   0.981  0.4175  0.9186 -0.9717
 5451TIP3    H237769   0.055   0.946   1.087 -0.6543  0.1727 -0.5174
 5452TIP3   OH237770   1.679   3.536   3.963  0.3087 -0.3582 -0.0736
 5452TIP3    H137771   1.655   3.541   3.870 -1.0656 -1.8894  0.1835
 5452TIP3    H237772   1.626   3.604   4.005  0.6746  0.1049 -0.3580
 5453TIP3   OH237773   2.536   4.751   6.094  0.5898 -0.2534 -0.5602
 5453TIP3    H137774   2.464   4.688   6.092  1.1134 -0.8459 -3.3024
 5453TIP3    H237775   2.562   4.756   6.186 -2.6629 -0.3287  0.4154
 5454TIP3   OH237776   3.007   1.436  13.116 -0.0700  0.2860  0.3474
 5454TIP3    H137777   2.959   1.515  13.142 -0.6196  0.5136 -1.3332
 5454TIP3    H237778   3.049   1.460  13.034  0.3522 -0.9521  0.1934
 5455TIP3   OH237779   4.713   0.871   3.133  0.6814  0.0937 -0.3924
 5455TIP3    H137780   4.720   0.866   3.038  1.8399  1.3819 -0.3828
 5455TIP3    H237781   4.789   0.923   3.160 -1.2664  2.3312  0.9631
 5456TIP3   OH237782   4.316   2.257  12.123  0.1918 -0.0924 -0.2297
 5456TIP3    H137783   4.266   2.238  12.203 -0.4532  0.3174 -0.5292
 5456TIP3    H237784   4.406   2.232  12.144  0.0123 -0.0450  0.6077
 5457TIP3   OH237785   0.003   1.344  12.102 -0.3370 -0.7056  0.2185
 5457TIP3    H137786  -0.047   1.326  12.022  0.1520  0.0615 -0.2763
 5457TIP3    H237787  -0.060   1.384  12.161 -0.9399 -2.1762  0.5906
 5458TIP3   OH237788   0.768   4.500   6.390  0.5582 -0.5782 -0.0364
 5458TIP3    H137789   0.744   4.421   6.340  1.5660  0.7740 -2.7620
 5458TIP3    H237790   0.684   4.540   6.411  0.1003 -1.2020 -0.6210
 5459TIP3   OH237791   3.598   2.908  15.836  0.5944 -0.0483  0.1289
 5459TIP3    H137792   3.635   2.886  15.751  0.5446 -1.8399  0.5347
 5459TIP3    H237793   3.656   2.865  15.899  0.0157  0.3487  0.9450
 5460TIP3   OH237794   4.963   5.133   5.558  0.1138 -0.3466 -0.0683
 5460TIP3    H137795   4.887   5.138   5.616  0.0457 -1.4709 -0.0452
 5460TIP3    H237796   4.933   5.171   5.475 -0.9152 -2.0740 -0.5085
 5461TIP3   OH237797   2.815   0.394  15.608 -0.2585 -0.4892 -0.1876
 5461TIP3    H137798   2.813   0.490  15.606 -1.1527 -0.4663  0.9929
 5461TIP3    H237799   2.904   0.373  15.638 -0.6301  0.0397  1.3707
 5462TIP3   OH237800   1.127   5.597  12.930  0.2413  0.0942 -0.1405
 5462TIP3    H137801   1.138   5.560  13.018 -0.3730 -2.0983 -0.9603
 5462TIP3    H237802   1.057   5.661  12.939  1.3364  1.1058  1.3196
 5463TIP3   OH237803   6.774   6.757  16.968  0.0059 -0.2379 -0.3622
 5463TIP3    H137804   6.821   6.815  16.908 -0.0585 -1.6180 -1.7632
 5463TIP3    H237805   6.829   6.679  16.974 -1.7884 -1.6223 -1.5439
 5464TIP3   OH237806   1.634   5.119   1.528 -0.0583  0.1467  0.3945
 5464TIP3    H137807   1.685   5.182   1.579 -1.1549 -0.0133  1.7184
 5464TIP3    H237808   1.546   5.156   1.526 -0.5375 -0.9823  0.5638
 5465TIP3   OH237809   6.051   2.831  16.325 -0.1709 -0.0333  0.4615
 5465TIP3    H137810   6.087   2.847  16.238  0.1361 -0.9389  0.4193
 5465TIP3    H237811   5.983   2.898  16.335 -1.6727 -1.2370 -1.3316
 5466TIP3   OH237812   4.494   0.624   5.303  0.4032 -0.0159  0.2095
 5466TIP3    H137813   4.534   0.676   5.234 -0.0283  1.3542  0.9824
 5466TIP3    H237814   4.481   0.685   5.375  0.4069 -1.3171  1.3398
 5467TIP3   OH237815   0.749   6.699  15.520  0.0284  0.4717  0.7923
 5467TIP3    H137816   0.746   6.791  15.492 -1.2669  1.2041  3.1708
 5467TIP3    H237817   0.706   6.651  15.449 -0.1638  1.8159 -0.0244
 5468TIP3   OH237818   0.868   2.404   6.449  0.6070 -0.1828  0.0503
 5468TIP3    H137819   0.853   2.407   6.354 -0.3184 -1.0220  0.1643
 5468TIP3    H237820   0.909   2.319   6.464  0.0459 -0.3827  0.4915
 5469TIP3   OH237821   2.817   2.652  16.802  0.4366  0.0584  0.0411
 5469TIP3    H137822   2.809   2.570  16.851 -1.5398  0.4834  0.4561
 5469TIP3    H237823   2.864   2.629  16.723 -0.3983 -1.5445  0.0080
 5470TIP3   OH237824   6.775   4.436   0.782 -0.3083 -0.0430 -0.8650
 5470TIP3    H137825   6.794   4.425   0.875 -0.5216  0.7313 -0.7266
 5470TIP3    H237826   6.831   4.372   0.739 -0.4433 -0.6308 -0.1840
 5471TIP3   OH237827   1.275   4.516   3.493 -0.3215  0.1717 -0.3790
 5471TIP3    H137828   1.246   4.474   3.412 -1.1945 -0.3163  0.1665
 5471TIP3    H237829   1.203   4.574   3.517  0.4981  1.3048 -0.6467
 5472TIP3   OH237830   6.159   0.403  16.520  0.0492 -0.1104  0.3729
 5472TIP3    H137831   6.077   0.411  16.471 -0.0536  0.9884  0.7270
 5472TIP3    H237832   6.131   0.386  16.611  0.1505  3.0812  1.0451
 5473TIP3   OH237833   3.051   0.946   4.811 -0.3338 -0.8694  0.2224
 5473TIP3    H137834   3.113   0.997   4.864 -0.2349 -0.3410 -0.3944
 5473TIP3    H237835   3.102   0.915   4.737 -0.9533  0.1237 -0.6357
 5474TIP3   OH237836   1.448   6.477   0.712  0.0016  0.1249  0.7209
 5474TIP3    H137837   1.368   6.492   0.663 -0.5112 -1.6181  0.9732
 5474TIP3    H237838   1.460   6.556   0.764 -0.9067  0.8831 -0.2141
 5475TIP3   OH237839   1.373   0.356  16.964 -0.0415  0.0702 -0.2258
 5475TIP3    H137840   1.442   0.397  17.016 -1.4092  0.5451  1.2453
 5475TIP3    H237841   1.354   0.274  17.010 -1.7020  0.7916  0.4237
 5476TIP3   OH237842   2.050   3.723   1.483  0.1792  0.5419 -0.1716
 5476TIP3    H137843   2.082   3.652   1.429 -2.4969  0.8066 -2.2645
 5476TIP3    H237844   2.128   3.773   1.507  1.8196 -1.7386 -0.6353
 5477TIP3   OH237845   4.715   0.865  15.248  0.1192 -0.1542  0.8876
 5477TIP3    H137846   4.666   0.791  15.285 -0.1046 -0.4514  0.0098
 5477TIP3    H237847   4.801   0.858  15.289  0.3813 -1.4348  0.1693
 5478TIP3   OH237848   0.007   2.406   4.548  0.2491  0.1707 -0.4463
 5478TIP3    H137849  -0.064   2.343   4.537 -0.8709  1.1965  0.6880
 5478TIP3    H237850   0.046   2.415   4.461 -2.1285  0.8866 -1.4647
 5479TIP3   OH237851   2.182   0.581   4.888 -0.3398  0.0693  0.3226
 5479TIP3    H137852   2.118   0.531   4.939  2.4423 -2.4392  1.5066
 5479TIP3    H237853   2.163   0.673   4.909 -1.2415 -0.7884  3.5001
 5480TIP3   OH237854   1.589   4.690  16.107  0.4657  0.6213 -0.5620
 5480TIP3    H137855   1.629   4.634  16.040  0.1839  1.3330 -1.3367
 5480TIP3    H237856   1.506   4.648  16.127  1.0151 -0.1643  0.1124
 5481TIP3   OH237857   3.698   3.377   5.736  0.2220 -0.1001 -0.4288
 5481TIP3    H137858   3.704   3.377   5.641  0.0748 -1.4134 -0.4455
 5481TIP3    H237859   3.719   3.288   5.762 -0.2743  0.1067  0.7419
 5482TIP3   OH237860   4.277   4.502  11.392  0.2627  0.1105 -0.2276
 5482TIP3    H137861   4.249   4.576  11.337  0.6597  0.0958 -0.4507
 5482TIP3    H237862   4.339   4.541  11.454 -0.0001  0.0807  0.0566
 5483TIP3   OH237863   3.329   5.480   4.606 -0.5101 -0.4431  0.3626
 5483TIP3    H137864   3.357   5.483   4.514 -0.4004 -0.2170  0.4021
 5483TIP3    H237865   3.366   5.399   4.640  0.6938  0.1804  0.5984
 5484TIP3   OH237866   3.084   4.349   6.111 -0.0084 -0.2794 -0.1374
 5484TIP3    H137867   3.178   4.349   6.124 -0.0694 -2.1927  0.5375
 5484TIP3    H237868   3.047   4.347   6.200 -0.6787  0.0699 -0.4011
 5485TIP3   OH237869   3.169   6.284  13.964  0.0804  0.0624  0.3427
 5485TIP3    H137870   3.180   6.192  13.937 -1.0179  0.2093 -0.6195
 5485TIP3    H237871   3.147   6.330  13.884  0.4853  1.1580  0.8536
 5486TIP3   OH237872   4.602   2.459   4.845 -0.3842 -0.1604 -0.9566
 5486TIP3    H137873   4.597   2.368   4.875 -0.0710  0.4295  0.9421
 5486TIP3    H237874   4.647   2.454   4.760  0.2297 -1.7106 -0.5533
 5487TIP3   OH237875   4.948   1.781   2.553  0.3130 -0.2882  0.2038
 5487TIP3    H137876   4.983   1.743   2.472 -1.7530 -2.3274  0.1963
 5487TIP3    H237877   4.939   1.707   2.612 -1.9027  0.4896  0.9205
 5488TIP3   OH237878   4.413   3.889  12.612 -0.1754 -0.2939  0.2230
 5488TIP3    H137879   4.349   3.892  12.683 -0.2420 -1.5613  0.2410
 5488TIP3    H237880   4.361   3.894  12.532 -0.3013 -1.1892  0.2403
 5489TIP3   OH237881   6.115   1.200   1.248  0.1576 -0.3677  0.6477
 5489TIP3    H137882   6.155   1.286   1.237 -0.9268  0.0560 -0.0667
 5489TIP3    H237883   6.177   1.152   1.303  1.3079  0.4952  0.1337
 5490TIP3   OH237884   6.066   2.562  16.882  0.0205  0.4735 -1.1457
 5490TIP3    H137885   6.120   2.563  16.804 -0.4813 -1.5126 -1.5432
 5490TIP3    H237886   6.079   2.475  16.920 -1.3412  0.6737 -0.1654
 5491TIP3   OH237887   0.370   5.277   1.226 -0.1651  0.2643  0.6835
 5491TIP3    H137888   0.404   5.188   1.223  0.2536  0.4689 -2.2984
 5491TIP3    H237889   0.275   5.267   1.228 -0.1418 -0.2830 -0.3476
 5492TIP3   OH237890   3.648   1.593   3.559  0.6761 -0.0955 -0.2618
 5492TIP3    H137891   3.730   1.555   3.526  0.8192  0.8596 -1.0117
 5492TIP3    H237892   3.606   1.632   3.482  0.3965  1.0350  0.4501
 5493TIP3   OH237893   5.196   5.426   1.201 -0.2799 -0.2673 -0.4567
 5493TIP3    H137894   5.258   5.469   1.142 -0.4655 -0.3058 -0.6814
 5493TIP3    H237895   5.110   5.454   1.170 -0.3236  1.1812  0.9297
 5494TIP3   OH237896   4.302   4.100  16.891 -0.7935 -0.0518 -0.3564
 5494TIP3    H137897   4.303   4.178  16.947  1.6228  0.0315 -0.4816
 5494TIP3    H237898   4.350   4.034  16.940  2.3457  0.3548 -2.7485
 5495TIP3   OH237899   0.735   0.742  17.044 -0.5992  0.1917  0.1621
 5495TIP3    H137900   0.688   0.746  16.961  0.6978  0.3888 -0.5853
 5495TIP3    H237901   0.785   0.824  17.047 -1.1638  0.5002  1.4617
 5496TIP3   OH237902   5.901   2.907   4.791  0.2918  0.5425 -0.0423
 5496TIP3    H137903   5.991   2.939   4.793  0.3879  0.5047 -2.2236
 5496TIP3    H237904   5.849   2.980   4.822  1.2128 -0.1346  3.2864
 5497TIP3   OH237905   2.290   1.601   2.545 -0.1203  0.1886 -0.0622
 5497TIP3    H137906   2.290   1.692   2.515  0.8517 -0.0046 -0.6474
 5497TIP3    H237907   2.335   1.604   2.629 -0.1217  0.2495 -0.0633
 5498TIP3   OH237908   3.067   4.598  15.234  0.1942 -0.3256  0.1340
 5498TIP3    H137909   3.086   4.616  15.142  0.0050  1.1688  0.3649
 5498TIP3    H237910   3.143   4.549  15.266  0.5775 -0.2424 -0.6449
 5499TIP3   OH237911   1.692   4.265   4.348  0.2511  0.2141  0.3015
 5499TIP3    H137912   1.621   4.221   4.300 -0.3703  2.0074 -0.4784
 5499TIP3    H237913   1.668   4.254   4.440 -0.0667 -0.7812  0.1135
 5500TIP3   OH237914   1.381   1.332   3.907  0.1834  0.3635 -0.6681
 5500TIP3    H137915   1.403   1.325   4.000  2.9091  0.9741 -1.2120
 5500TIP3    H237916   1.442   1.272   3.863 -1.7617 -0.7028 -1.9983
 5501TIP3   OH237917   6.760   4.521   3.205  0.3714  0.0093 -0.1130
 5501TIP3    H137918   6.794   4.516   3.294 -0.3929  1.0719  0.2474
 5501TIP3    H237919   6.743   4.614   3.191  0.1306 -0.1916 -1.2378
 5502TIP3   OH237920   0.373   3.288   0.447  0.0817  0.3077 -0.0249
 5502TIP3    H137921   0.446   3.261   0.503 -0.9655 -0.1419  1.1448
 5502TIP3    H237922   0.316   3.211   0.444 -0.3064  0.6268 -1.0082
 5503TIP3   OH237923   0.418   0.886   6.075 -0.4049 -0.6017 -0.1699
 5503TIP3    H137924   0.506   0.854   6.093 -0.6966 -1.0605  0.4683
 5503TIP3    H237925   0.427   0.981   6.073 -0.0493 -0.6067  0.7444
 5504TIP3   OH237926   1.035   3.489  14.707 -0.0444  0.0346  0.4173
 5504TIP3    H137927   1.023   3.465  14.615 -0.9469 -0.3607  0.6353
 5504TIP3    H237928   1.076   3.575  14.704 -1.7270  0.8290 -0.3599
 5505TIP3   OH237929   6.331   2.590  16.321 -0.1832  0.4457 -0.1215
 5505TIP3    H137930   6.317   2.674  16.365  0.5787  0.0407  0.9086
 5505TIP3    H237931   6.331   2.611  16.227 -3.1947  1.1078 -0.0058
 5506TIP3   OH237932   4.435   5.233   3.868  0.0981  0.4914 -0.1505
 5506TIP3    H137933   4.465   5.177   3.940  0.1084  0.4101 -0.2188
 5506TIP3    H237934   4.342   5.214   3.859 -0.2700  1.7084  0.9461
 5507TIP3   OH237935   5.574   6.303   5.188  0.1090  0.3010  0.2597
 5507TIP3    H137936   5.623   6.236   5.140  1.1255  1.1087  0.1675
 5507TIP3    H237937   5.623   6.313   5.270 -0.5823  0.2541  0.6820
 5508TIP3   OH237938   2.900   5.071   2.256 -0.1193  0.3715  0.4763
 5508TIP3    H137939   2.964   5.119   2.308  0.4270 -1.4172  1.4803
 5508TIP3    H237940   2.948   5.044   2.178  1.0425 -2.9700  2.2937
 5509TIP3   OH237941   5.830   3.225  11.370  0.8343 -0.3675 -0.3433
 5509TIP3    H137942   5.779   3.191  11.296 -1.3632  0.6244  0.6648
 5509TIP3    H237943   5.920   3.201  11.350  0.2063 -0.6337 -3.0610
 5510TIP3   OH237944   4.260   2.096  12.895  0.4164 -0.3147  0.5314
 5510TIP3    H137945   4.305   2.157  12.952 -0.7950 -1.7068  3.0499
 5510TIP3    H237946   4.179   2.140  12.871 -0.4494 -0.8729  2.3301
 5511TIP3   OH237947   6.111   3.120   5.232  0.2423 -0.2538 -0.2440
 5511TIP3    H137948   6.193   3.169   5.217 -0.5635  1.1673 -0.0911
 5511TIP3    H237949   6.103   3.064   5.155  1.3399 -0.3715 -0.2862
 5512TIP3   OH237950   2.291   1.143  12.462  0.4130 -0.1314  0.4379
 5512TIP3    H137951   2.372   1.188  12.487  0.3123 -0.7406  1.8981
 5512TIP3    H237952   2.286   1.069  12.522 -0.4002 -1.0224 -0.7184
 5513TIP3   OH237953   5.275   6.060  11.375 -0.0340  0.0959 -0.1644
 5513TIP3    H137954   5.247   5.969  11.379  0.3874  0.0045  0.7525
 5513TIP3    H237955   5.370   6.057  11.364  0.3690  0.3906  2.6721
 5514TIP3   OH237956   4.654   4.946   3.123  0.2308 -0.0049  0.5432
 5514TIP3    H137957   4.679   4.953   3.030 -1.3000 -1.2667  0.0134
 5514TIP3    H237958   4.580   5.006   3.132 -0.9360 -1.3924  0.4367
 5515TIP3   OH237959   2.594   2.498   2.318  0.7209  0.1794 -0.0785
 5515TIP3    H137960   2.570   2.405   2.310  0.3802  0.3300 -0.8166
 5515TIP3    H237961   2.526   2.545   2.271  1.1006  0.7845 -0.0300
 5516TIP3   OH237962   2.591   2.234   3.672 -0.7355 -0.4218  0.1467
 5516TIP3    H137963   2.533   2.298   3.713  0.8934  1.1914 -0.0081
 5516TIP3    H237964   2.537   2.192   3.605 -1.2031  2.4661 -1.3688
 5517TIP3   OH237965   5.318   2.936  15.275 -0.2971 -0.2273 -0.6982
 5517TIP3    H137966   5.276   2.898  15.353 -1.0107  0.2056 -0.8701
 5517TIP3    H237967   5.270   2.898  15.201  2.0594 -2.6961 -1.0388
 5518TIP3   OH237968   0.946   1.678  13.953 -0.1334  0.3032 -0.2818
 5518TIP3    H137969   0.934   1.723  14.037 -0.7650 -0.1419 -0.1291
 5518TIP3    H237970   1.033   1.637  13.961  1.0763  2.6451 -0.9770
 5519TIP3   OH237971   1.791   4.568   6.877 -0.1328 -0.6386  0.2873
 5519TIP3    H137972   1.756   4.640   6.929 -0.3885 -1.9843  1.9765
 5519TIP3    H237973   1.877   4.600   6.847 -0.5235  0.6131  0.4887
 5520TIP3   OH237974   3.298   4.774  15.735 -0.2631 -0.3251  0.2070
 5520TIP3    H137975   3.299   4.757  15.829 -1.8848  1.1439  0.5197
 5520TIP3    H237976   3.295   4.870  15.728  0.8015 -0.3804 -1.3649
 5521TIP3   OH237977   0.162   5.934   6.300  0.1893 -0.1228  0.6084
 5521TIP3    H137978   0.164   5.959   6.392  0.3000 -0.1496  0.6133
 5521TIP3    H237979   0.127   6.011   6.255 -0.8487 -0.4808  0.7925
 5522TIP3   OH237980   3.818   3.820   3.958  0.6248  0.2331  0.0963
 5522TIP3    H137981   3.871   3.839   3.881 -0.5026 -1.4812 -1.1227
 5522TIP3    H237982   3.777   3.735   3.939 -0.6557  0.3927  2.0355
 5523TIP3   OH237983   1.603   2.207  16.738  0.0880 -0.0608 -0.2036
 5523TIP3    H137984   1.633   2.289  16.777 -0.4930  1.2927 -2.5275
 5523TIP3    H237985   1.684   2.162  16.713  0.4004 -0.1008  0.8504
 5524TIP3   OH237986   1.416   2.513   2.545  0.6358 -0.0583 -0.3783
 5524TIP3    H137987   1.373   2.597   2.561  0.6003 -0.2898  0.7557
 5524TIP3    H237988   1.376   2.481   2.464  0.8088  1.1124 -0.9496
 5525TIP3   OH237989   3.014   6.622  12.869  0.2738  0.6002  0.1439
 5525TIP3    H137990   3.000   6.715  12.885 -0.7891  0.5110 -0.2387
 5525TIP3    H237991   2.981   6.579  12.948 -1.4934  0.4077 -0.6589
 5526TIP3   OH237992   0.036   1.853   5.278  0.1295 -0.5085  0.0636
 5526TIP3    H137993   0.004   1.816   5.196  2.2500 -2.8232  0.2371
 5526TIP3    H237994   0.082   1.933   5.252 -2.6106  0.9395 -0.5395
 5527TIP3   OH237995   2.788   2.299  14.051  0.4152  0.0825 -0.1070
 5527TIP3    H137996   2.725   2.372  14.056 -0.2439 -0.4981  0.1223
 5527TIP3    H237997   2.858   2.332  13.995 -0.3098  0.5777 -0.7343
 5528TIP3   OH237998   5.091   0.980  15.128  0.2608  0.5001 -0.3468
 5528TIP3    H137999   5.030   0.972  15.201  0.5592 -0.7958 -0.2311
 5528TIP3    H238000   5.120   1.071  15.132 -0.2505  0.6324  0.7229
 5529TIP3   OH238001   5.349   2.314  10.824  0.3061  0.3893  0.4005
 5529TIP3    H138002   5.258   2.343  10.820  0.7581  1.6833 -1.0250
 5529TIP3    H238003   5.362   2.262  10.745  0.8711  0.4457  0.4499
 5530TIP3   OH238004   3.849   2.143   4.256 -0.1044  0.6681 -0.6634
 5530TIP3    H138005   3.867   2.212   4.320  1.3215 -1.2482  1.0955
 5530TIP3    H238006   3.760   2.113   4.277 -0.1407  0.9372 -0.4262
 5531TIP3   OH238007   2.620   4.903   1.235  0.1660  0.3282 -0.7152
 5531TIP3    H138008   2.616   4.988   1.278  0.6190 -0.0822  0.1401
 5531TIP3    H238009   2.560   4.911   1.161  1.4112  1.9484 -1.6062
 5532TIP3   OH238010   3.899   2.600  12.783  0.4606 -0.1514  0.1128
 5532TIP3    H138011   3.867   2.583  12.872  1.9027 -1.7492  0.3668
 5532TIP3    H238012   3.844   2.545  12.727 -0.0136  0.3423  0.1015
 5533TIP3   OH238013   4.160   2.248  12.356 -0.0025 -0.1531  0.4030
 5533TIP3    H138014   4.181   2.194  12.432  0.8864  1.3021  1.2287
 5533TIP3    H238015   4.064   2.250  12.354 -0.0742 -2.5711 -0.2762
 5534TIP3   OH238016   1.123   5.054   4.175  0.7599 -0.2069 -0.0640
 5534TIP3    H138017   1.134   4.999   4.253  0.4861  0.2595  0.3065
 5534TIP3    H238018   1.194   5.028   4.116  0.8984 -0.6416  0.2955
 5535TIP3   OH238019   5.090   5.723   6.392  0.2634  0.3775  0.2084
 5535TIP3    H138020   5.175   5.693   6.422  0.7367 -0.8126 -2.1842
 5535TIP3    H238021   5.070   5.798   6.447  1.7423 -0.7825  2.4050
 5536TIP3   OH238022   4.419   4.490   4.116  1.0332 -0.4278 -0.6196
 5536TIP3    H138023   4.423   4.572   4.164  2.4856 -1.4873  1.1485
 5536TIP3    H238024   4.326   4.479   4.096  0.8820  1.8493 -1.2842
 5537TIP3   OH238025   5.492   5.224   3.940 -0.1987  0.0938 -0.6786
 5537TIP3    H138026   5.557   5.169   3.985  0.9976  1.5473 -0.6051
 5537TIP3    H238027   5.542   5.268   3.872 -0.6812  2.7392  0.6386
 5538TIP3   OH238028   0.368   4.874  14.278  0.4630  0.1724 -0.0276
 5538TIP3    H138029   0.459   4.847  14.290  0.4116 -0.1166 -0.2546
 5538TIP3    H238030   0.368   4.924  14.197  0.0449 -1.7671 -1.2781
 5539TIP3   OH238031   1.148   0.407  13.117  0.9180 -0.1211 -0.3325
 5539TIP3    H138032   1.115   0.456  13.192 -0.8800  0.1881 -1.2826
 5539TIP3    H238033   1.238   0.436  13.107  0.4784  1.5474  0.3137
 5540TIP3   OH238034   1.190   0.168   6.133  0.0159 -0.1264  0.5098
 5540TIP3    H138035   1.213   0.260   6.144  0.5413 -0.0243 -1.2245
 5540TIP3    H238036   1.187   0.132   6.222 -0.1669  1.5500  1.1844
 5541TIP3   OH238037   6.619   1.615   1.393  0.3355  0.0325 -0.2542
 5541TIP3    H138038   6.656   1.697   1.425 -2.0403  1.0822 -0.0876
 5541TIP3    H238039   6.608   1.561   1.471 -0.0722  0.3813 -0.0669
 5542TIP3   OH238040   2.585   6.023  16.817  0.0940  0.0603  0.3293
 5542TIP3    H138041   2.680   6.022  16.825  0.1181 -2.1342  0.1374
 5542TIP3    H238042   2.553   6.018  16.908  0.1805 -0.5057  0.3299
 5543TIP3   OH238043   4.987   4.045   6.126  0.6907  0.1279 -0.2223
 5543TIP3    H138044   4.995   3.949   6.123 -1.0512 -0.0264 -0.5010
 5543TIP3    H238045   4.988   4.066   6.219  0.5254 -0.2229 -0.1391
 5544TIP3   OH238046   4.603   1.284  17.153  0.4690 -0.7828 -0.5031
 5544TIP3    H138047   4.645   1.307  17.236  0.2851 -0.9186 -0.3705
 5544TIP3    H238048   4.584   1.367  17.112 -0.8790 -0.6878  0.3019
 5545TIP3   OH238049   3.316   0.201  14.823 -0.8322 -0.2177  0.5045
 5545TIP3    H138050   3.401   0.186  14.864 -1.0066  1.6025  1.5502
 5545TIP3    H238051   3.323   0.160  14.737  1.0205 -0.2615  0.6738
 5546TIP3   OH238052   2.316   2.240  13.544  0.5083  0.7641  0.0868
 5546TIP3    H138053   2.230   2.223  13.507  0.8879 -0.8270 -0.0918
 5546TIP3    H238054   2.309   2.211  13.635  0.0130  3.3176  0.9088
 5547TIP3   OH238055   4.876   3.031   5.090  0.1438 -0.0354 -0.7225
 5547TIP3    H138056   4.825   3.111   5.076  1.2335  0.9971  1.0237
 5547TIP3    H238057   4.810   2.961   5.092 -1.3821  1.3908  2.4754
 5548TIP3   OH238058   4.918   1.564   6.356 -0.1228 -0.7233  0.1816
 5548TIP3    H138059   4.950   1.654   6.361 -0.4744 -0.5908  0.0353
 5548TIP3    H238060   4.825   1.572   6.338 -0.1784 -1.1160  0.2879
 5549TIP3   OH238061   5.283   2.148   3.116 -0.5169  0.0463 -0.2143
 5549TIP3    H138062   5.374   2.169   3.138 -1.1572  2.4305  0.2976
 5549TIP3    H238063   5.286   2.117   3.025  0.7894  0.1729 -0.2161
 5550TIP3   OH238064   4.933   2.819   2.185 -0.4445 -0.4056 -0.1638
 5550TIP3    H138065   4.860   2.861   2.140 -0.2085  1.8010  1.4073
 5550TIP3    H238066   4.998   2.889   2.194 -0.4286 -0.8079  3.4068
 5551TIP3   OH238067   0.631   2.003  14.697 -0.6315 -0.2516 -0.2353
 5551TIP3    H138068   0.567   2.031  14.632 -0.4803 -0.8446 -0.6381
 5551TIP3    H238069   0.597   1.921  14.732 -1.0040  0.3518  0.8554
 5552TIP3   OH238070   2.848   3.775   5.864  0.0949 -0.0366 -0.7426
 5552TIP3    H138071   2.778   3.818   5.815  0.3835  0.0060 -1.1221
 5552TIP3    H238072   2.807   3.697   5.902  0.0425 -0.4594 -1.6473
 5553TIP3   OH238073   1.215   5.752   1.213 -0.2387 -0.4409 -0.4713
 5553TIP3    H138074   1.133   5.800   1.199  0.3915  0.8547  0.1581
 5553TIP3    H238075   1.202   5.705   1.294 -0.0989  0.3650  0.0277
 5554TIP3   OH238076   4.479   1.164  14.971  0.0067  0.2677 -0.5774
 5554TIP3    H138077   4.483   1.258  14.987 -0.1191  0.0507  0.8378
 5554TIP3    H238078   4.546   1.147  14.904  1.7071  1.0291  0.8813
 5555TIP3   OH238079   5.038   6.204  13.818  0.0023  0.4161 -0.5278
 5555TIP3    H138080   4.984   6.283  13.819 -0.5239  0.0665 -1.5686
 5555TIP3    H238081   4.976   6.132  13.809  0.5368 -0.0772 -0.2897
 5556TIP3   OH238082   6.648   0.721   3.015  0.1573 -0.1143  0.5865
 5556TIP3    H138083   6.725   0.673   3.044  0.2835 -0.3376 -0.1135
 5556TIP3    H238084   6.591   0.655   2.977 -0.9479 -0.1434  2.2475
 5557TIP3   OH238085   3.363   4.227   1.246 -0.5613 -0.4213 -0.6003
 5557TIP3    H138086   3.382   4.134   1.232 -1.6047 -0.5255 -1.3857
 5557TIP3    H238087   3.274   4.238   1.213 -1.0524  0.5207  1.0159
 5558TIP3   OH238088   5.877   3.878  12.666 -0.1632 -0.2318 -0.5541
 5558TIP3    H138089   5.874   3.934  12.589 -3.5632 -0.9499 -1.0128
 5558TIP3    H238090   5.826   3.925  12.732  1.2647 -0.4262  0.7163
 5559TIP3   OH238091   5.949   3.362  15.963  0.0461 -0.5938  0.0718
 5559TIP3    H138092   5.887   3.402  16.023  0.3400  0.1449 -0.1058
 5559TIP3    H238093   5.896   3.308  15.905 -0.5328  0.6958 -0.6159
 5560TIP3   OH238094   6.037   1.518  14.824 -0.0743 -0.1269  0.1921
 5560TIP3    H138095   6.109   1.578  14.805 -0.5052  0.3493  0.0466
 5560TIP3    H238096   6.067   1.466  14.899  0.2084  0.4322  0.4642
 5561TIP3   OH238097   0.364   4.240  12.222 -0.2960 -0.3995  0.5561
 5561TIP3    H138098   0.412   4.257  12.141  0.5073  2.3722  1.5494
 5561TIP3    H238099   0.277   4.215  12.193  0.0502  0.3129 -1.1889
 5562TIP3   OH238100   3.012   2.971   0.334  0.1540  0.1246  0.2658
 5562TIP3    H138101   3.062   2.925   0.401  0.3085 -1.0577 -0.6392
 5562TIP3    H238102   3.068   3.044   0.308  0.3200  0.2743  1.0452
 5563TIP3   OH238103   6.274   4.706  16.775 -0.7638  0.2488  0.2808
 5563TIP3    H138104   6.340   4.731  16.840 -0.0428  0.1069 -0.3898
 5563TIP3    H238105   6.242   4.621  16.804 -0.3046  0.0981  0.3498
 5564TIP3   OH238106   0.171   6.254  13.797  0.9203  0.4368  0.7739
 5564TIP3    H138107   0.148   6.346  13.805  0.4025  0.2718  1.2245
 5564TIP3    H238108   0.123   6.211  13.868  0.0703 -0.3744 -0.2741
 5565TIP3   OH238109   0.952   1.748  14.240 -0.0052  0.2933 -0.9554
 5565TIP3    H138110   0.899   1.693  14.298 -0.1994  1.9593  0.5341
 5565TIP3    H238111   1.042   1.718  14.254 -0.2510 -0.5476 -1.1895
 5566TIP3   OH238112   6.628   2.785   1.994  0.1065 -0.2617  0.1063
 5566TIP3    H138113   6.709   2.833   2.010  0.9725 -0.8542 -2.2554
 5566TIP3    H238114   6.569   2.850   1.958  0.3337 -0.3396 -0.4140
 5567TIP3   OH238115   1.991   2.995   1.513  0.2869 -0.3072  0.3918
 5567TIP3    H138116   2.043   2.917   1.493  2.5230  0.6037  2.4080
 5567TIP3    H238117   2.001   3.007   1.608 -1.0225  1.7287  0.3028
 5568TIP3   OH238118   1.093   3.015  12.827  0.5906 -0.0475 -0.3712
 5568TIP3    H138119   1.148   3.055  12.760  0.5489  0.8036  0.0873
 5568TIP3    H238120   1.005   3.020  12.792  0.4075  1.5335  0.2599
 5569TIP3   OH238121   4.969   3.783   5.834  0.4099 -0.2387 -0.3126
 5569TIP3    H138122   4.884   3.784   5.788 -1.3768  0.6265  2.8603
 5569TIP3    H238123   4.970   3.699   5.880  0.4376  0.5686  1.1636
 5570TIP3   OH238124   1.889   6.710  12.632 -0.4923 -1.0323 -1.2000
 5570TIP3    H138125   1.917   6.671  12.715  0.9820 -1.5845 -1.9350
 5570TIP3    H238126   1.794   6.710  12.637 -0.4417 -1.7637  0.1726
 5571TIP3   OH238127   1.465   0.257   4.325  0.1702  0.1143 -0.2236
 5571TIP3    H138128   1.541   0.301   4.363  0.9535 -1.2603 -0.1387
 5571TIP3    H238129   1.487   0.164   4.329 -1.9903 -0.3855  0.8047
 5572TIP3   OH238130   1.307   0.777  15.631  0.1324  0.3686  0.2062
 5572TIP3    H138131   1.289   0.688  15.663 -0.5683  0.0271 -1.0959
 5572TIP3    H238132   1.363   0.763  15.554  1.4415  1.1549  0.9872
 5573TIP3   OH238133   0.122   6.110  15.288  0.2220  0.0787  0.4652
 5573TIP3    H138134   0.053   6.062  15.334 -1.1183  0.8468 -0.7058
 5573TIP3    H238135   0.183   6.042  15.259 -1.1398 -0.8139 -0.3161
 5574TIP3   OH238136   3.295   1.606   1.322  0.4520  0.4794 -0.1507
 5574TIP3    H138137   3.205   1.582   1.303  0.8801 -0.1801 -1.4220
 5574TIP3    H238138   3.295   1.702   1.324 -0.5552  0.4607  1.3514
 5575TIP3   OH238139   0.065   6.380   1.124 -1.0305  0.0703  0.2071
 5575TIP3    H138140   0.067   6.437   1.201 -1.8014  0.0881  0.2180
 5575TIP3    H238141   0.104   6.433   1.054 -1.2590  0.4193  0.3451
 5576TIP3   OH238142   5.405   0.195   4.552  0.1542  0.7253 -0.1342
 5576TIP3    H138143   5.324   0.235   4.521 -0.0775  1.6912  1.6241
 5576TIP3    H238144   5.394   0.101   4.536 -0.4333  1.0753 -1.8096
 5577TIP3   OH238145   0.402   2.977   1.309 -0.7413  0.3413 -0.1822
 5577TIP3    H138146   0.445   3.044   1.362  0.6097 -0.7125  0.0680
 5577TIP3    H238147   0.310   2.983   1.333 -0.7423  2.5578 -0.6404
 5578TIP3   OH238148   4.723   5.079   1.329  0.4468  0.0375  0.3232
 5578TIP3    H138149   4.725   5.044   1.240  0.8351 -0.3512  0.4821
 5578TIP3    H238150   4.795   5.035   1.373  0.3397  0.3336  0.7937
 5579TIP3   OH238151   3.651   2.937  13.711 -0.4414  0.3125  0.2864
 5579TIP3    H138152   3.735   2.928  13.756 -0.2404 -0.2084 -0.1839
 5579TIP3    H238153   3.672   2.924  13.618 -0.7065  2.1698 -0.0641
 5580TIP3   OH238154   1.465   1.830   2.195  0.3270  0.0654 -0.4356
 5580TIP3    H138155   1.481   1.865   2.107 -0.5135  1.3946 -0.0770
 5580TIP3    H238156   1.531   1.872   2.250  1.2971 -1.2928 -0.5338
 5581TIP3   OH238157   4.885   4.181  14.150  0.4627 -0.3273 -0.0893
 5581TIP3    H138158   4.855   4.100  14.109  0.9394 -0.7359  0.3688
 5581TIP3    H238159   4.965   4.204  14.103  0.7923 -0.5828  0.3400
 5582TIP3   OH238160   1.105   1.034   5.516  0.0960  1.2994 -0.2194
 5582TIP3    H138161   1.145   1.121   5.514  1.0577  0.8356 -2.1845
 5582TIP3    H238162   1.178   0.974   5.535 -0.2262  0.7471 -0.6992
 5583TIP3   OH238163   2.991   4.983   4.980  0.0249  0.1078 -0.1310
 5583TIP3    H138164   2.998   5.057   5.039  0.9354  0.0390 -0.1501
 5583TIP3    H238165   2.920   5.006   4.920 -0.6687  0.3280  0.7626
 5584TIP3   OH238166   5.606   3.812   3.079  0.0679 -0.6202  0.1643
 5584TIP3    H138167   5.657   3.892   3.093 -1.0484  0.2440 -0.5899
 5584TIP3    H238168   5.583   3.784   3.168  0.2904  0.0167  0.4327
 5585TIP3   OH238169   0.270   2.417  14.583  0.0078  0.6684  0.4974
 5585TIP3    H138170   0.351   2.379  14.615 -0.4956  0.5078  1.6127
 5585TIP3    H238171   0.298   2.480  14.516  1.0156  0.3251  0.5866
 5586TIP3   OH238172   5.394   4.379  11.289 -0.1089  0.7514  0.2536
 5586TIP3    H138173   5.383   4.463  11.244 -0.9791  0.1166 -0.7586
 5586TIP3    H238174   5.343   4.388  11.370 -0.6198  1.0272 -0.0975
 5587TIP3   OH238175   6.241   5.689   5.360  0.1271  0.0199 -0.3670
 5587TIP3    H138176   6.220   5.652   5.274  0.9529 -0.8341 -0.2092
 5587TIP3    H238177   6.289   5.620   5.405  1.6906  1.2813 -0.0634
 5588TIP3   OH238178   3.541   6.601  16.000  0.0787 -0.2940  0.1554
 5588TIP3    H138179   3.494   6.679  16.030  0.0717 -0.5504  0.8376
 5588TIP3    H238180   3.615   6.593  16.061  1.1721  0.2638 -1.0737
 5589TIP3   OH238181   2.643   0.440   1.272  0.0492  0.1916 -0.3133
 5589TIP3    H138182   2.564   0.397   1.239 -0.1993 -0.1420  0.7293
 5589TIP3    H238183   2.715   0.386   1.239 -0.2008 -0.1861 -0.2384
 5590TIP3   OH238184   1.666   2.418   0.381  0.1009  0.2842 -0.1457
 5590TIP3    H138185   1.745   2.432   0.329  1.2048 -0.1100  1.3774
 5590TIP3    H238186   1.633   2.506   0.398  0.6868  0.4957 -0.0920
 5591TIP3   OH238187   5.631   0.820  16.445  0.2510 -0.1361 -0.7948
 5591TIP3    H138188   5.544   0.844  16.415 -0.4013  0.5862  1.5751
 5591TIP3    H238189   5.684   0.900  16.432 -0.5400  0.8468  1.8594
 5592TIP3   OH238190   2.847   6.462   2.883  0.1543 -0.1653 -0.2128
 5592TIP3    H138191   2.781   6.403   2.846 -0.0690 -1.0684  1.5407
 5592TIP3    H238192   2.917   6.405   2.912  1.0880  0.6753 -0.7995
 5593TIP3   OH238193   3.288   1.214   4.524 -0.7273 -0.5446 -0.0631
 5593TIP3    H138194   3.343   1.282   4.485 -1.1028  0.6451  1.4517
 5593TIP3    H238195   3.221   1.197   4.457  0.1288 -0.3804 -0.9824
 5594TIP3   OH238196   2.682   1.738  13.537 -0.0205 -0.2137 -0.4659
 5594TIP3    H138197   2.628   1.669  13.575 -1.1185 -0.0054 -1.5820
 5594TIP3    H238198   2.623   1.813  13.528  1.5059  1.3457  2.0008
 5595TIP3   OH238199   6.434   0.147  13.423 -0.8560  0.4540 -0.2420
 5595TIP3    H138200   6.429   0.072  13.364  0.8475 -0.6646  0.9970
 5595TIP3    H238201   6.505   0.200  13.388 -1.6741  1.2162 -0.7755
 5596TIP3   OH238202   6.556   0.981   0.517 -0.2914  0.0914 -0.3027
 5596TIP3    H138203   6.522   0.904   0.471  0.6590  0.0538 -0.9635
 5596TIP3    H238204   6.482   1.042   0.518 -0.3492  0.0669 -1.8406
 5597TIP3   OH238205   6.499   2.440  10.518 -0.2763 -0.6153 -0.3266
 5597TIP3    H138206   6.534   2.357  10.551 -1.5908 -0.2354  2.1176
 5597TIP3    H238207   6.528   2.506  10.581 -1.3372  0.4086 -0.8961
 5598TIP3   OH238208   4.699   5.906  14.544 -0.4705  0.8582  0.1298
 5598TIP3    H138209   4.749   5.825  14.548 -0.4312  0.8105 -1.2664
 5598TIP3    H238210   4.659   5.913  14.631 -0.9827 -0.9760  0.0692
 5599TIP3   OH238211   5.538   4.329  13.652 -0.0135  0.0255 -0.3371
 5599TIP3    H138212   5.623   4.308  13.690  0.4000  0.6457 -0.9215
 5599TIP3    H238213   5.544   4.300  13.561 -0.4076  0.1351 -0.4021
 5600TIP3   OH238214   4.162   1.420  12.408 -0.2155  0.1581  0.4338
 5600TIP3    H138215   4.179   1.509  12.375  1.0682 -0.0538  0.5025
 5600TIP3    H238216   4.091   1.388  12.352  0.8882  0.3809 -1.1423
 5601TIP3   OH238217   1.561   2.067  11.649  0.8161 -0.2802  0.4264
 5601TIP3    H138218   1.551   2.011  11.726 -2.0282 -0.1444  0.2247
 5601TIP3    H238219   1.516   2.148  11.673  0.6240  0.0636 -1.0719
 5602TIP3   OH238220   5.933   0.642   0.466 -0.2138  1.0651  0.0070
 5602TIP3    H138221   6.018   0.599   0.462 -1.6907 -2.0837  0.8920
 5602TIP3    H238222   5.883   0.604   0.394 -0.6652  3.5232 -1.0520
 5603TIP3   OH238223   2.789   5.814  14.645  0.0358  0.1341  0.3227
 5603TIP3    H138224   2.810   5.836  14.736 -1.2334 -0.6879  0.8203
 5603TIP3    H238225   2.702   5.776  14.649 -0.3780  0.8692 -1.3590
 5604TIP3   OH238226   2.875   0.994  14.804 -0.3788  0.0987  0.5412
 5604TIP3    H138227   2.929   0.920  14.830 -0.4631  0.5695  2.0869
 5604TIP3    H238228   2.859   1.042  14.885 -0.3040  1.8271 -0.4432
 5605TIP3   OH238229   4.691   4.092   5.611  0.2333 -0.8156 -0.4845
 5605TIP3    H138230   4.625   4.160   5.601 -0.1210 -1.1193 -0.2158
 5605TIP3    H238231   4.743   4.119   5.687  1.0968 -0.0227 -1.3345
 5606TIP3   OH238232   5.763   4.971  10.724  0.1672  0.2293 -0.2160
 5606TIP3    H138233   5.736   4.882  10.704  4.0123 -0.5282 -2.6534
 5606TIP3    H238234   5.854   4.963  10.753  0.4824  3.2865 -0.1385
 5607TIP3   OH238235   3.037   0.101  15.889  0.0615  0.0065 -0.0480
 5607TIP3    H138236   3.061   0.010  15.872 -0.8514 -0.5324  1.4837
 5607TIP3    H238237   3.061   0.116  15.980 -1.0488  0.8711  0.1149
 5608TIP3   OH238238   2.466   3.126  13.836 -0.3301 -0.0524 -1.0050
 5608TIP3    H138239   2.434   3.144  13.748  0.2297 -0.5504 -1.3138
 5608TIP3    H238240   2.437   3.037  13.855  0.9959 -0.5691 -1.3549
 5609TIP3   OH238241   5.938   0.808  14.220  0.2874  0.1881  0.5442
 5609TIP3    H138242   5.911   0.900  14.218  2.0861  0.7800  2.0554
 5609TIP3    H238243   5.974   0.796  14.308  1.7972 -1.4624 -0.2688
 5610TIP3   OH238244   2.697   4.820   2.712  0.5037  0.1425  0.3480
 5610TIP3    H138245   2.756   4.879   2.759 -0.6846  2.8818 -1.4139
 5610TIP3    H238246   2.715   4.838   2.619 -1.0984 -1.0133 -0.2000
 5611TIP3   OH238247   1.728   4.775   4.049  0.1622  0.8395  0.0111
 5611TIP3    H138248   1.727   4.709   4.119  0.5358  1.5927  0.7301
 5611TIP3    H238249   1.636   4.782   4.022  0.5131 -2.4531 -2.4505
 5612TIP3   OH238250   1.095   3.305   4.371 -0.2798  0.1168  0.3826
 5612TIP3    H138251   1.149   3.380   4.347 -0.3266  0.2040  0.5453
 5612TIP3    H238252   1.107   3.297   4.466  2.5924 -2.3162 -0.1221
 5613TIP3   OH238253   2.289   4.547  14.031 -0.2134 -0.5762 -0.2195
 5613TIP3    H138254   2.339   4.628  14.021 -1.2749  0.0097 -0.8571
 5613TIP3    H238255   2.259   4.549  14.121 -1.0304  0.2231 -0.4941
 5614TIP3   OH238256   0.260   0.695   2.536  0.3482 -0.3128 -0.0989
 5614TIP3    H138257   0.195   0.758   2.507  0.8762  0.7381  0.9968
 5614TIP3    H238258   0.209   0.625   2.578 -0.0081  1.0077  1.6937
 5615TIP3   OH238259   1.305   1.887  16.690  0.3512  0.4140 -0.5061
 5615TIP3    H138260   1.210   1.884  16.687  0.2953  2.1455 -1.6490
 5615TIP3    H238261   1.327   1.868  16.781 -1.1362  0.8457 -0.0369
 5616TIP3   OH238262   4.649   3.410  14.906 -0.3583  0.3448  0.3943
 5616TIP3    H138263   4.567   3.459  14.898 -0.6792  0.0057  1.5010
 5616TIP3    H238264   4.635   3.351  14.980  0.2535 -0.9732 -0.5279
 5617TIP3   OH238265   0.490   0.672   5.678  0.1965 -0.3491 -0.0264
 5617TIP3    H138266   0.546   0.678   5.601 -0.2178  3.9807 -0.0834
 5617TIP3    H238267   0.548   0.692   5.752 -0.2720 -0.5238  0.3946
 5618TIP3   OH238268   0.786   1.078  13.388 -0.5580 -0.5002  0.2295
 5618TIP3    H138269   0.747   1.081  13.475 -1.2898  0.8692 -0.1350
 5618TIP3    H238270   0.720   1.033  13.334 -0.9346  0.3169 -0.0124
 5619TIP3   OH238271   1.652   2.598  15.293 -0.0774  0.0106 -0.2207
 5619TIP3    H138272   1.604   2.662  15.347 -3.3194 -0.4092 -2.4715
 5619TIP3    H238273   1.680   2.649  15.217 -0.7355 -0.7321 -0.9615
 5620TIP3   OH238274   4.535   4.253  11.847 -0.3053  0.4652 -0.1066
 5620TIP3    H138275   4.481   4.267  11.925 -0.4831  0.8459 -0.2972
 5620TIP3    H238276   4.563   4.162  11.854 -0.6136  0.3932  0.2204
 5621TIP3   OH238277   1.926   0.123  10.455 -0.3133  0.0077 -0.0372
 5621TIP3    H138278   1.941   0.186  10.384 -1.4155 -0.7895 -0.9820
 5621TIP3    H238279   1.964   0.041  10.424  3.8257  0.8224  2.3892
 5622TIP3   OH238280   0.490   5.796  11.944  0.1510  0.2318  0.4786
 5622TIP3    H138281   0.426   5.844  11.891  0.9360  2.1288  1.2001
 5622TIP3    H238282   0.438   5.732  11.992 -0.3984 -2.6219 -3.6920
 5623TIP3   OH238283   0.667   4.022  11.639 -0.9805 -0.4184 -0.0861
 5623TIP3    H138284   0.662   4.116  11.622 -0.2553 -0.3713 -0.0296
 5623TIP3    H238285   0.749   3.994  11.599 -0.1995 -0.6543  1.6444
 5624TIP3   OH238286   2.839   3.323  17.121 -0.1300 -0.5565 -0.1068
 5624TIP3    H138287   2.866   3.389  17.057 -0.8807  0.8307  1.0101
 5624TIP3    H238288   2.889   3.245  17.096  0.9377  0.4811 -1.2903
 5625TIP3   OH238289   3.158   1.201   1.361 -0.0175  0.9056 -0.0078
 5625TIP3    H138290   3.173   1.246   1.278 -1.9858  3.2054  0.8326
 5625TIP3    H238291   3.079   1.149   1.346 -0.3260  1.2571  0.3974
 5626TIP3   OH238292   6.372   5.065   2.273 -0.0544  0.1264  0.0188
 5626TIP3    H138293   6.298   5.122   2.294 -0.0992 -0.6482  2.0623
 5626TIP3    H238294   6.331   4.983   2.244  0.0178  0.3444 -0.7148
 5627TIP3   OH238295   5.874   2.186   0.910  0.2461 -0.0696  0.3563
 5627TIP3    H138296   5.930   2.190   0.988  1.4783  0.8137 -0.5653
 5627TIP3    H238297   5.788   2.216   0.941  0.7273  0.2956  1.3597
 5628TIP3   OH238298   5.847   1.461  12.440 -0.1338  0.3206  0.1495
 5628TIP3    H138299   5.895   1.518  12.501 -0.9826  1.6805 -0.4367
 5628TIP3    H238300   5.885   1.481  12.354 -1.4519  1.1042 -0.2634
 5629TIP3   OH238301   0.413   0.049   0.389  0.2399  0.3367  0.3464
 5629TIP3    H138302   0.433  -0.036   0.428  1.8881  0.6763  0.2563
 5629TIP3    H238303   0.394   0.029   0.297 -2.0139 -0.2490  0.9092
 5630TIP3   OH238304   6.416   0.812   6.081 -0.0951  0.1069  0.2286
 5630TIP3    H138305   6.442   0.865   6.005 -0.1432  0.8366  0.7173
 5630TIP3    H238306   6.339   0.856   6.116  0.6229  0.4383  1.3993
 5631TIP3   OH238307   4.044   0.336  13.560  0.0027  0.4264 -0.1597
 5631TIP3    H138308   4.028   0.274  13.630  1.7370 -0.0817 -0.1860
 5631TIP3    H238309   4.062   0.282  13.483 -2.7916  0.9621 -1.2770
 5632TIP3   OH238310   1.679   4.276  14.626 -0.4500 -0.6889 -0.0563
 5632TIP3    H138311   1.623   4.275  14.549 -0.4601 -1.0391 -0.0411
 5632TIP3    H238312   1.727   4.359  14.618 -1.3799 -0.1118  0.2351
 5633TIP3   OH238313   0.689   5.550   0.527  0.2093 -0.3597  0.4321
 5633TIP3    H138314   0.658   5.606   0.456  0.1973 -1.4928 -0.4727
 5633TIP3    H238315   0.647   5.466   0.510  0.3686 -0.6949  1.6742
 5634TIP3   OH238316   4.113   2.730  12.259  0.2600  0.5713 -0.1195
 5634TIP3    H138317   4.137   2.662  12.323  1.5736  0.8989 -0.2340
 5634TIP3    H238318   4.020   2.718  12.244  0.4934 -1.2641 -0.2033
 5635TIP3   OH238319   5.008   5.668   4.077 -0.8602 -0.2485 -0.5475
 5635TIP3    H138320   4.948   5.736   4.108 -1.7073 -0.7570 -1.0385
 5635TIP3    H238321   5.065   5.714   4.016 -0.9110  0.1923 -0.2727
 5636TIP3   OH238322   1.770   6.638  14.191 -0.2341  0.8240 -0.3885
 5636TIP3    H138323   1.715   6.712  14.168 -0.3426 -0.1998 -3.6971
 5636TIP3    H238324   1.724   6.561  14.156  0.8095 -0.6051  1.2654
 5637TIP3   OH238325   2.486   4.493   4.296 -0.1676  0.0486 -0.2951
 5637TIP3    H138326   2.529   4.416   4.334  2.1228  1.3520 -0.1951
 5637TIP3    H238327   2.510   4.565   4.354 -0.1937  1.2912 -1.7894
 5638TIP3   OH238328   4.947   1.942  10.980 -0.1803 -0.0676  0.1620
 5638TIP3    H138329   4.979   2.012  10.924 -1.8604  1.2530  0.8100
 5638TIP3    H238330   4.950   1.979  11.068  0.0641 -1.2539  0.6641
 5639TIP3   OH238331   3.705   3.055   1.549 -0.4432  0.6268  0.2825
 5639TIP3    H138332   3.682   3.047   1.457  4.5757  0.1444 -1.0561
 5639TIP3    H238333   3.718   3.149   1.562 -2.6599  0.8614  0.9444
 5640TIP3   OH238334   1.184   4.814  16.076  0.0331 -0.0183  0.1346
 5640TIP3    H138335   1.180   4.898  16.032 -2.7745  0.0474  0.4158
 5640TIP3    H238336   1.159   4.750  16.009  1.8290 -0.6304  0.0094
 5641TIP3   OH238337   0.171   3.554  16.771 -0.6300 -0.4351 -0.1156
 5641TIP3    H138338   0.106   3.525  16.835  0.8813 -0.8097  1.2729
 5641TIP3    H238339   0.191   3.476  16.720  0.4425 -0.8838  0.9765
 5642TIP3   OH238340   3.915   6.054  13.513  0.7111 -0.2139  0.1377
 5642TIP3    H138341   3.917   6.044  13.418  0.8159  1.7206 -0.0732
 5642TIP3    H238342   3.846   6.117  13.530  1.2516  0.0913  1.2916
 5643TIP3   OH238343   5.560   5.810   2.599  0.3404 -0.1996 -0.1196
 5643TIP3    H138344   5.568   5.812   2.694  1.4514 -1.4296 -0.1698
 5643TIP3    H238345   5.497   5.740   2.582  1.8610 -1.5708 -0.3412
 5644TIP3   OH238346   2.305   3.667   3.764  0.3375  0.0116  0.2062
 5644TIP3    H138347   2.327   3.719   3.842 -0.0724  2.1907 -1.0893
 5644TIP3    H238348   2.293   3.732   3.695  1.1101 -1.9238 -1.7874
 5645TIP3   OH238349   3.428   0.766   5.124 -0.5180  0.3198  0.0981
 5645TIP3    H138350   3.374   0.785   5.047 -0.7007 -1.7362 -0.3233
 5645TIP3    H238351   3.505   0.722   5.089 -0.1155  0.2837  1.0092
 5646TIP3   OH238352   4.749   4.404  14.534  0.8860 -0.2379  0.5150
 5646TIP3    H138353   4.666   4.381  14.576  1.8993 -0.6784  2.3447
 5646TIP3    H238354   4.756   4.342  14.461 -0.6770  0.2110 -0.0353
 5647TIP3   OH238355   2.813   6.578   1.885  0.1494  0.4203  0.0623
 5647TIP3    H138356   2.727   6.619   1.878  0.7365  1.6564 -0.1220
 5647TIP3    H238357   2.840   6.594   1.976  0.5889  0.8729 -0.1465
 5648TIP3   OH238358   1.432   0.173   5.421 -0.4195 -0.3297 -0.3309
 5648TIP3    H138359   1.415   0.124   5.501  0.3508  0.3497  0.2500
 5648TIP3    H238360   1.455   0.105   5.357 -0.9581 -0.8636  0.0273
 5649TIP3   OH238361   6.485   1.551  13.825  0.2997 -0.3676  0.3353
 5649TIP3    H138362   6.389   1.558  13.833  0.3275 -0.6633  0.9582
 5649TIP3    H238363   6.519   1.612  13.891  0.5627  2.2876 -2.1724
 5650TIP3   OH238364   6.479   2.171  17.062  0.2195 -0.0913 -0.1813
 5650TIP3    H138365   6.513   2.241  17.118  0.0548  1.4094 -1.9015
 5650TIP3    H238366   6.503   2.198  16.973 -2.0367 -0.9547 -1.0986
 5651TIP3   OH238367   1.188   4.067   1.368 -0.1661 -0.1202  0.7399
 5651TIP3    H138368   1.228   4.130   1.427 -1.2672 -0.3909  1.7842
 5651TIP3    H238369   1.220   4.093   1.281  0.4314  1.0599  1.2922
 5652TIP3   OH238370   5.659   3.279   5.454 -0.1300  0.1134  0.0229
 5652TIP3    H138371   5.744   3.277   5.498  0.8760  2.2946 -1.7441
 5652TIP3    H238372   5.595   3.287   5.525  1.2122 -0.2031  1.2875
 5653TIP3   OH238373   1.744   4.896  13.601 -0.4319 -0.0352 -0.0957
 5653TIP3    H138374   1.780   4.940  13.524 -0.9487 -0.5210 -0.6142
 5653TIP3    H238375   1.775   4.949  13.675  0.3628  0.2311 -0.6064
 5654TIP3   OH238376   5.303   6.423  15.954 -0.6817  0.1407  0.5482
 5654TIP3    H138377   5.288   6.441  15.862  0.2457  2.5310  0.8143
 5654TIP3    H238378   5.218   6.398  15.989 -1.1922  0.0009 -0.7996
 5655TIP3   OH238379   1.414   5.187  15.805  0.1142  0.0526 -0.7193
 5655TIP3    H138380   1.464   5.117  15.764  1.6382 -0.9682  2.7040
 5655TIP3    H238381   1.479   5.247  15.840 -1.1464  1.6426 -1.0254
 5656TIP3   OH238382   3.441   4.920  12.462 -0.4034  0.6151  0.2848
 5656TIP3    H138383   3.402   5.001  12.431 -1.7813  0.1177  0.7013
 5656TIP3    H238384   3.370   4.873  12.506 -0.4301 -2.1564 -2.4791
 5657TIP3   OH238385   4.913   0.454  11.214 -0.1744 -0.3120 -0.1847
 5657TIP3    H138386   4.914   0.473  11.120  1.9383  1.7730  0.2129
 5657TIP3    H238387   4.921   0.359  11.218 -0.2757 -0.4346 -2.1242
 5658TIP3   OH238388   6.324   3.073  16.820  0.2777 -0.3250  0.1952
 5658TIP3    H138389   6.414   3.070  16.851  0.6435 -1.0728 -0.9265
 5658TIP3    H238390   6.271   3.060  16.899  1.0880  1.9181  1.1287
 5659TIP3   OH238391   1.716   4.403   3.043 -0.2924  0.0898  1.1788
 5659TIP3    H138392   1.640   4.429   3.094  0.4825  0.1549  2.3051
 5659TIP3    H238393   1.790   4.443   3.088  0.1880  2.3707 -1.4368
 5660TIP3   OH238394   3.337   2.961   4.316  0.1192 -0.5642 -0.2285
 5660TIP3    H138395   3.351   3.014   4.237  0.9736 -0.9325 -0.3348
 5660TIP3    H238396   3.316   3.024   4.384  1.7882 -0.0171 -0.1966
 5661TIP3   OH238397   2.591   4.462  10.883 -0.4247  0.0645  0.3021
 5661TIP3    H138398   2.551   4.465  10.796  1.9553  1.9223 -0.7760
 5661TIP3    H238399   2.657   4.393  10.877 -1.4916 -1.0679  1.2271
 5662TIP3   OH238400   2.332   3.505   5.261  0.4020  0.8997  0.1628
 5662TIP3    H138401   2.355   3.564   5.189  2.5381 -0.2022 -0.1178
 5662TIP3    H238402   2.388   3.532   5.333  0.2540  0.2515  0.5293
 5663TIP3   OH238403   2.079   0.907   4.682  0.7272 -0.5942 -0.2524
 5663TIP3    H138404   2.136   0.863   4.618  1.4348 -0.1319  0.0487
 5663TIP3    H238405   2.095   1.000   4.668 -1.4443 -0.3767 -1.5008
 5664TIP3   OH238406   2.556   4.672  11.652  0.2432 -0.3104 -0.3412
 5664TIP3    H138407   2.557   4.696  11.560 -0.7715  0.2768 -0.2091
 5664TIP3    H238408   2.468   4.637  11.667  0.3507 -0.2707  0.4347
 5665TIP3   OH238409   4.553   5.750   2.786  0.3244  0.4672  0.3495
 5665TIP3    H138410   4.501   5.777   2.861 -1.8458 -0.6595 -0.7159
 5665TIP3    H238411   4.572   5.658   2.802  2.4031  0.9665  0.9350
 5666TIP3   OH238412   3.890   0.231   5.397  0.2576 -0.1239 -0.0925
 5666TIP3    H138413   3.887   0.137   5.378  0.1456  0.2012 -1.8341
 5666TIP3    H238414   3.930   0.238   5.483 -0.1455 -1.7979  0.2380
 5667TIP3   OH238415   6.707   0.128  12.076 -0.3352 -0.2114 -0.3888
 5667TIP3    H138416   6.714   0.101  11.985 -2.1729 -1.0074 -0.3106
 5667TIP3    H238417   6.613   0.132  12.093 -0.0158 -1.4478  1.8698
 5668TIP3   OH238418   0.996   1.139  14.539  0.5046 -0.5839 -0.3588
 5668TIP3    H138419   0.997   1.150  14.634  0.5740 -2.0001 -0.1858
 5668TIP3    H238420   1.064   1.197  14.506 -0.1784  0.6441  0.3708
 5669TIP3   OH238421   0.332   5.760   0.378  0.2516 -0.5423  0.1447
 5669TIP3    H138422   0.280   5.680   0.394 -0.1600 -0.4633 -0.7816
 5669TIP3    H238423   0.268   5.824   0.346  0.9823 -0.5585 -1.3865
 5670TIP3   OH238424   4.115   2.065  15.884 -0.0183  0.5397 -0.4366
 5670TIP3    H138425   4.101   2.157  15.908 -0.4613 -0.0049  1.5008
 5670TIP3    H238426   4.209   2.051  15.898  0.0507  0.7088 -0.7375
 5671TIP3   OH238427   0.479   3.213   2.139 -0.3445  0.4256  0.2452
 5671TIP3    H138428   0.556   3.168   2.175  0.6019  1.1156 -0.8485
 5671TIP3    H238429   0.515   3.294   2.102 -1.2210 -0.4003 -2.5255
 5672TIP3   OH238430   4.788   1.964   0.264 -0.0057 -0.3253 -0.4382
 5672TIP3    H138431   4.810   1.975   0.357  1.0378 -0.4907 -0.6653
 5672TIP3    H238432   4.812   2.047   0.224  1.2394 -0.8838 -0.8767
 5673TIP3   OH238433   4.435   4.691   3.622  0.4945  0.4075  0.9336
 5673TIP3    H138434   4.459   4.698   3.714  2.0499 -1.0284  0.6629
 5673TIP3    H238435   4.355   4.637   3.622 -0.3231  1.6037  1.5289
 5674TIP3   OH238436   2.174   6.078  13.138  0.3157 -0.9172  0.0039
 5674TIP3    H138437   2.229   6.087  13.060  1.8349 -0.2668  1.1082
 5674TIP3    H238438   2.128   6.162  13.145 -0.5371 -1.3188 -0.7045
 5675TIP3   OH238439   0.716   5.927   0.237 -0.2141  0.6127 -0.1882
 5675TIP3    H138440   0.691   5.835   0.244 -0.2607  0.5018 -1.7262
 5675TIP3    H238441   0.792   5.935   0.294 -0.1808 -0.3799 -0.0788
 5676TIP3   OH238442   3.790   2.001   0.944  0.0786  0.2390  0.3690
 5676TIP3    H138443   3.779   1.932   1.009  0.6148  1.0878  1.3830
 5676TIP3    H238444   3.885   2.011   0.935  0.0075  0.9810  0.3954
 5677TIP3   OH238445   2.037   3.589  12.245  0.0172 -0.1491  0.0739
 5677TIP3    H138446   1.967   3.560  12.187 -0.0214  0.1153 -0.0155
 5677TIP3    H238447   1.995   3.598  12.330  0.0627 -0.4917  0.1333
 5678TIP3   OH238448   6.509   1.821   1.941  0.5078  0.0891  0.1793
 5678TIP3    H138449   6.447   1.800   1.872  0.3176 -1.2487  0.7517
 5678TIP3    H238450   6.533   1.913   1.925 -1.8844  0.7508  0.1707
 5679TIP3   OH238451   5.627   6.588  11.573  0.5020  0.1837 -0.5971
 5679TIP3    H138452   5.706   6.620  11.529  0.3049  0.8447 -0.4741
 5679TIP3    H238453   5.633   6.493  11.566  1.9147  0.1711  0.4806
 5680TIP3   OH238454   1.439   3.282  13.396 -0.4150 -0.3013 -0.2570
 5680TIP3    H138455   1.349   3.286  13.364 -0.1144  1.7258 -0.9481
 5680TIP3    H238456   1.466   3.374  13.402  1.0549 -0.8286  1.5492
 5681TIP3   OH238457   2.489   4.275  14.306  0.1675  0.1284 -0.2669
 5681TIP3    H138458   2.428   4.349  14.315  0.6822  0.5363 -0.1046
 5681TIP3    H238459   2.433   4.201  14.284 -0.5444  0.1881  1.2665
 5682TIP3   OH238460   2.659   3.718  14.555  0.5752 -0.1300 -0.2886
 5682TIP3    H138461   2.569   3.714  14.585 -0.1791  1.2345 -2.2616
 5682TIP3    H238462   2.700   3.784  14.612  0.4715 -1.0217  0.8530
 5683TIP3   OH238463   1.083   2.108  13.266  0.4028 -0.3536  0.3191
 5683TIP3    H138464   0.991   2.128  13.247 -0.4243 -0.7887  3.5634
 5683TIP3    H238465   1.122   2.193  13.286  0.1382 -0.4050  1.0869
 5684TIP3   OH238466   6.035   2.416   0.477 -0.5369  0.2942 -0.0073
 5684TIP3    H138467   6.082   2.449   0.400  0.0194  0.2168  0.2924
 5684TIP3    H238468   5.980   2.346   0.444  0.5223 -0.4785 -0.1570
 5685TIP3   OH238469   1.586   0.585   4.012  1.0362 -0.4754  0.0192
 5685TIP3    H138470   1.631   0.591   3.928  0.8017 -1.7501 -0.2049
 5685TIP3    H238471   1.574   0.676   4.039  0.4503 -0.0327 -1.6662
 5686TIP3   OH238472   5.799   6.710   3.734  1.2785 -1.0025  0.6528
 5686TIP3    H138473   5.857   6.644   3.770 -0.8146 -1.9587  2.3366
 5686TIP3    H238474   5.838   6.794   3.761  0.3851 -1.6711  4.1807
 5687TIP3   OH238475   4.907   4.976  14.110  0.5784  1.0585 -0.2028
 5687TIP3    H138476   4.881   4.974  14.018 -1.7897  0.9153  0.4367
 5687TIP3    H238477   4.886   5.064  14.139  0.6193  0.8709  0.4073
 5688TIP3   OH238478   4.320   3.357   2.610 -0.9929 -0.3404 -0.0622
 5688TIP3    H138479   4.290   3.448   2.615 -0.8779 -0.3677  1.1496
 5688TIP3    H238480   4.376   3.355   2.532  1.3301  1.3317  1.4993
 5689TIP3   OH238481   5.729   3.113   3.195 -0.5861 -0.4535  0.1143
 5689TIP3    H138482   5.688   3.114   3.108  0.5759 -2.0293 -0.4729
 5689TIP3    H238483   5.671   3.167   3.249 -1.0914  0.9251 -1.7336
 5690TIP3   OH238484   6.152   1.364   3.776  0.0547  0.1950 -0.2366
 5690TIP3    H138485   6.141   1.411   3.858 -0.2320  0.0708 -0.2049
 5690TIP3    H238486   6.242   1.332   3.779 -0.6589 -1.7418  1.0290
 5691TIP3   OH238487   3.714   4.974  14.346 -0.1658  0.1835  0.2266
 5691TIP3    H138488   3.695   4.944  14.435  1.0652  1.9040  1.1048
 5691TIP3    H238489   3.647   5.040  14.328 -0.4911 -0.2540 -0.1864
 5692TIP3   OH238490   2.281   4.303   4.405  0.4051  0.0511 -0.1547
 5692TIP3    H138491   2.227   4.295   4.327  1.0730 -0.3399 -0.5810
 5692TIP3    H238492   2.363   4.341   4.374  0.9455 -0.7770  0.2298
 5693TIP3   OH238493   0.346   6.100  15.901  0.4594 -0.6248 -0.5550
 5693TIP3    H138494   0.298   6.067  15.977  1.1231 -0.3654 -0.0127
 5693TIP3    H238495   0.366   6.191  15.922  1.7837 -0.9168 -0.4560
 5694TIP3   OH238496   3.428   6.537   3.555 -0.0552 -0.3045 -0.0014
 5694TIP3    H138497   3.504   6.487   3.586 -0.8132 -1.6078 -0.2038
 5694TIP3    H238498   3.391   6.483   3.485 -0.0363  1.2665 -1.2364
 5695TIP3   OH238499   6.399   6.423  12.675 -0.6628 -0.0579 -0.0923
 5695TIP3    H138500   6.428   6.391  12.760 -1.4176 -1.0201 -0.1901
 5695TIP3    H238501   6.361   6.509  12.693  1.7680  1.0263  0.1088
 5696TIP3   OH238502   0.088   5.363  16.826 -0.4886  0.1300 -0.1577
 5696TIP3    H138503   0.009   5.397  16.784 -0.4767  1.4131  0.8234
 5696TIP3    H238504   0.065   5.356  16.918  0.8077  1.3315  0.2738
 5697TIP3   OH238505   1.654   6.066  17.203 -0.5954  0.0493 -0.1164
 5697TIP3    H138506   1.568   6.024  17.209 -0.7532  0.5783  1.4236
 5697TIP3    H238507   1.635   6.159  17.199 -0.0974  0.1529 -0.0420
 5698TIP3   OH238508   1.632   0.220  11.644 -0.5120 -0.1306  0.4628
 5698TIP3    H138509   1.578   0.201  11.721 -3.5809 -1.5342 -1.9175
 5698TIP3    H238510   1.657   0.134  11.610  0.8457  0.4747 -0.0874
 5699TIP3   OH238511   6.077   2.696  14.227  0.5719 -0.0040 -0.5158
 5699TIP3    H138512   6.087   2.790  14.245 -0.7377 -0.0870  0.6720
 5699TIP3    H238513   6.050   2.658  14.310 -1.6404 -1.0086 -1.6669
 5700TIP3   OH238514   6.561   1.084  13.363  0.0789 -0.5671 -0.0422
 5700TIP3    H138515   6.553   1.127  13.278 -0.9317  1.7388  1.1651
 5700TIP3    H238516   6.652   1.058  13.369  0.9050  2.0673 -0.5564
 5701TIP3   OH238517   2.397   6.306  13.535  0.2965 -0.2005  0.1902
 5701TIP3    H138518   2.359   6.392  13.515  0.4822 -0.1136  0.2092
 5701TIP3    H238519   2.420   6.311  13.627 -0.8070 -0.6988  0.5086
 5702TIP3   OH238520   0.850   2.642  15.272  0.0543  0.0174  0.0836
 5702TIP3    H138521   0.944   2.657  15.266 -0.0475  1.1876  1.3414
 5702TIP3    H238522   0.842   2.548  15.287  0.9009 -0.5182 -2.4849
 5703TIP3   OH238523   4.913   3.548  15.909 -0.0029  0.1074 -0.8446
 5703TIP3    H138524   4.830   3.501  15.917 -0.8779  1.5167 -1.5330
 5703TIP3    H238525   4.951   3.518  15.827  0.1306 -0.4571 -0.5808
 5704TIP3   OH238526   0.588   6.743  15.759  0.7000 -0.4172  0.4863
 5704TIP3    H138527   0.660   6.767  15.817  0.9251 -0.7512  0.3482
 5704TIP3    H238528   0.631   6.718  15.677  0.5639 -2.8608  1.1518
 5705TIP3   OH238529   0.142   5.643  16.607  0.2726  0.0031 -1.0458
 5705TIP3    H138530   0.160   5.549  16.609 -1.4055 -0.3146  0.0261
 5705TIP3    H238531   0.220   5.683  16.645 -0.3760 -1.2028  1.6761
 5706TIP3   OH238532   1.502   0.953  13.027 -0.1844 -0.4419  0.2597
 5706TIP3    H138533   1.552   0.936  13.107 -0.1384 -1.6612 -0.0145
 5706TIP3    H238534   1.457   0.870  13.009 -1.4612  0.3204 -0.0883
 5707TIP3   OH238535   1.691   0.927   3.214  0.0831 -0.3708  0.0831
 5707TIP3    H138536   1.739   0.894   3.137 -0.4674 -1.3059  0.1373
 5707TIP3    H238537   1.630   0.991   3.178  0.5713 -0.0164 -0.1260
 5708TIP3   OH238538   5.149   0.732  11.568 -0.4415  0.4092  0.4731
 5708TIP3    H138539   5.217   0.675  11.603 -1.0217 -1.7053 -1.7202
 5708TIP3    H238540   5.194   0.787  11.504 -0.8004 -1.0859 -1.0791
 5709TIP3   OH238541   5.008   1.613   2.062 -0.3796 -0.2867  0.3274
 5709TIP3    H138542   4.967   1.561   1.993 -2.0976  1.3045  0.1095
 5709TIP3    H238543   5.048   1.687   2.016  1.9192 -1.2602  0.6503
 5710TIP3   OH238544   3.295   3.616   2.750 -0.2878  0.6270  0.0513
 5710TIP3    H138545   3.380   3.653   2.777  0.2799 -0.1378 -0.6513
 5710TIP3    H238546   3.290   3.635   2.656 -0.7564  0.3860  0.0287
 5711TIP3   OH238547   1.072   5.686   4.650  0.5189 -0.2763  0.0785
 5711TIP3    H138548   1.160   5.654   4.632  0.2310 -0.5161 -0.9434
 5711TIP3    H238549   1.081   5.781   4.657  0.4707 -0.0108 -2.6309
 5712TIP3   OH238550   1.100   6.408  13.744  0.0323 -0.1119 -0.4917
 5712TIP3    H138551   1.162   6.398  13.817  1.0100 -0.6005 -1.3782
 5712TIP3    H238552   1.096   6.322  13.704 -1.7783 -0.2608 -0.0170
 5713TIP3   OH238553   0.132   4.297   5.726  0.4675  0.0218 -0.2080
 5713TIP3    H138554   0.110   4.206   5.747  1.9539 -0.4213 -0.5134
 5713TIP3    H238555   0.119   4.345   5.808  0.1105 -0.5462  0.0662
 5714TIP3   OH238556   0.355   6.521   5.184  0.2595  0.1538 -0.3045
 5714TIP3    H138557   0.287   6.567   5.234 -0.2855  0.2904 -1.1578
 5714TIP3    H238558   0.437   6.560   5.213  0.3186 -2.5999  3.5355
 5715TIP3   OH238559   4.401   2.026  12.361  0.3071  0.2805  0.6122
 5715TIP3    H138560   4.472   2.061  12.307  0.0485 -2.4333 -1.6321
 5715TIP3    H238561   4.445   1.977  12.430  0.6174  0.5445  0.6013
 5716TIP3   OH238562   5.002   6.740   2.807  0.0954 -0.3123 -0.2893
 5716TIP3    H138563   4.971   6.666   2.859 -0.5193  0.2719  0.1724
 5716TIP3    H238564   4.935   6.753   2.741  0.2305 -0.2013 -0.4050
 5717TIP3   OH238565   3.736   4.511  16.781 -0.0238 -0.1713 -0.2029
 5717TIP3    H138566   3.742   4.602  16.753 -0.5028 -0.2347 -0.5289
 5717TIP3    H238567   3.746   4.514  16.876 -1.1156  0.3401 -0.0976
 5718TIP3   OH238568   6.160   1.744   6.033 -0.8736  0.6097 -0.4560
 5718TIP3    H138569   6.226   1.812   6.024 -0.8540  0.5513 -0.7640
 5718TIP3    H238570   6.167   1.715   6.124 -0.1906  0.3142 -0.5967
 5719TIP3   OH238571   2.454   5.186   2.286  0.8136  0.1633 -0.1931
 5719TIP3    H138572   2.505   5.257   2.324  0.8569  0.0841 -0.1018
 5719TIP3    H238573   2.371   5.187   2.333  0.6586  0.4139 -0.4732
 5720TIP3   OH238574   1.696   6.241   0.374  0.5415 -0.0827  0.2882
 5720TIP3    H138575   1.742   6.159   0.388  2.8117  0.7427 -1.8551
 5720TIP3    H238576   1.615   6.216   0.330  0.5170 -1.2856  1.0035
 5721TIP3   OH238577   1.658   1.431  13.256 -0.0422 -0.0980 -0.2455
 5721TIP3    H138578   1.708   1.357  13.290 -0.8301 -0.3690  0.3332
 5721TIP3    H238579   1.656   1.494  13.329  2.7276  1.5738 -1.5212
 5722TIP3   OH238580   3.641   2.412  12.145 -0.0494 -0.2017  0.4787
 5722TIP3    H138581   3.623   2.412  12.051 -1.1101 -0.3253  0.6814
 5722TIP3    H238582   3.725   2.366  12.153 -0.2036 -0.6322 -0.3592
 5723TIP3   OH238583   1.363   5.688  15.518  0.2282  0.2974  0.6013
 5723TIP3    H138584   1.451   5.710  15.487  0.2056 -0.9778 -0.4489
 5723TIP3    H238585   1.305   5.719  15.449 -0.2370  2.0040  1.7372
 5724TIP3   OH238586   2.673   1.080   5.496  0.2860  0.0604  0.1632
 5724TIP3    H138587   2.769   1.087   5.497  0.1804  2.0603 -0.3704
 5724TIP3    H238588   2.643   1.170   5.478 -1.6297 -0.9448 -1.9129
 5725TIP3   OH238589   3.666   0.815   4.936  0.2718 -0.0905 -0.0680
 5725TIP3    H138590   3.753   0.782   4.913  0.1797  0.4932 -1.3200
 5725TIP3    H238591   3.655   0.892   4.880 -0.2411  1.0138  1.5395
 5726TIP3   OH238592   4.473   1.891  15.172  0.9301  0.2651 -0.6098
 5726TIP3    H138593   4.456   1.957  15.104 -0.6133 -1.1638 -1.6650
 5726TIP3    H238594   4.493   1.942  15.251  2.9213  1.9467 -2.1601
 5727TIP3   OH238595   6.149   1.543  10.980  0.1458  0.3668  0.3476
 5727TIP3    H138596   6.130   1.460  10.935  0.4334  0.5338 -0.0852
 5727TIP3    H238597   6.231   1.572  10.942 -0.6298  1.5314 -0.4639
 5728TIP3   OH238598   1.602   2.604   3.536  0.5235  0.1760  0.2489
 5728TIP3    H138599   1.651   2.557   3.603  0.8073  2.5015  1.7115
 5728TIP3    H238600   1.645   2.689   3.530 -0.2832  0.4544 -2.0101
 5729TIP3   OH238601   4.086   2.315  10.694  0.1131 -0.3005 -0.1141
 5729TIP3    H138602   4.122   2.296  10.781  1.6879 -0.3917 -0.7649
 5729TIP3    H238603   3.992   2.309  10.706  0.3444 -1.6327  1.3023
 5730TIP3   OH238604   6.079   6.462  13.903  0.3001  0.0558 -0.4873
 5730TIP3    H138605   6.044   6.545  13.934 -0.7910 -0.4613 -0.3212
 5730TIP3    H238606   6.003   6.404  13.899  1.3768 -1.5620  1.4428
 5731TIP3   OH238607   2.338   2.447   0.840  0.4092 -0.6624  0.5179
 5731TIP3    H138608   2.270   2.432   0.906 -0.5819 -0.1986 -0.3955
 5731TIP3    H238609   2.414   2.477   0.891 -0.8325  1.2041  1.3105
 5732TIP3   OH238610   4.899   0.606  12.150 -0.1505  0.1777 -0.2150
 5732TIP3    H138611   4.965   0.536  12.153  2.2775  2.3952 -0.1078
 5732TIP3    H238612   4.875   0.620  12.241 -0.9511 -0.7715 -0.2730
 5733TIP3   OH238613   2.227   4.817   5.946 -0.0947 -0.4864  0.3858
 5733TIP3    H138614   2.193   4.830   6.034 -0.9083  1.3983 -0.1919
 5733TIP3    H238615   2.297   4.753   5.956  2.1704  2.2900  2.9194
 5734TIP3   OH238616   5.574   2.014   2.572 -0.6189  0.2890 -0.3632
 5734TIP3    H138617   5.534   2.090   2.614 -1.6262 -0.8790  0.8093
 5734TIP3    H238618   5.504   1.975   2.520 -0.2223 -0.0913 -0.6177
 5735TIP3   OH238619   2.169   3.074  15.345 -0.0565  0.1987 -0.4043
 5735TIP3    H138620   2.166   3.078  15.249  0.2341  0.8270 -0.3909
 5735TIP3    H238621   2.079   3.054  15.370 -0.2057  0.3511 -0.7990
 5736TIP3   OH238622   2.108   3.814  11.927  0.6107 -0.1651 -0.1178
 5736TIP3    H138623   2.179   3.821  11.863 -0.5426  1.1631 -1.2792
 5736TIP3    H238624   2.107   3.721  11.951  0.9941 -0.7269 -2.1215
 5737TIP3   OH238625   5.666   1.931   0.244  0.8366  0.4428 -0.3677
 5737TIP3    H138626   5.580   1.971   0.260  0.3574 -0.7575  0.1691
 5737TIP3    H238627   5.707   1.929   0.330  0.6221 -0.7192 -0.2838
 5738TIP3   OH238628   4.225   3.104   2.652  0.5465 -0.3081 -0.2557
 5738TIP3    H138629   4.246   3.191   2.619  2.1509 -0.5058  0.1986
 5738TIP3    H238630   4.218   3.049   2.574 -2.1731  0.5322 -0.6767
 5739TIP3   OH238631   4.386   5.729  17.186  0.5948  0.2658 -0.4425
 5739TIP3    H138632   4.332   5.805  17.210  1.7720  0.7787  0.6129
 5739TIP3    H238633   4.361   5.711  17.095 -0.0949  1.5844 -0.5422
 5740TIP3   OH238634   4.554   1.956  10.716 -0.1696  0.6737  0.3965
 5740TIP3    H138635   4.615   1.975  10.644  0.6603  0.3283  1.0006
 5740TIP3    H238636   4.494   2.030  10.716  0.7822  1.4637  0.3566
 5741TIP3   OH238637   6.604   5.075  15.703 -0.3067 -0.2020  0.0443
 5741TIP3    H138638   6.630   5.047  15.791  0.6000  0.6347  0.0506
 5741TIP3    H238639   6.568   5.163  15.716 -0.9912 -0.4318 -0.2974
 5742TIP3   OH238640   3.944   4.199  16.044 -0.1265  0.1073  0.3233
 5742TIP3    H138641   3.895   4.280  16.054 -0.5039 -0.4079  2.7988
 5742TIP3    H238642   4.035   4.227  16.035 -0.1480  0.7619  2.0868
 5743TIP3   OH238643   1.264   1.538  13.890  0.6045 -0.3886 -0.9124
 5743TIP3    H138644   1.286   1.630  13.875 -0.1989  0.0353  0.4909
 5743TIP3    H238645   1.320   1.511  13.962 -0.4157 -0.4989 -0.1509
 5744TIP3   OH238646   0.867   5.340  14.487 -0.2966  0.7146 -0.1081
 5744TIP3    H138647   0.872   5.362  14.394  1.9923  0.8290  0.0116
 5744TIP3    H238648   0.930   5.399  14.529  2.2948 -2.5338  0.8509
 5745TIP3   OH238649   2.692   4.202  15.999 -0.2125 -0.4559  0.1850
 5745TIP3    H138650   2.646   4.170  16.077  1.4469  0.1973  1.4665
 5745TIP3    H238651   2.632   4.264  15.959 -1.8246 -2.1431 -0.0850
 5746TIP3   OH238652   5.264   5.463   3.466  0.0680 -0.3434  0.0082
 5746TIP3    H138653   5.201   5.452   3.395  1.4977 -2.5537 -0.9501
 5746TIP3    H238654   5.254   5.385   3.520  1.4317 -0.3483  0.2838
 5747TIP3   OH238655   0.576   0.559  16.475 -0.4151 -0.2724  0.3169
 5747TIP3    H138656   0.599   0.468  16.488  1.8812  0.6192  2.9620
 5747TIP3    H238657   0.657   0.607  16.492 -1.4869  2.2360 -1.3597
 5748TIP3   OH238658   4.595   6.252   4.242  0.2631  0.1161 -0.0335
 5748TIP3    H138659   4.660   6.320   4.259 -0.0368  0.2755  0.5082
 5748TIP3    H238660   4.551   6.241   4.326  1.2175 -1.7068  0.2358
 5749TIP3   OH238661   2.575   0.973   5.755 -0.3045  0.1424 -0.0169
 5749TIP3    H138662   2.637   1.009   5.819  1.6390 -0.6227 -1.4078
 5749TIP3    H238663   2.608   1.003   5.671 -1.3745 -0.9686 -0.8532
 5750TIP3   OH238664   1.217   4.596   1.128 -0.2084 -0.0565 -0.1235
 5750TIP3    H138665   1.271   4.667   1.163  0.3916 -0.9412  0.7721
 5750TIP3    H238666   1.222   4.527   1.194 -1.7008 -0.5082 -0.4492
 5751TIP3   OH238667   5.788   5.505  11.250 -0.1417 -0.2598  0.2715
 5751TIP3    H138668   5.859   5.563  11.223  0.5371 -1.2740 -0.1567
 5751TIP3    H238669   5.818   5.465  11.332 -1.2886  1.1928  1.4302
 5752TIP3   OH238670   3.538   0.209  13.908 -0.5005  0.5673 -0.2167
 5752TIP3    H138671   3.599   0.238  13.976 -0.0912  0.1689 -0.4149
 5752TIP3    H238672   3.519   0.118  13.930  0.4440  0.1187 -1.2304
 5753TIP3   OH238673   2.233   3.885   3.127  0.5796 -0.6368 -0.4078
 5753TIP3    H138674   2.249   3.792   3.110  0.4059 -1.1119  1.8283
 5753TIP3    H238675   2.165   3.910   3.065  0.8148 -1.9502 -1.2047
 5754TIP3   OH238676   0.911   1.826   0.319  0.3302  0.1557 -0.3340
 5754TIP3    H138677   0.913   1.870   0.234 -2.7576  1.4258  0.1963
 5754TIP3    H238678   0.984   1.865   0.368  0.3415  1.5056 -1.4057
 5755TIP3   OH238679   5.604   4.008  11.818 -0.2615 -0.3394  0.2576
 5755TIP3    H138680   5.693   4.041  11.833 -0.3591  0.0969 -0.1063
 5755TIP3    H238681   5.604   3.921  11.857 -0.0274  0.1230  1.3068
 5756TIP3   OH238682   5.685   4.090  14.065  0.0301  0.1350  0.1294
 5756TIP3    H138683   5.644   4.176  14.062  0.1601  0.3421  3.3980
 5756TIP3    H238684   5.611   4.029  14.062 -0.2037  0.3984  0.5544
 5757TIP3   OH238685   1.465   6.199  12.336  0.4971 -0.4111  0.3788
 5757TIP3    H138686   1.476   6.165  12.425 -0.9379 -0.3486  0.5941
 5757TIP3    H238687   1.412   6.278  12.348  1.4827  0.3716 -0.3970
 5758TIP3   OH238688   4.855   2.072  15.636 -0.4127  0.3479  0.7254
 5758TIP3    H138689   4.856   2.128  15.714  2.9351  0.7321  0.4584
 5758TIP3    H238690   4.943   2.080  15.599 -1.1297 -1.9203 -1.6174
 5759TIP3   OH238691   0.784   5.277   1.751  0.1404 -0.1739  0.6550
 5759TIP3    H138692   0.695   5.283   1.788 -0.0556  0.9995  0.0022
 5759TIP3    H238693   0.780   5.202   1.692 -0.5651  0.1902  0.2316
 5760TIP3   OH238694   3.720   2.098  11.709  0.0428  0.2424 -0.0938
 5760TIP3    H138695   3.725   2.146  11.791  0.6616  0.2221 -0.1216
 5760TIP3    H238696   3.773   2.148  11.648  0.6924 -0.4762 -0.1191
 5761TIP3   OH238697   2.155   2.738   2.002  0.1027 -0.2157  0.6443
 5761TIP3    H138698   2.117   2.693   1.927 -3.0476  2.5438  0.4809
 5761TIP3    H238699   2.087   2.736   2.069  2.0021 -0.5660  2.6276
 5762TIP3   OH238700   5.085   3.403  15.078 -0.4787 -0.4057 -0.1827
 5762TIP3    H138701   5.118   3.464  15.143 -3.7198 -0.3672  1.5279
 5762TIP3    H238702   5.083   3.319  15.123  0.0326 -0.9889 -1.2157
 5763TIP3   OH238703   2.869   1.882  13.317 -0.0357  0.5262  0.6157
 5763TIP3    H138704   2.865   1.849  13.407  0.1991  0.6309  0.6653
 5763TIP3    H238705   2.962   1.880  13.295 -0.0882  0.5425  0.3901
 5764TIP3   OH238706   6.528   5.349   3.548  0.1211 -0.2245  0.2299
 5764TIP3    H138707   6.482   5.406   3.610 -0.4549 -1.5180  1.0120
 5764TIP3    H238708   6.517   5.261   3.583 -0.1386 -0.9831 -1.6564
 5765TIP3   OH238709   4.166   1.985   5.866  0.5987  0.2446 -0.2401
 5765TIP3    H138710   4.178   1.906   5.814 -1.7329 -1.8402  2.2474
 5765TIP3    H238711   4.083   2.023   5.834 -0.9457 -1.1505  1.9799
 5766TIP3   OH238712   2.897   3.765  13.683  0.4396 -0.0398  0.0583
 5766TIP3    H138713   2.901   3.825  13.757  1.4191 -0.7194  0.5810
 5766TIP3    H238714   2.955   3.803  13.617  0.5022 -0.0367  0.1154
 5767TIP3   OH238715   1.885   6.324  16.146  0.0135 -0.0927 -0.1272
 5767TIP3    H138716   1.963   6.356  16.191  0.0313 -0.2733 -0.0303
 5767TIP3    H238717   1.841   6.404  16.115  0.4547 -0.0099 -0.5541
 5768TIP3   OH238718   0.414   1.706  11.931 -0.2487 -0.6051 -0.0957
 5768TIP3    H138719   0.378   1.641  11.870 -0.1444 -2.0711  1.3564
 5768TIP3    H238720   0.403   1.666  12.017  0.1003  1.1974  0.8043
 5769TIP3   OH238721   1.889   2.498   0.586 -0.4111  0.3541 -0.2021
 5769TIP3    H138722   1.864   2.564   0.650  0.1209  0.8214 -0.4783
 5769TIP3    H238723   1.824   2.504   0.517 -1.3916 -0.6207  0.6131
 5770TIP3   OH238724   5.945   1.182  13.815 -0.2594 -0.6473 -0.2718
 5770TIP3    H138725   6.040   1.172  13.820 -0.0902  0.7087 -0.5918
 5770TIP3    H238726   5.918   1.202  13.904 -0.1154  0.0518 -0.3875
 5771TIP3   OH238727   2.368   4.302   5.912 -0.0185 -0.8974  0.7732
 5771TIP3    H138728   2.332   4.255   5.836  0.1378  2.7909 -1.7344
 5771TIP3    H238729   2.291   4.336   5.958 -0.0128  0.7685 -0.4087
 5772TIP3   OH238730   4.302   4.410   3.271 -0.3331 -0.2468 -0.4069
 5772TIP3    H138731   4.381   4.363   3.244 -1.0121 -2.5809  1.4777
 5772TIP3    H238732   4.273   4.365   3.350 -3.2144  0.9291 -0.7187
 5773TIP3   OH238733   5.729   0.757  13.351  0.2326 -0.0402 -0.3316
 5773TIP3    H138734   5.662   0.800  13.299  0.3707 -0.1089 -0.5668
 5773TIP3    H238735   5.716   0.791  13.440  1.2718  1.6418 -0.7936
 5774TIP3   OH238736   6.631   6.345   4.623  0.0006  0.5375 -0.0503
 5774TIP3    H138737   6.576   6.324   4.548  1.5727  1.6043 -1.5484
 5774TIP3    H238738   6.711   6.295   4.609  0.2352  0.5987  1.0092
 5775TIP3   OH238739   4.325   3.071   3.167  0.1085  0.0091 -0.2774
 5775TIP3    H138740   4.397   3.010   3.151 -1.3302 -1.7842 -0.0003
 5775TIP3    H238741   4.348   3.114   3.249  0.8415 -0.6012 -0.1618
 5776TIP3   OH238742   0.775   3.007  10.718 -0.5086  0.4654  0.2306
 5776TIP3    H138743   0.746   2.916  10.714  0.0969  0.3024 -0.4831
 5776TIP3    H238744   0.771   3.037  10.628 -1.2373  1.3235  0.5404
 5777TIP3   OH238745   2.204   2.882  13.944 -0.3438 -0.2159  0.4364
 5777TIP3    H138746   2.188   2.930  14.026  1.5197  2.7588 -0.8403
 5777TIP3    H238747   2.120   2.884  13.899 -1.2051 -1.2566  1.9317
 5778TIP3   OH238748   2.237   1.460  15.856 -0.4652  0.2187 -0.0650
 5778TIP3    H138749   2.285   1.418  15.928 -0.6047 -0.4707 -0.3692
 5778TIP3    H238750   2.250   1.553  15.870  0.5383  0.0540  0.1618
 5779TIP3   OH238751   0.279   3.370  13.970  0.7082  0.4139  0.1719
 5779TIP3    H138752   0.215   3.299  13.962  0.6933  0.4208  0.2311
 5779TIP3    H238753   0.237   3.445  13.929  0.8524  0.3042 -0.1827
 5780TIP3   OH238754   5.005   2.952  12.721 -0.0073  0.2330  0.0247
 5780TIP3    H138755   4.921   2.995  12.709 -0.7256 -0.8776  1.0000
 5780TIP3    H238756   5.063   2.994  12.658 -1.5459  0.3133 -1.3474
 5781TIP3   OH238757   5.653   4.304  11.257 -0.1050 -0.2965  0.0507
 5781TIP3    H138758   5.566   4.286  11.293  0.6762 -0.3519  2.0204
 5781TIP3    H238759   5.707   4.232  11.289  1.2646  1.1899  1.2294
 5782TIP3   OH238760   0.208   1.708   1.122 -0.4813  0.5028 -0.1694
 5782TIP3    H138761   0.156   1.633   1.094  0.4683 -1.2571  2.5456
 5782TIP3    H238762   0.155   1.752   1.188 -0.4255  1.4068 -0.7064
 5783TIP3   OH238763   3.190   1.263  12.520 -0.0798  0.8553 -0.7973
 5783TIP3    H138764   3.111   1.243  12.571  1.3624 -0.2442  1.0775
 5783TIP3    H238765   3.223   1.344  12.558  0.4185  0.5914 -0.6521
 5784TIP3   OH238766   0.328   4.080  14.587  0.4858  0.4161 -0.2896
 5784TIP3    H138767   0.418   4.113  14.588 -0.3376  2.7767  1.7271
 5784TIP3    H238768   0.285   4.131  14.517  0.1579  0.9666  0.3036
 5785TIP3   OH238769   6.260   1.746  11.275  0.1901 -0.2071  0.8421
 5785TIP3    H138770   6.289   1.836  11.292 -0.7133  0.0595  0.9765
 5785TIP3    H238771   6.165   1.751  11.275  0.1278 -1.2988  1.5409
 5786TIP3   OH238772   5.057   5.090   0.718 -0.1780 -0.2363  0.0155
 5786TIP3    H138773   5.086   5.137   0.797 -1.0427 -1.6839  1.2330
 5786TIP3    H238774   5.065   5.154   0.648 -1.3110  1.7566  1.6260
 5787TIP3   OH238775   0.555   4.534   0.036  0.3809 -0.1455 -0.8200
 5787TIP3    H138776   0.639   4.519  -0.006  0.8625 -1.6405  0.6223
 5787TIP3    H238777   0.492   4.536  -0.037  1.2712 -2.1146 -1.6991
 5788TIP3   OH238778   4.058   0.848   2.743 -0.0617  0.0014  0.6422
 5788TIP3    H138779   4.128   0.894   2.697  0.0412 -0.4194  0.3731
 5788TIP3    H238780   3.999   0.819   2.674 -0.9652  1.1070  0.9350
 5789TIP3   OH238781   1.452   5.608  11.396 -0.4272  0.1143 -0.8104
 5789TIP3    H138782   1.364   5.613  11.434  0.2185 -0.8670  0.8464
 5789TIP3    H238783   1.450   5.527  11.345 -0.3605 -0.1022 -0.4677
 5790TIP3   OH238784   6.262   5.271  10.462  0.2892 -0.0655  0.1941
 5790TIP3    H138785   6.204   5.313  10.399  0.0233 -0.9250 -0.1367
 5790TIP3    H238786   6.205   5.213  10.513  0.5528  0.3984  1.0335
 5791TIP3   OH238787   1.395   1.960   5.539  0.2814  0.7326  0.1334
 5791TIP3    H138788   1.359   2.041   5.504 -1.2247 -0.1152 -0.3604
 5791TIP3    H238789   1.346   1.945   5.620 -0.7520 -0.6209 -0.7247
 5792TIP3   OH238790   3.284   5.730  15.778  0.2196 -0.1989  0.9668
 5792TIP3    H138791   3.256   5.821  15.765 -2.5150 -1.4100 -2.4864
 5792TIP3    H238792   3.243   5.704  15.861 -1.6660  0.7971  0.3823
 5793TIP3   OH238793   6.307   3.956  14.466 -0.1403  0.5820  0.6796
 5793TIP3    H138794   6.286   3.920  14.552 -2.4819  1.0961  0.3597
 5793TIP3    H238795   6.281   3.887  14.404  0.5814  0.6115  0.3452
 5794TIP3   OH238796   0.002   1.943   2.448  0.0637 -0.2871  0.1998
 5794TIP3    H138797  -0.083   1.988   2.446  0.3508  0.2436 -0.0636
 5794TIP3    H238798   0.003   1.900   2.533  0.1514  0.9248  0.8262
 5795TIP3   OH238799   6.734   0.054  14.972 -0.2741 -1.0388 -0.5608
 5795TIP3    H138800   6.828   0.064  14.987  0.0611 -2.9859 -1.2805
 5795TIP3    H238801   6.694   0.116  15.033  1.4760  0.2539 -0.6740
 5796TIP3   OH238802   6.262   3.921   1.200 -0.1870 -0.0496  0.0743
 5796TIP3    H138803   6.290   3.944   1.289  0.1840  0.3081 -0.1355
 5796TIP3    H238804   6.169   3.900   1.210  0.2801 -1.8529  0.8860
 5797TIP3   OH238805   1.236   2.104   4.408 -0.0235  0.8842 -0.4366
 5797TIP3    H138806   1.230   2.179   4.350 -0.4371  1.2652  0.0908
 5797TIP3    H238807   1.145   2.083   4.431  0.1034  0.4078 -0.3534
 5798TIP3   OH238808   3.149   6.230   5.627  0.0454 -0.7195  0.2359
 5798TIP3    H138809   3.238   6.252   5.656  0.0593 -0.0055 -0.3149
 5798TIP3    H238810   3.101   6.312   5.634  0.2032 -0.3608 -2.2617
 5799TIP3   OH238811   5.695   2.020  14.604 -0.2947 -0.3578  0.0623
 5799TIP3    H138812   5.657   2.059  14.526 -1.7294 -1.3542  0.2335
 5799TIP3    H238813   5.709   2.094  14.664  0.6115  0.3719 -1.0381
 5800TIP3   OH238814   2.799   3.305   5.759  0.1912  0.5441  0.2167
 5800TIP3    H138815   2.752   3.353   5.827 -2.1974 -2.0262  0.4430
 5800TIP3    H238816   2.826   3.224   5.801  0.0482 -0.4000 -1.4773
 5801TIP3   OH238817   6.243   4.274  15.918 -0.5068  0.4598 -0.6245
 5801TIP3    H138818   6.301   4.347  15.938  0.4368 -0.3437 -0.3870
 5801TIP3    H238819   6.206   4.296  15.832 -0.0455  1.1043 -0.6630
 5802TIP3   OH238820   6.591   2.281   3.118  0.9485 -0.4598  0.1329
 5802TIP3    H138821   6.680   2.314   3.124  0.8163  0.1375 -1.1827
 5802TIP3    H238822   6.598   2.189   3.144  1.9737 -0.4663 -0.1627
 5803TIP3   OH238823   0.387   4.607   1.697  0.0459 -0.3039 -0.7181
 5803TIP3    H138824   0.323   4.666   1.658  1.1354  1.5910  0.2587
 5803TIP3    H238825   0.470   4.654   1.689  0.3922 -0.0366  3.3738
 5804TIP3   OH238826   5.056   6.381  15.456 -0.1447  0.1828 -0.5481
 5804TIP3    H138827   5.131   6.441  15.455  0.2447 -0.2423  1.3702
 5804TIP3    H238828   5.028   6.379  15.547 -1.4543 -0.9748 -0.9534
 5805TIP3   OH238829   3.041   5.862  13.206 -0.2767  0.2332  0.1832
 5805TIP3    H138830   3.037   5.954  13.233  0.9998  0.7562 -1.3148
 5805TIP3    H238831   3.055   5.866  13.111  0.7039 -1.4982  0.2393
 5806TIP3   OH238832   1.172   5.412  17.235  0.3888  0.2216  0.2706
 5806TIP3    H138833   1.179   5.398  17.329 -1.7440  0.6110  0.5120
 5806TIP3    H238834   1.227   5.489  17.218  1.6255 -0.4764  0.9938
 5807TIP3   OH238835   5.760   4.469  14.555  0.0266 -0.3146 -0.6243
 5807TIP3    H138836   5.854   4.482  14.567 -0.3777  1.3126  0.9404
 5807TIP3    H238837   5.744   4.378  14.580  0.9030 -0.0526  0.9054
 5808TIP3   OH238838   3.354   2.859   0.143 -0.0309  0.4875 -0.0699
 5808TIP3    H138839   3.444   2.893   0.149  0.4210 -0.5745 -0.7268
 5808TIP3    H238840   3.308   2.924   0.090  0.6649  0.4197 -0.7708
 5809TIP3   OH238841   1.989   1.530  15.726  0.1568 -0.2652  0.5071
 5809TIP3    H138842   2.050   1.491  15.788 -0.8844 -1.3308  0.8827
 5809TIP3    H238843   1.988   1.623  15.749 -0.1140 -0.6198  2.0142
 5810TIP3   OH238844   0.953   4.488  15.697 -0.1630 -0.4464 -0.3745
 5810TIP3    H138845   0.888   4.469  15.629 -0.4804 -1.4987  0.2190
 5810TIP3    H238846   1.037   4.473  15.654 -0.3910 -4.4961  0.3904
 5811TIP3   OH238847   0.561   3.921  16.536 -0.4310  0.4555 -0.5831
 5811TIP3    H138848   0.473   3.884  16.529 -0.3901  0.3039 -0.3037
 5811TIP3    H238849   0.578   3.958  16.449  0.3595 -2.0412 -1.5259
 5812TIP3   OH238850   1.996   2.558   1.301  0.5213 -0.0258  0.3484
 5812TIP3    H138851   2.067   2.511   1.255  0.6352  0.7196 -0.2371
 5812TIP3    H238852   1.923   2.496   1.300 -0.0025  0.5803 -2.2823
 5813TIP3   OH238853   1.507   6.620  15.553  0.2507 -0.1819 -0.5193
 5813TIP3    H138854   1.565   6.552  15.587 -0.1580 -0.2697  0.0065
 5813TIP3    H238855   1.535   6.632  15.462 -0.9586 -2.4159 -1.2072
 5814TIP3   OH238856   4.189   4.757   4.453  0.0570  0.2612 -0.2895
 5814TIP3    H138857   4.129   4.823   4.418  1.8951  0.8757 -2.3735
 5814TIP3    H238858   4.142   4.719   4.527 -2.3039  1.7348 -0.9825
 5815TIP3   OH238859   1.737   1.925   1.674  0.1132  0.1112  0.1249
 5815TIP3    H138860   1.805   1.990   1.659  0.6010 -0.0560  1.4956
 5815TIP3    H238861   1.666   1.951   1.615  1.1762  0.5419 -0.9941
 5816TIP3   OH238862   2.232   5.809   4.681 -0.3544  0.3018  0.2730
 5816TIP3    H138863   2.319   5.781   4.707 -1.6947 -2.3026  2.2892
 5816TIP3    H238864   2.229   5.793   4.586  0.9841 -0.6341  0.3759
 5817TIP3   OH238865   6.027   3.219   2.704  0.6602 -0.3966 -0.5070
 5817TIP3    H138866   6.086   3.143   2.711 -0.2911 -0.9280  2.1143
 5817TIP3    H238867   5.956   3.188   2.647  2.2791 -0.1014 -2.7908
 5818TIP3   OH238868   6.124   1.345  17.094 -0.1648 -0.2804 -0.3084
 5818TIP3    H138869   6.210   1.304  17.081  0.2662  1.1614 -2.2223
 5818TIP3    H238870   6.118   1.358  17.188  1.1221 -1.6281 -0.0141
 5819TIP3   OH238871   2.867   6.370   3.986 -0.1478 -0.6802  0.2743
 5819TIP3    H138872   2.830   6.313   4.053 -1.0609 -0.3462  0.0604
 5819TIP3    H238873   2.856   6.321   3.904  1.7619 -1.4753  0.4494
 5820TIP3   OH238874   4.243   0.341  11.054 -0.5934 -0.4588 -0.0276
 5820TIP3    H138875   4.296   0.332  10.974 -0.4440  0.7690 -0.0659
 5820TIP3    H238876   4.271   0.267  11.109  1.5302  0.4419  0.1619
 5821TIP3   OH238877   1.269   5.335   5.049 -0.6329 -0.3976  0.2364
 5821TIP3    H138878   1.188   5.289   5.067  0.3187 -1.7846  1.0710
 5821TIP3    H238879   1.336   5.267   5.049  0.4429  0.6357 -1.1005
 5822TIP3   OH238880   1.527   6.624   4.804  0.7672 -0.4346 -0.4217
 5822TIP3    H138881   1.605   6.585   4.844  0.0265 -1.2655  0.2219
 5822TIP3    H238882   1.461   6.623   4.873 -0.0514 -0.4468 -1.1914
 5823TIP3   OH238883   6.406   0.677  10.479 -0.0903 -0.4994  0.1530
 5823TIP3    H138884   6.398   0.769  10.454 -2.1973 -0.7151 -0.0565
 5823TIP3    H238885   6.383   0.675  10.572 -0.7019 -0.8962 -0.0018
 5824TIP3   OH238886   3.702   1.927  11.134  0.0815  0.1016 -0.0484
 5824TIP3    H138887   3.735   1.998  11.080 -1.0760 -1.5562 -3.0069
 5824TIP3    H238888   3.608   1.926  11.118  0.2059 -2.6989 -0.7926
 5825TIP3   OH238889   0.163   0.444  17.196  0.2268  0.7433  0.6073
 5825TIP3    H138890   0.224   0.472  17.264  0.4252  0.3475  0.5938
 5825TIP3    H238891   0.197   0.485  17.116  1.9155 -1.4529  0.1490
 5826TIP3   OH238892   6.785   5.136  13.231 -0.1625 -0.4702 -0.1035
 5826TIP3    H138893   6.784   5.210  13.170  0.6815 -0.9229 -0.6741
 5826TIP3    H238894   6.874   5.101  13.226 -0.4741 -1.3620  0.3595
 5827TIP3   OH238895   0.137   2.069   3.469  0.0483  0.3592 -0.0539
 5827TIP3    H138896   0.146   2.164   3.481  0.4648  0.3578 -0.3541
 5827TIP3    H238897   0.091   2.040   3.548 -0.2776  0.8413 -0.0605
 5828TIP3   OH238898   5.311   0.228  16.447  0.1963 -0.3104  0.2492
 5828TIP3    H138899   5.373   0.218  16.520  1.5176 -0.5163 -0.8747
 5828TIP3    H238900   5.360   0.277  16.381 -1.0727  0.0850 -0.4116
 5829TIP3   OH238901   4.431   6.676  12.466  0.2835  0.5918  0.5633
 5829TIP3    H138902   4.356   6.620  12.446  0.6057  0.5009 -0.4363
 5829TIP3    H238903   4.398   6.765  12.459  0.0168  0.5467  1.1702
 5830TIP3   OH238904   5.839   3.548   0.508 -0.5474 -0.1490  0.0074
 5830TIP3    H138905   5.767   3.485   0.500 -1.5688  0.8431  1.1626
 5830TIP3    H238906   5.811   3.624   0.457  1.3699 -1.1844 -2.6765
 5831TIP3   OH238907   6.437   1.418  16.914 -0.3659 -0.1985  0.6522
 5831TIP3    H138908   6.417   1.383  16.827  1.2761 -1.6086  0.7978
 5831TIP3    H238909   6.402   1.353  16.975  0.6105 -0.4286  0.9799
 5832TIP3   OH238910   0.144   4.015  11.402 -0.5027  1.0165 -0.0867
 5832TIP3    H138911   0.201   4.064  11.343 -0.9195  0.1461 -1.2298
 5832TIP3    H238912   0.107   4.081  11.460 -1.2030  2.0890 -1.7322
 5833TIP3   OH238913   4.702   4.173  13.608  0.2955 -0.2380  0.0482
 5833TIP3    H138914   4.660   4.154  13.524  1.5266 -1.0164 -0.4055
 5833TIP3    H238915   4.642   4.234  13.652 -0.4056  0.0867 -1.3403
 5834TIP3   OH238916   3.483   4.538   5.143 -0.3208  0.4519  0.7648
 5834TIP3    H138917   3.464   4.554   5.236 -0.5928  3.1806  0.2871
 5834TIP3    H238918   3.539   4.611   5.117 -1.1998  0.3632 -1.5016
 5835TIP3   OH238919   0.385   6.021   1.107 -0.0194 -0.0420 -0.3079
 5835TIP3    H138920   0.306   6.072   1.128 -1.5051 -1.7273 -1.6894
 5835TIP3    H238921   0.432   6.075   1.043 -0.3761  0.6674  0.0257
 5836TIP3   OH238922   3.940   6.423  16.879  0.3899  0.4145 -0.3456
 5836TIP3    H138923   3.976   6.351  16.931  0.9583  0.4332 -0.7078
 5836TIP3    H238924   4.016   6.477  16.858 -0.0220  1.0616 -0.1667
 5837TIP3   OH238925   5.217   1.203  14.751  0.3384  0.3976  0.2242
 5837TIP3    H138926   5.152   1.140  14.720  0.1163 -1.1154  3.6081
 5837TIP3    H238927   5.300   1.157  14.747  0.3989  0.4082  1.2028
 5838TIP3   OH238928   3.801   4.561  15.197  0.4210  0.0028 -0.2118
 5838TIP3    H138929   3.776   4.469  15.186 -1.0406  0.6998 -3.2959
 5838TIP3    H238930   3.897   4.561  15.193  0.3648 -1.1919 -2.2632
 5839TIP3   OH238931   3.082   0.270  14.550 -0.5141 -0.1549  0.3404
 5839TIP3    H138932   3.004   0.256  14.497 -0.6053 -1.0985  0.7117
 5839TIP3    H238933   3.049   0.304  14.633 -0.4050  0.9167 -0.0509
 5840TIP3   OH238934   2.380   1.715  10.686 -0.3245 -0.0020 -0.0724
 5840TIP3    H138935   2.396   1.652  10.757 -1.4845 -0.8899 -0.5719
 5840TIP3    H238936   2.324   1.781  10.725 -1.1532 -0.6134 -0.2173
 5841TIP3   OH238937   4.485   4.323   4.821  0.1097  0.0289 -0.4943
 5841TIP3    H138938   4.561   4.282   4.778  0.7341 -2.7430  3.0524
 5841TIP3    H238939   4.523   4.384   4.885 -0.5754 -1.6699  1.5854
 5842TIP3   OH238940   5.798   1.000   3.417  0.1255 -0.0042  0.3439
 5842TIP3    H138941   5.871   1.062   3.411 -0.5494  0.7130 -0.4054
 5842TIP3    H238942   5.820   0.932   3.353  1.6973 -1.4563  2.3071
 5843TIP3   OH238943   0.507   2.553  13.740 -0.2098  0.6482 -0.0305
 5843TIP3    H138944   0.424   2.505  13.745 -0.5900  1.3381  0.2655
 5843TIP3    H238945   0.532   2.567  13.832  0.3879  0.1766 -0.1186
 5844TIP3   OH238946   1.535   5.823  16.250 -0.2164 -0.0037  0.1135
 5844TIP3    H138947   1.503   5.913  16.261 -0.6442 -0.1399  0.0129
 5844TIP3    H238948   1.474   5.770  16.302 -0.3790 -0.3093 -0.3835
 5845TIP3   OH238949   3.729   5.795  12.848  0.1918  0.5009 -0.8966
 5845TIP3    H138950   3.681   5.755  12.776  1.3972  1.1726 -2.0939
 5845TIP3    H238951   3.789   5.727  12.878 -0.2858  0.2326 -0.5458
 5846TIP3   OH238952   2.465   3.106  11.823  0.3193  0.4444  0.1949
 5846TIP3    H138953   2.500   3.091  11.911  1.6270  0.6362 -0.2743
 5846TIP3    H238954   2.543   3.106  11.767 -0.6306 -1.0317 -1.1457
 5847TIP3   OH238955   0.270   2.278   2.994  0.3757 -0.6112 -0.1865
 5847TIP3    H138956   0.217   2.293   3.072  0.9712  1.5321 -0.1563
 5847TIP3    H238957   0.360   2.278   3.027  0.4726 -3.9859 -0.2678
 5848TIP3   OH238958   1.629   3.246   5.085 -0.0037  0.3543 -0.2232
 5848TIP3    H138959   1.626   3.287   4.999  2.6450 -1.2201 -1.1229
 5848TIP3    H238960   1.607   3.316   5.146  1.2525  2.2790 -1.9450
 5849TIP3   OH238961   3.410   4.558  16.972  0.3046 -0.3559 -0.3121
 5849TIP3    H138962   3.485   4.617  16.977  0.5886 -0.9098  2.9872
 5849TIP3    H238963   3.444   4.475  17.006 -1.2225 -1.2083 -0.8736
 5850TIP3   OH238964   0.745   2.368   4.250  0.3036  0.2342 -0.3465
 5850TIP3    H138965   0.675   2.303   4.250  0.0517  0.4885 -1.3334
 5850TIP3    H238966   0.807   2.336   4.184 -0.5122  1.7061 -1.8663
 5851TIP3   OH238967   3.426   5.277   0.962 -0.3134 -0.0944 -0.4347
 5851TIP3    H138968   3.516   5.309   0.968  0.0381 -1.0487 -0.5980
 5851TIP3    H238969   3.400   5.296   0.872 -0.1415 -0.1737 -0.5010
 5852TIP3   OH238970   4.885   4.925  14.764  0.6111  0.2223  0.6571
 5852TIP3    H138971   4.888   4.967  14.678 -1.0695 -0.5793  0.2051
 5852TIP3    H238972   4.910   4.834  14.747 -1.6323 -0.4197  0.6994
 5853TIP3   OH238973   1.329   1.903  13.679 -0.2967  0.2358  0.0869
 5853TIP3    H138974   1.303   1.869  13.593  0.2992 -1.2425  0.4711
 5853TIP3    H238975   1.395   1.968  13.659  0.5012 -0.7455 -0.5443
 5854TIP3   OH238976   2.014   5.825  13.193 -0.0804 -0.5449  0.6352
 5854TIP3    H138977   2.064   5.906  13.183 -0.0736 -0.8704 -2.2710
 5854TIP3    H238978   2.071   5.767  13.243  2.1545 -0.6291 -1.9152
 5855TIP3   OH238979   0.608   6.466  11.351  0.0318 -0.0565  0.0352
 5855TIP3    H138980   0.539   6.405  11.322  1.4199 -1.0934 -1.1639
 5855TIP3    H238981   0.609   6.457  11.446 -1.8816  0.3993  0.1091
 5856TIP3   OH238982   6.178   5.783   2.648  0.0338  0.4908 -0.3411
 5856TIP3    H138983   6.222   5.786   2.733 -2.1953  2.2762  0.8138
 5856TIP3    H238984   6.249   5.786   2.584  1.6940  0.4169  1.4466
 5857TIP3   OH238985   2.748   0.012   4.811  0.1878  0.0354 -0.0373
 5857TIP3    H138986   2.668  -0.001   4.761 -0.5553  1.2748  0.8144
 5857TIP3    H238987   2.815  -0.035   4.761 -1.2412 -1.9095 -0.2028
 5858TIP3   OH238988   2.173   5.098  11.985  0.3764 -0.4755 -0.0443
 5858TIP3    H138989   2.149   5.130  12.072  0.9527 -1.9524  0.6809
 5858TIP3    H238990   2.156   5.004  11.988  0.7430 -0.6002 -1.4089
 5859TIP3   OH238991   0.993   3.705  13.746  0.2141  0.0513 -0.8335
 5859TIP3    H138992   1.019   3.727  13.656  2.8121  2.4300  0.4697
 5859TIP3    H238993   0.910   3.751  13.758  0.5564  0.8784 -1.5460
 5860TIP3   OH238994   0.984   6.335  11.115  0.4211 -0.3604  0.0214
 5860TIP3    H138995   1.015   6.264  11.058 -1.0252 -0.7468 -0.3195
 5860TIP3    H238996   0.977   6.411  11.057 -0.0151 -0.4774 -0.0826
 5861TIP3   OH238997   1.836   5.503   0.078  0.2230  0.4520 -0.1712
 5861TIP3    H138998   1.822   5.560   0.153 -1.9831  1.1851 -1.1186
 5861TIP3    H238999   1.836   5.415   0.114  3.0390  0.9727  1.2165
 5862TIP3   OH239000   2.216   3.364  12.167 -0.0221  0.1011  0.9399
 5862TIP3    H139001   2.261   3.435  12.122 -0.4853 -0.7457 -0.8772
 5862TIP3    H239002   2.149   3.409  12.219 -0.3623  1.0002 -0.2498
 5863TIP3   OH239003   0.899   5.198  13.236  0.3306  0.1432 -0.1663
 5863TIP3    H139004   0.860   5.271  13.188  1.3406  1.2114  0.5924
 5863TIP3    H239005   0.935   5.238  13.315 -1.6000 -1.6281  1.6866
 5864TIP3   OH239006   2.193   5.856  14.033 -0.3691 -0.0771  0.5375
 5864TIP3    H139007   2.115   5.904  14.061  0.4056  0.5570  1.6340
 5864TIP3    H239008   2.159   5.781  13.984 -1.6905 -0.2531  1.7123
 5865TIP3   OH239009   1.737   3.815   0.956  0.5399 -0.4165  0.6919
 5865TIP3    H139010   1.728   3.814   0.861 -0.0931  2.0827  0.6724
 5865TIP3    H239011   1.653   3.785   0.989 -0.2590  1.4495  0.4324
 5866TIP3   OH239012   4.190   2.305  10.992  0.8978  0.2070  0.1243
 5866TIP3    H139013   4.130   2.360  11.042  1.7027 -1.0677  2.5446
 5866TIP3    H239014   4.277   2.343  11.007  1.4953 -1.7930  2.0150
 5867TIP3   OH239015   6.549   4.186   4.285  0.0960  0.0940 -0.5424
 5867TIP3    H139016   6.580   4.138   4.208 -0.9217 -1.7266  0.1589
 5867TIP3    H239017   6.522   4.118   4.347  0.5017  1.5309  1.2704
 5868TIP3   OH239018   6.659   1.949  17.114 -0.4703 -0.3891  0.2704
 5868TIP3    H139019   6.663   1.940  17.209 -1.3385 -1.5321  0.2139
 5868TIP3    H239020   6.603   2.026  17.100  0.5673  0.4435  0.6946
 5869TIP3   OH239021   0.943   3.081   5.078 -0.2608  0.1753 -0.0549
 5869TIP3    H139022   1.011   3.063   5.013 -1.9429  0.3211 -1.9304
 5869TIP3    H239023   0.871   3.119   5.027 -1.3633  0.9843  2.0218
 5870TIP3   OH239024   5.491   3.328   3.999 -0.0917 -0.6321  0.1634
 5870TIP3    H139025   5.399   3.354   4.005 -0.3664 -1.2617 -1.0056
 5870TIP3    H239026   5.499   3.254   4.060 -0.4890 -0.9006 -0.1081
 5871TIP3   OH239027   5.077   0.592   4.421 -0.4167  0.0271  0.2934
 5871TIP3    H139028   4.984   0.610   4.431 -0.8579 -1.8225 -0.2010
 5871TIP3    H239029   5.080   0.517   4.362  1.3255 -0.7942  1.3911
 5872TIP3   OH239030   6.483   1.240   2.232 -0.1500  0.0778  0.3431
 5872TIP3    H139031   6.531   1.280   2.304  0.0656 -0.3609  0.4421
 5872TIP3    H239032   6.543   1.176   2.195 -0.7488 -0.6785  0.6523
 5873TIP3   OH239033   3.076   3.609   4.358 -0.0992  0.4614 -0.0865
 5873TIP3    H139034   3.061   3.621   4.264 -1.3290  1.4349  0.2271
 5873TIP3    H239035   3.115   3.521   4.365  3.4155  1.7784 -1.8221
 5874TIP3   OH239036   5.054   1.412   3.998 -0.7850  0.1338  0.1534
 5874TIP3    H139037   5.080   1.330   4.038  0.5715  0.3444 -0.2700
 5874TIP3    H239038   5.136   1.454   3.973 -1.5406  0.7169 -1.4188
 5875TIP3   OH239039   6.667   2.034   5.450  0.2075  0.2315  0.7448
 5875TIP3    H139040   6.616   1.980   5.510  1.5934 -0.4061  1.3874
 5875TIP3    H239041   6.693   1.974   5.380  0.4496  0.4461  0.6500
 5876TIP3   OH239042   5.150   5.349   5.704  0.3751 -0.1796  0.5368
 5876TIP3    H139043   5.115   5.424   5.752  0.4352 -0.0617  0.3960
 5876TIP3    H239044   5.077   5.288   5.698 -0.4286  0.9233 -1.5678
 5877TIP3   OH239045   2.944   2.098   3.682 -0.3052  0.4924 -0.3549
 5877TIP3    H139046   2.901   2.149   3.614  0.9839  0.4454 -1.2200
 5877TIP3    H239047   2.895   2.118   3.762 -0.4874  2.2464 -0.8823
 5878TIP3   OH239048   2.365   5.696  10.874 -0.7045 -0.6184 -0.7270
 5878TIP3    H139049   2.412   5.777  10.894 -2.0657  0.3730 -1.4639
 5878TIP3    H239050   2.380   5.681  10.781 -0.2397 -1.3664 -0.5367
 5879TIP3   OH239051   2.502   2.771  13.816 -0.4540 -0.9846  0.0597
 5879TIP3    H139052   2.544   2.743  13.897  1.0056  1.2533  0.1343
 5879TIP3    H239053   2.417   2.806  13.843  0.9617  1.8773  0.9630
 5880TIP3   OH239054   2.776   2.537  15.406  0.3390 -0.4295  0.0203
 5880TIP3    H139055   2.866   2.510  15.424  0.1200 -0.5791  0.8938
 5880TIP3    H239056   2.755   2.496  15.321  0.9254 -0.7966  0.0544
 5881TIP3   OH239057   2.395   5.825  11.344  0.1525 -0.2040  0.0820
 5881TIP3    H139058   2.387   5.762  11.416  0.5947  0.7447  0.9609
 5881TIP3    H239059   2.313   5.814  11.295 -0.3464 -0.5429  0.9731
 5882TIP3   OH239060   6.165   5.160  16.931  0.9188 -0.0036 -0.0590
 5882TIP3    H139061   6.112   5.168  17.010 -2.4712  0.5705 -2.2639
 5882TIP3    H239062   6.153   5.069  16.902  0.3439  0.3814 -1.0757
 5883TIP3   OH239063   3.731   0.052   0.799 -0.9140  0.3230  0.4085
 5883TIP3    H139064   3.779   0.109   0.740 -1.9910 -0.1797 -0.9990
 5883TIP3    H239065   3.656   0.021   0.747 -1.2531 -1.0442  1.6580
 5884TIP3   OH239066   4.103   0.490  15.528 -0.1984 -0.7539  0.1598
 5884TIP3    H139067   4.117   0.396  15.531  0.7393 -0.5764  2.1447
 5884TIP3    H239068   4.069   0.513  15.615  0.2200  0.8360 -0.0692
 5885TIP3   OH239069   5.340   0.100  15.837  0.0404  0.2265 -0.5867
 5885TIP3    H139070   5.285   0.109  15.916  1.4055  2.5114  0.1585
 5885TIP3    H239071   5.405   0.035  15.861  0.2947  0.7217  0.0935
 5886TIP3   OH239072   1.583   2.653   4.528 -0.0747 -0.5587  0.1239
 5886TIP3    H139073   1.561   2.733   4.480  2.0118  1.8970  3.0321
 5886TIP3    H239074   1.642   2.606   4.470 -1.9972 -0.4571 -1.9825
 5887TIP3   OH239075   3.788   2.380   0.129  0.1374  0.2598  0.1209
 5887TIP3    H139076   3.704   2.418   0.156  0.6883 -0.3541  2.8462
 5887TIP3    H239077   3.765   2.295   0.092 -0.4116 -0.3068  1.7059
 5888TIP3   OH239078   5.059   4.076  13.322 -0.2280 -0.0720  0.0500
 5888TIP3    H139079   5.091   4.164  13.341 -0.3299 -0.0876  0.2935
 5888TIP3    H239080   5.105   4.051  13.242 -1.6588  0.9897 -1.1613
 5889TIP3   OH239081   2.603   6.078   4.038 -0.2085 -0.0620 -0.2233
 5889TIP3    H139082   2.580   6.088   3.945  0.5419  0.1744 -0.3879
 5889TIP3    H239083   2.568   6.157   4.080 -0.7028 -0.2514 -0.2712
 5890TIP3   OH239084   2.177   4.301  15.538 -0.0813  0.2168 -0.5457
 5890TIP3    H139085   2.166   4.274  15.629 -0.9086  0.1943 -0.6468
 5890TIP3    H239086   2.127   4.237  15.488  4.1842 -2.5898 -1.4359
 5891TIP3   OH239087   1.738   0.478   5.126 -0.0678 -0.1163 -0.2223
 5891TIP3    H139088   1.688   0.421   5.067  1.1666 -1.1625 -0.2932
 5891TIP3    H239089   1.710   0.452   5.213  0.9660 -1.3327 -0.2267
 5892TIP3   OH239090   3.700   1.315   5.148  0.0352 -0.4203 -0.5788
 5892TIP3    H139091   3.674   1.376   5.079  0.7395 -1.4068 -1.7345
 5892TIP3    H239092   3.755   1.250   5.104  0.0228 -1.3982  0.7952
 5893TIP3   OH239093   0.572   3.592  14.178  0.5114  0.2134 -0.5814
 5893TIP3    H139094   0.609   3.504  14.171 -0.8777 -0.3894 -0.5620
 5893TIP3    H239095   0.481   3.578  14.205  0.3306  1.6662 -0.3734
 5894TIP3   OH239096   1.649   0.425  11.897  0.1008 -0.1097  0.1573
 5894TIP3    H139097   1.669   0.419  11.803  0.9371  0.2210  0.3133
 5894TIP3    H239098   1.729   0.395  11.940  0.5281  1.9281  0.7962
 5895TIP3   OH239099   5.772   5.995  14.406  0.1244  0.0901  0.2193
 5895TIP3    H139100   5.784   6.081  14.448  0.9684 -0.6162  1.4605
 5895TIP3    H239101   5.720   6.014  14.328 -0.1981  1.6539  0.7868
 5896TIP3   OH239102   0.598   5.651   4.428  0.2730  0.4351 -0.4410
 5896TIP3    H139103   0.670   5.615   4.480 -1.8616 -2.9853  0.3075
 5896TIP3    H239104   0.635   5.662   4.340  2.2522  0.6371  0.4014
 5897TIP3   OH239105   5.657   6.343  12.345  0.4387  0.0735 -0.4340
 5897TIP3    H139106   5.731   6.377  12.395  1.5588 -1.4109 -1.0634
 5897TIP3    H239107   5.696   6.302  12.267 -0.9997 -1.1042 -0.5701
 5898TIP3   OH239108   0.498   0.092  13.331 -0.0873 -0.4020  0.3495
 5898TIP3    H139109   0.572   0.044  13.293  0.0102  0.5851 -0.7451
 5898TIP3    H239110   0.428   0.081  13.266 -0.3173  0.2486  0.4941
 5899TIP3   OH239111   3.813   4.896  16.377  0.2418 -0.4896  0.0416
 5899TIP3    H139112   3.847   4.832  16.440  2.2717 -0.0966 -0.6201
 5899TIP3    H239113   3.841   4.863  16.292 -2.4687 -0.9975 -0.7035
 5900TIP3   OH239114   2.102   0.137   2.330 -0.4447 -0.3093 -0.3064
 5900TIP3    H139115   2.171   0.187   2.372  0.5265 -0.5586 -1.5634
 5900TIP3    H239116   2.145   0.055   2.305 -0.9661 -0.1189 -1.8557
 5901TIP3   OH239117   1.795   2.734  13.034  0.2367  0.1002  0.1348
 5901TIP3    H139118   1.724   2.739  13.098  2.1059  0.7822  2.2033
 5901TIP3    H239119   1.834   2.647  13.048  1.8887  1.0140  1.2972
 5902TIP3   OH239120   0.838   5.839   6.323 -0.1702 -0.4871  0.0109
 5902TIP3    H139121   0.869   5.921   6.285 -0.5906 -1.0112 -1.5020
 5902TIP3    H239122   0.897   5.823   6.397 -0.3811  1.4076  0.6163
 5903TIP3   OH239123   0.432   2.188  15.637  0.0373  0.4095 -0.5178
 5903TIP3    H139124   0.363   2.239  15.594 -0.9791 -0.5232 -0.0241
 5903TIP3    H239125   0.511   2.241  15.627 -0.5989  1.1395 -1.7502
 5904TIP3   OH239126   1.777   1.109  15.397 -0.1325  0.0656 -0.2771
 5904TIP3    H139127   1.830   1.034  15.370  0.4015 -0.3096  1.7335
 5904TIP3    H239128   1.839   1.181  15.407 -0.4950  0.5137 -1.2046
 5905TIP3   OH239129   2.564   5.424   2.239 -0.1584 -0.2816  1.0202
 5905TIP3    H139130   2.536   5.470   2.318 -0.1787 -0.4874  1.1304
 5905TIP3    H239131   2.658   5.441   2.233  0.0281 -1.1042  1.6287
 5906TIP3   OH239132   5.934   6.667  14.467 -0.2722 -0.3410 -0.2175
 5906TIP3    H139133   5.877   6.637  14.537  2.3827 -1.6467  1.4613
 5906TIP3    H239134   5.951   6.759  14.487 -0.0766 -0.5229  0.4493
 5907TIP3   OH239135   1.019   6.540  13.996 -0.2215  0.6757  0.0675
 5907TIP3    H139136   1.026   6.477  13.924  1.3264  2.0318 -0.9964
 5907TIP3    H239137   0.925   6.560  14.001 -0.5980 -0.9771 -0.2155
 5908TIP3   OH239138   3.231   5.644   1.224  0.1050 -0.4235  0.8452
 5908TIP3    H139139   3.180   5.614   1.300 -0.1195  0.4747  1.0589
 5908TIP3    H239140   3.174   5.628   1.149  0.5796 -1.9001  0.7982
 5909TIP3   OH239141   3.393   6.496  14.836  0.4795 -0.3468 -0.3651
 5909TIP3    H139142   3.384   6.441  14.758  1.3696  1.5360 -1.8508
 5909TIP3    H239143   3.303   6.505  14.869 -0.0122 -0.5517 -1.6088
 5910TIP3   OH239144   1.900   6.400   1.590  0.2509 -0.0403  0.6337
 5910TIP3    H139145   1.926   6.444   1.509 -1.6824 -1.4869 -0.8008
 5910TIP3    H239146   1.927   6.309   1.578  1.5176  0.0692  2.3585
 5911TIP3   OH239147   2.660   5.541  16.457  0.0142 -0.1614 -0.1196
 5911TIP3    H139148   2.616   5.606  16.512 -1.0628  1.4188 -2.7167
 5911TIP3    H239149   2.592   5.476  16.438 -0.5337  0.9419 -2.0645
 5912TIP3   OH239150   3.445   5.975  15.480 -0.0064 -0.1491 -0.1746
 5912TIP3    H139151   3.489   6.000  15.399  1.0729  2.3366  1.1069
 5912TIP3    H239152   3.354   6.000  15.468 -0.1264 -1.0129 -1.0960
 5913TIP3   OH239153   1.941   5.380   4.251  0.0749 -0.0636 -0.5709
 5913TIP3    H139154   1.953   5.344   4.163  1.7222  0.1235 -0.4328
 5913TIP3    H239155   2.014   5.345   4.301 -0.8432 -0.1511  0.7344
 5914TIP3   OH239156   2.906   1.317  11.681  0.5765  0.0670  0.7859
 5914TIP3    H139157   2.861   1.294  11.761  0.1674  0.2976  0.6261
 5914TIP3    H239158   2.897   1.240  11.625 -0.0388  0.2904  0.5736
 5915TIP3   OH239159   0.674   0.377  12.583  0.5123 -0.4501  0.0023
 5915TIP3    H139160   0.725   0.301  12.611 -0.0015 -1.4273 -1.6040
 5915TIP3    H239161   0.584   0.344  12.577 -0.1011  0.9154  1.5650
 5916TIP3   OH239162   3.044   5.860   3.446  0.3022  0.1042 -0.1809
 5916TIP3    H139163   3.068   5.834   3.536 -1.5639 -0.9708  0.0464
 5916TIP3    H239164   3.020   5.952   3.453  1.7904  0.4818  0.0849
 5917TIP3   OH239165   5.450   5.072  13.901 -0.4992  0.3438 -0.4970
 5917TIP3    H139166   5.443   4.976  13.895 -1.5449  0.3124  0.9031
 5917TIP3    H239167   5.365   5.104  13.871 -0.6568  0.7686  0.4031
 5918TIP3   OH239168   6.231   3.967  15.861 -0.2995 -0.1645  0.0071
 5918TIP3    H139169   6.305   3.911  15.883  0.6236  1.7293  1.9236
 5918TIP3    H239170   6.265   4.056  15.870 -2.5704  0.7198  0.1000
 5919TIP3   OH239171   5.955   0.753  15.995 -1.0049 -0.0434 -0.6334
 5919TIP3    H139172   5.989   0.839  16.019  2.5407 -1.4501 -0.3217
 5919TIP3    H239173   5.996   0.733  15.910 -1.1734 -1.7427 -0.3397
 5920TIP3   OH239174   2.325   4.563  14.338  0.3700  0.4971 -0.0448
 5920TIP3    H139175   2.250   4.622  14.346 -0.2945 -0.5502  1.6911
 5920TIP3    H239176   2.332   4.521  14.424  2.3411 -0.1477 -0.5009
 5921TIP3   OH239177   2.265   6.394   1.565  0.6020  0.0214 -0.4210
 5921TIP3    H139178   2.342   6.359   1.611  1.1536  0.4325 -1.0273
 5921TIP3    H239179   2.270   6.489   1.578  1.4131  0.2502 -2.3287
 5922TIP3   OH239180   0.731   0.508   2.479  0.0026  0.5206 -0.1516
 5922TIP3    H139181   0.745   0.559   2.559  1.2418 -0.7525  0.4772
 5922TIP3    H239182   0.818   0.502   2.439 -0.3870  0.0875 -0.9421
 5923TIP3   OH239183   1.648   6.499  12.386 -0.7589 -0.4317  0.0235
 5923TIP3    H139184   1.562   6.502  12.345 -1.5063  2.1776  1.6958
 5923TIP3    H239185   1.633   6.529  12.476  2.0459  1.0761  0.0404
 5924TIP3   OH239186   5.270   4.866   0.991 -0.3117 -0.3240 -0.1083
 5924TIP3    H139187   5.198   4.917   1.029  0.3558 -0.0584  0.8235
 5924TIP3    H239188   5.296   4.806   1.061  0.1972 -0.5994 -0.5346
 5925TIP3   OH239189   6.778   4.032   1.868  0.1206  0.2470 -0.4119
 5925TIP3    H139190   6.768   4.126   1.855 -1.3170  0.0350 -0.9086
 5925TIP3    H239191   6.737   4.015   1.953  1.2566  0.2136  0.1353
 5926TIP3   OH239192   2.724   5.367  16.800 -0.4802  0.6557  0.7790
 5926TIP3    H139193   2.658   5.368  16.870 -0.4299  0.3218  0.8329
 5926TIP3    H239194   2.804   5.395  16.844 -0.5518  0.9008  0.7530
 5927TIP3   OH239195   1.647   4.472   3.704  0.2486  0.2152 -0.1798
 5927TIP3    H139196   1.588   4.463   3.779 -0.4534 -0.2143 -0.7782
 5927TIP3    H239197   1.702   4.547   3.726  0.4330 -0.2699  1.0221
 5928TIP3   OH239198   4.247   4.545  15.778 -0.3678  0.1354 -0.3366
 5928TIP3    H139199   4.257   4.640  15.786  2.1464 -0.2728  2.1553
 5928TIP3    H239200   4.185   4.521  15.848  1.8376 -0.4520  1.4636
 5929TIP3   OH239201   0.929   2.390   2.999  0.2905 -0.0981  0.3035
 5929TIP3    H139202   0.979   2.433   3.068  1.3915 -1.4147  0.3397
 5929TIP3    H239203   0.995   2.362   2.935 -0.6114  0.1147 -0.7434
 5930TIP3   OH239204   1.389   2.127  16.556  0.4931  0.0541  0.6758
 5930TIP3    H139205   1.464   2.142  16.614 -0.5927 -0.4791  2.2326
 5930TIP3    H239206   1.357   2.041  16.581  0.5686 -0.5866 -1.3634
 5931TIP3   OH239207   4.741   1.317  13.301 -0.1477 -0.3682  0.1084
 5931TIP3    H139208   4.771   1.355  13.384  0.7975 -0.9815  0.0494
 5931TIP3    H239209   4.820   1.280  13.261 -0.5595  0.1029 -1.1681
 5932TIP3   OH239210   6.242   4.700  13.507  0.2512 -0.3876 -0.0333
 5932TIP3    H139211   6.156   4.684  13.547 -0.4635  1.4714 -0.7889
 5932TIP3    H239212   6.240   4.651  13.425 -0.7516  1.0432 -0.8716
 5933TIP3   OH239213   3.902   1.505   1.352 -0.2548 -0.1815 -0.0651
 5933TIP3    H139214   3.973   1.536   1.296 -0.4374 -1.5454 -1.0781
 5933TIP3    H239215   3.822   1.540   1.312 -0.1871  1.3574  1.0760
 5934TIP3   OH239216   0.526   4.406  14.648 -0.1053 -0.5626 -0.0514
 5934TIP3    H139217   0.472   4.339  14.690  0.1301  0.2421  1.5780
 5934TIP3    H239218   0.469   4.482  14.641  0.0982 -0.4516 -0.4867
 5935TIP3   OH239219   4.620   0.058  17.067  0.0399  0.9117  0.1417
 5935TIP3    H139220   4.664   0.111  17.133 -1.1778 -0.1612  1.8547
 5935TIP3    H239221   4.534   0.097  17.058 -0.0549  0.6094 -0.2940
 5936TIP3   OH239222   0.309   2.733   5.694 -0.0187  0.2732 -0.3181
 5936TIP3    H139223   0.350   2.650   5.668 -0.8435  0.1172 -1.1533
 5936TIP3    H239224   0.331   2.743   5.786  1.8314  0.1497 -0.7261
 5937TIP3   OH239225   0.929   1.286   3.716  0.5113  0.1065  0.3342
 5937TIP3    H139226   1.004   1.227   3.724 -0.7751 -1.4778  0.8769
 5937TIP3    H239227   0.858   1.242   3.762 -1.4172  0.5004 -2.1428
 5938TIP3   OH239228   3.709   4.893   4.920 -0.0998 -0.3990  0.2330
 5938TIP3    H139229   3.663   4.914   4.839 -1.6856  1.9934  1.6725
 5938TIP3    H239230   3.794   4.935   4.911 -0.2786 -0.1306 -0.1967
 5939TIP3   OH239231   3.811   0.764  12.967  0.7665  0.5090  0.1753
 5939TIP3    H139232   3.795   0.842  13.021 -1.7633  1.3905 -1.7757
 5939TIP3    H239233   3.786   0.690  13.023 -2.7241  1.4576 -0.0370
 5940TIP3   OH239234   2.935   2.909   4.483  0.1597  0.0315 -0.3311
 5940TIP3    H139235   3.009   2.926   4.541  0.7791 -0.2675 -1.0307
 5940TIP3    H239236   2.958   2.953   4.401 -0.3221 -0.2704 -0.6303
 5941TIP3   OH239237   5.329   2.778  13.343 -0.2618 -0.0568 -0.0208
 5941TIP3    H139238   5.288   2.838  13.405 -0.3647 -1.2567  1.0839
 5941TIP3    H239239   5.368   2.710  13.397  2.6556  0.7101 -1.0916
 5942TIP3   OH239240   2.762   3.432  14.053  0.0722 -0.7997  0.5727
 5942TIP3    H139241   2.746   3.437  13.959 -0.7794  0.2077  0.7595
 5942TIP3    H239242   2.701   3.364  14.084 -1.0960  0.2960  0.6958
 5943TIP3   OH239243   3.841   5.684  12.086  0.0409  0.1358  0.1003
 5943TIP3    H139244   3.873   5.758  12.035 -0.8744  0.2246 -0.3598
 5943TIP3    H239245   3.768   5.719  12.138  0.3481 -0.1721  0.7459
 5944TIP3   OH239246   5.783   3.095   0.028  0.1241 -0.1455 -0.3731
 5944TIP3    H139247   5.835   3.027   0.072  0.4094 -0.5695 -1.3597
 5944TIP3    H239248   5.835   3.121  -0.047  0.0119  1.1828 -0.0039
 5945TIP3   OH239249   4.998   2.112   6.427  0.0401  0.4907 -0.2741
 5945TIP3    H139250   5.016   2.206   6.422  0.5376  0.4792  1.1532
 5945TIP3    H239251   4.947   2.102   6.507  1.2452 -0.6432  0.3674
 5946TIP3   OH239252   2.432   2.294  16.765  0.4444 -0.4667 -0.0162
 5946TIP3    H139253   2.399   2.380  16.737  1.2519 -0.9300 -2.4446
 5946TIP3    H239254   2.367   2.232  16.732  0.3989 -0.8856  0.8516
 5947TIP3   OH239255   2.219   1.251  10.393 -0.1179  0.3319 -0.1287
 5947TIP3    H139256   2.156   1.252  10.464 -1.3985 -1.3817 -1.1871
 5947TIP3    H239257   2.248   1.342  10.385 -1.2377  0.8497  1.4329
 5948TIP3   OH239258   5.419   5.940   2.386  0.2099 -0.8115  0.1828
 5948TIP3    H139259   5.507   5.949   2.424  0.1802 -0.2334  0.1111
 5948TIP3    H239260   5.410   5.845   2.372  1.6294 -0.7108 -1.7085
 5949TIP3   OH239261   0.952   3.005   2.553 -0.3677 -0.1674  0.2801
 5949TIP3    H139262   1.023   3.030   2.611 -0.6303 -0.6324  0.8058
 5949TIP3    H239263   0.995   2.976   2.472  0.1868 -3.3586  1.6673
 5950TIP3   OH239264   0.647   4.495   1.199 -0.0955 -0.8992  0.6868
 5950TIP3    H139265   0.676   4.585   1.190 -1.0078 -0.7286 -0.6836
 5950TIP3    H239266   0.653   4.458   1.111  1.1263 -2.4586  1.3903
 5951TIP3   OH239267   0.849   4.209   0.646 -0.2121  0.2527  0.4341
 5951TIP3    H139268   0.760   4.197   0.681 -0.0481  1.3987  1.2737
 5951TIP3    H239269   0.860   4.137   0.585 -1.3943 -0.4275  0.9960
 5952TIP3   OH239270   3.725   1.115   2.346  0.1204  0.1114  0.2545
 5952TIP3    H139271   3.686   1.194   2.311  2.7823  0.2442 -2.6207
 5952TIP3    H239272   3.671   1.044   2.312 -0.9825  0.5612  1.0530
 5953TIP3   OH239273   6.543   3.969  12.653  0.4441 -0.4149  0.2966
 5953TIP3    H139274   6.461   4.014  12.676 -0.9987 -3.4491  1.2446
 5953TIP3    H239275   6.569   4.009  12.569 -0.6008  2.3821  1.2464
 5954TIP3   OH239276   0.023   5.387  16.408 -0.3361 -0.8237 -0.1895
 5954TIP3    H139277   0.093   5.435  16.365  0.6226 -1.7690  0.2739
 5954TIP3    H239278   0.051   5.295  16.403 -1.1564 -1.1316  0.6961
 5955TIP3   OH239279   5.879   3.402  17.188 -0.4115 -0.2397 -0.0624
 5955TIP3    H139280   5.910   3.436  17.272 -2.1826 -0.5777  0.7561
 5955TIP3    H239281   5.784   3.413  17.191 -0.5192 -0.4966 -1.9273
 5956TIP3   OH239282   3.727   0.096  12.107  0.2565  0.3169 -0.0071
 5956TIP3    H139283   3.632   0.085  12.099  0.3223 -1.0355  1.0217
 5956TIP3    H239284   3.761   0.074  12.020 -0.3952  1.2536 -0.5112
 5957TIP3   OH239285   1.182   4.726  13.899  0.8368  0.2590 -0.3571
 5957TIP3    H139286   1.102   4.697  13.856  1.4066  0.8940 -1.8815
 5957TIP3    H239287   1.236   4.648  13.905  0.7918  0.1857 -0.8925
 5958TIP3   OH239288   4.912   0.598  11.604  0.2001  0.1358 -0.7811
 5958TIP3    H139289   4.952   0.513  11.626  0.8162  0.3143 -1.2010
 5958TIP3    H239290   4.986   0.658  11.599 -0.5141  1.4235  2.8097
 5959TIP3   OH239291   6.601   0.165   1.067 -0.3234 -0.3087 -0.5382
 5959TIP3    H139292   6.568   0.075   1.068 -0.9417 -0.1179  2.4698
 5959TIP3    H239293   6.647   0.174   1.151  0.9623  1.7637 -1.4109
 5960TIP3   OH239294   1.035   0.670  13.664  0.0731  0.1688  0.1215
 5960TIP3    H139295   1.081   0.692  13.746  2.8383 -2.6877 -0.5280
 5960TIP3    H239296   1.056   0.742  13.605 -2.1405  2.3876  1.9203
 5961TIP3   OH239297   5.910   1.049  16.040  0.0121  0.2214 -0.0999
 5961TIP3    H139298   5.842   1.045  15.973 -2.1052  0.2163  1.9455
 5961TIP3    H239299   5.952   1.134  16.026 -0.2808  0.1277 -1.5582
 5962TIP3   OH239300   1.184   2.849   1.290 -0.7764  0.3819 -0.1933
 5962TIP3    H139301   1.266   2.896   1.308 -0.8232  0.5108 -0.3149
 5962TIP3    H239302   1.156   2.816   1.376 -0.9834  0.9735 -0.0281
 5963TIP3   OH239303   3.619   6.134   1.485 -0.0832  0.0453  0.0028
 5963TIP3    H139304   3.643   6.161   1.396 -0.1321  1.7659  0.4863
 5963TIP3    H239305   3.687   6.072   1.510  1.1692  1.2016 -0.4395
 5964TIP3   OH239306   3.012   1.686  11.948 -0.1532 -0.2144  0.1123
 5964TIP3    H139307   2.931   1.642  11.923  0.3001  0.1811 -2.1535
 5964TIP3    H239308   3.082   1.631  11.911  0.6101 -0.4181  1.8292
 5965TIP3   OH239309   3.092   4.762   2.918  0.3184 -0.4024 -0.3924
 5965TIP3    H139310   3.066   4.684   2.869 -1.5526 -1.5471  2.2445
 5965TIP3    H239311   3.041   4.757   2.999  3.0652  1.5141  1.5691
 5966TIP3   OH239312   5.897   6.110   2.758 -0.0517  0.3900 -0.2302
 5966TIP3    H139313   5.991   6.124   2.773  0.3597 -1.8598 -0.5448
 5966TIP3    H239314   5.891   6.020   2.724 -2.0932  1.3102 -2.4444
 5967TIP3   OH239315   5.349   4.180   5.174  0.3699  0.5964  0.0582
 5967TIP3    H139316   5.298   4.104   5.201  0.5899  0.7796  1.0155
 5967TIP3    H239317   5.421   4.144   5.122 -0.3714  0.2880 -0.7738
 5968TIP3   OH239318   4.764   1.151  12.157  0.7732 -0.7011  0.5486
 5968TIP3    H139319   4.834   1.091  12.131 -0.8923 -2.2807 -0.4088
 5968TIP3    H239320   4.685   1.097  12.156 -0.9906  1.8372 -1.6423
 5969TIP3   OH239321   4.521   0.973   4.834  0.0607 -0.5624 -0.3187
 5969TIP3    H139322   4.576   0.967   4.755  0.6941  0.1191  0.0670
 5969TIP3    H239323   4.511   0.882   4.864  0.3106 -0.7641 -0.8426
 5970TIP3   OH239324   4.582   3.232   3.279  0.0780  0.0477 -0.2551
 5970TIP3    H139325   4.635   3.221   3.200 -0.6825  1.8919 -1.0379
 5970TIP3    H239326   4.584   3.146   3.321  1.1254 -0.7453 -1.8767
 5971TIP3   OH239327   1.114   5.236  13.023  0.3360 -0.0663  0.0195
 5971TIP3    H139328   1.178   5.225  13.093  0.6495  0.4276 -0.1890
 5971TIP3    H239329   1.030   5.237  13.067  0.3460 -2.3135  0.1578
 5972TIP3   OH239330   0.703   0.542  15.003  0.2937  0.3230 -0.3132
 5972TIP3    H139331   0.774   0.530  14.941  0.1101 -1.9352 -0.1337
 5972TIP3    H239332   0.634   0.482  14.973 -0.6645  0.8566  0.7725
 5973TIP3   OH239333   6.381   1.911   6.088  0.4606 -0.5590 -0.0335
 5973TIP3    H139334   6.406   1.988   6.038 -1.4767 -0.4601 -0.8995
 5973TIP3    H239335   6.425   1.838   6.043  2.0270 -0.0157  0.5946
 5974TIP3   OH239336   0.739   1.710   0.683  0.2666  0.4825 -0.2492
 5974TIP3    H139337   0.682   1.767   0.631 -1.9669 -0.0229  1.5598
 5974TIP3    H239338   0.797   1.669   0.618 -1.4450  0.9758 -2.1720
 5975TIP3   OH239339   3.470   2.740   2.789  0.1528  0.1158 -0.2492
 5975TIP3    H139340   3.391   2.688   2.782  0.9496 -1.0661 -0.7006
 5975TIP3    H239341   3.467   2.778   2.877 -0.2944 -0.9266  0.1885
 5976TIP3   OH239342   3.955   3.114  13.489 -0.3046  0.2713 -0.2264
 5976TIP3    H139343   3.943   3.207  13.472 -2.1084  0.3253  1.1621
 5976TIP3    H239344   3.868   3.075  13.479  0.4208 -1.2701 -0.7971
 5977TIP3   OH239345   6.061   4.012   5.157 -0.0362 -0.3607  0.1483
 5977TIP3    H139346   6.007   4.089   5.177  0.3755 -0.1682  0.5089
 5977TIP3    H239347   6.050   3.998   5.063 -0.8779 -0.4405  0.2535
 5978TIP3   OH239348   3.299   0.254  13.206  0.0825 -0.1022 -0.2087
 5978TIP3    H139349   3.308   0.273  13.299  0.2640  0.9688 -0.4359
 5978TIP3    H239350   3.239   0.321  13.173 -0.4531 -0.8366 -0.7470
 5979TIP3   OH239351   1.439   5.110  11.943 -0.4447  0.0879  0.0212
 5979TIP3    H139352   1.422   5.173  11.874 -0.5604  1.1048  0.9515
 5979TIP3    H239353   1.533   5.117  11.960 -0.5376  0.3600  0.4452
 5980TIP3   OH239354   3.700   2.639  10.476  0.4668 -0.1000  0.2220
 5980TIP3    H139355   3.772   2.703  10.471  2.1446 -1.8769  0.8684
 5980TIP3    H239356   3.700   2.597  10.390 -1.1548  1.2863 -0.4738
 5981TIP3   OH239357   3.700   1.623  15.683  0.0267  0.3612 -0.0931
 5981TIP3    H139358   3.770   1.575  15.638 -0.2443  0.0760 -0.2089
 5981TIP3    H239359   3.621   1.571  15.667 -0.1993  0.6448  0.1012
 5982TIP3   OH239360   4.669   5.916   4.621 -0.4017 -0.9885 -0.4041
 5982TIP3    H139361   4.632   5.951   4.702  0.6750  0.5341 -0.5524
 5982TIP3    H239362   4.694   5.827   4.643  1.3539 -0.0912  1.4306
 5983TIP3   OH239363   1.228   5.800  13.355  0.0504  0.0446 -0.0404
 5983TIP3    H139364   1.280   5.880  13.355  0.6650 -0.3382 -1.2064
 5983TIP3    H239365   1.139   5.829  13.341  0.1974  0.5707  0.1159
 5984TIP3   OH239366   6.023   1.656  16.319  0.0049  0.3143  0.3600
 5984TIP3    H139367   6.019   1.725  16.386 -0.7760 -1.0636  1.7714
 5984TIP3    H239368   5.941   1.665  16.271  1.3589  2.4877 -1.6730
 5985TIP3   OH239369   2.905   0.606   3.340 -0.0884 -0.9256  0.2813
 5985TIP3    H139370   2.987   0.568   3.307  0.1816  1.3463 -1.7838
 5985TIP3    H239371   2.843   0.597   3.268 -0.1577  1.9593 -0.0991
 5986TIP3   OH239372   0.955   5.614   4.012 -0.2820 -0.0458  0.0587
 5986TIP3    H139373   1.043   5.579   4.026 -0.3949  0.0642  1.0795
 5986TIP3    H239374   0.956   5.649   3.923  0.7728  0.1474  0.1484
 5987TIP3   OH239375   0.585   2.072   2.648 -0.3117 -0.0011  0.9681
 5987TIP3    H139376   0.562   2.127   2.723 -0.0563 -1.3793  2.0787
 5987TIP3    H239377   0.516   2.007   2.644 -2.6568  2.5631 -2.6495
 5988TIP3   OH239378   5.640   4.005  14.722  0.4807  0.4765  0.4791
 5988TIP3    H139379   5.667   4.096  14.707  0.2971  0.2639 -1.2485
 5988TIP3    H239380   5.690   3.978  14.799  0.3051  2.1374  1.2052
 5989TIP3   OH239381   0.206   2.502   4.293 -0.4043 -0.2585 -0.4870
 5989TIP3    H139382   0.132   2.491   4.233  0.6795 -1.0111 -1.6794
 5989TIP3    H239383   0.283   2.482   4.241  0.6287  0.1289  0.8734
 5990TIP3   OH239384   2.441   0.021   0.515  0.4843 -0.0604 -0.4630
 5990TIP3    H139385   2.420   0.108   0.548  2.7971 -0.1540  1.3622
 5990TIP3    H239386   2.377   0.006   0.445  0.5696  3.4178 -1.3739
 5991TIP3   OH239387   4.225   1.819   0.968 -0.8421 -0.3496 -0.0412
 5991TIP3    H139388   4.245   1.803   0.876  0.8929 -0.6864  0.3828
 5991TIP3    H239389   4.179   1.903   0.969  1.3291  0.8680 -0.9632
 5992TIP3   OH239390   6.671   0.120  11.810  0.3493 -0.6263 -0.0613
 5992TIP3    H139391   6.716   0.192  11.765 -0.1611 -1.5339 -2.0563
 5992TIP3    H239392   6.699   0.041  11.763 -0.9258 -1.5106  0.6373
 5993TIP3   OH239393   3.768   1.936  16.711  0.5569 -0.7174 -0.3178
 5993TIP3    H139394   3.813   1.939  16.795  0.6766  0.7207 -0.4139
 5993TIP3    H239395   3.777   1.845  16.681  3.3589 -0.4844 -0.3267
 5994TIP3   OH239396   6.183   4.079  10.840 -0.0678  0.0588 -0.1429
 5994TIP3    H139397   6.167   4.024  10.764  3.3397  1.2701 -1.8437
 5994TIP3    H239398   6.131   4.158  10.825 -0.5809 -0.3371 -0.4589
 5995TIP3   OH239399   2.753   4.053  12.330  0.1847 -0.1670 -0.1055
 5995TIP3    H139400   2.731   4.144  12.351 -1.3658 -0.4518 -0.4444
 5995TIP3    H239401   2.673   4.004  12.348  0.8078 -1.3749 -0.5514
 5996TIP3   OH239402   3.336   0.431  14.266  0.4404  0.3015  0.1899
 5996TIP3    H139403   3.268   0.411  14.201 -0.0390 -1.0578  1.0708
 5996TIP3    H239404   3.351   0.525  14.257  0.6582  0.0841 -2.1396
 5997TIP3   OH239405   4.123   1.030   4.138  0.0786  0.7499  0.2342
 5997TIP3    H139406   4.094   0.939   4.142 -0.2926  0.7336 -1.8910
 5997TIP3    H239407   4.118   1.062   4.228 -1.8614 -0.6937  0.6550
 5998TIP3   OH239408   3.395   1.681  13.638  0.1247  0.2089 -0.6621
 5998TIP3    H139409   3.386   1.618  13.710  0.5066 -2.0911 -2.5694
 5998TIP3    H239410   3.466   1.739  13.666 -0.5071  0.0762  1.3071
 5999TIP3   OH239411   6.514   5.756   3.730 -0.3433  0.1219 -0.4749
 5999TIP3    H139412   6.575   5.830   3.736 -0.9869  0.9030 -2.8975
 5999TIP3    H239413   6.466   5.758   3.813  0.7447  1.4365  0.1468
 6000TIP3   OH239414   4.523   4.774   2.343 -0.6561  0.4301 -0.3050
 6000TIP3    H139415   4.446   4.794   2.397  0.4924  2.8952  0.4767
 6000TIP3    H239416   4.589   4.744   2.406 -0.3529  0.1798 -0.7449
 6001TIP3   OH239417   0.152   4.421  14.644 -0.1317 -0.6073 -0.6570
 6001TIP3    H139418   0.225   4.442  14.585  1.2125  0.2544  1.2500
 6001TIP3    H239419   0.193   4.373  14.716 -1.3744  0.3692  0.7191
 6002TIP3   OH239420   4.922   3.199  11.998 -0.1297 -0.3856 -0.1007
 6002TIP3    H139421   4.935   3.137  12.069  1.3315 -2.0686 -1.7840
 6002TIP3    H239422   4.941   3.284  12.037  0.3115 -1.2388  1.6012
 6003TIP3   OH239423   0.653   3.312  14.423  0.0360 -0.1627 -0.1811
 6003TIP3    H139424   0.670   3.303  14.330 -0.2825  2.8710 -0.5884
 6003TIP3    H239425   0.558   3.327  14.429 -0.0354 -0.9057  0.6785
 6004TIP3   OH239426   0.754   6.096  14.270 -0.1371 -0.8637 -0.5616
 6004TIP3    H139427   0.840   6.125  14.298  0.3324 -1.3697 -1.4702
 6004TIP3    H239428   0.694   6.163  14.303  0.5371 -0.8248  0.5807
 6005TIP3   OH239429   4.727   5.977   3.007 -1.0346  0.2455 -0.4521
 6005TIP3    H139430   4.808   5.963   3.057 -1.1217  0.2945 -0.2950
 6005TIP3    H239431   4.727   5.907   2.942 -0.1097  1.1571 -1.4509
 6006TIP3   OH239432   3.761   2.685  16.601 -0.4457  0.7197  0.5480
 6006TIP3    H139433   3.852   2.670  16.575 -0.5542  1.5467 -0.3492
 6006TIP3    H239434   3.766   2.708  16.694  0.0848 -0.9460  0.9473
 6007TIP3   OH239435   1.898   6.104   1.629 -0.2884  0.0961  0.4039
 6007TIP3    H139436   1.872   6.020   1.590  0.0165  0.0723  0.2509
 6007TIP3    H239437   1.817   6.154   1.634 -0.4964 -0.2605  0.6236
 6008TIP3   OH239438   4.322   2.747   2.094  0.3606 -0.3252 -0.3180
 6008TIP3    H139439   4.291   2.735   2.004  0.5885 -0.8745 -0.3190
 6008TIP3    H239440   4.339   2.841   2.100 -0.8311 -0.0885 -0.4764
 6009TIP3   OH239441   2.442   3.138   2.260 -0.2828 -0.4034  0.4023
 6009TIP3    H139442   2.359   3.177   2.289 -1.6654 -2.3066 -0.7935
 6009TIP3    H239443   2.434   3.134   2.165  1.4305 -0.1176  0.2395
 6010TIP3   OH239444   0.572   4.297  11.832  0.5221 -0.1143  0.8317
 6010TIP3    H139445   0.623   4.283  11.753 -0.3864  1.0491  0.0297
 6010TIP3    H239446   0.591   4.387  11.857 -1.6082  0.5540  0.1653
 6011TIP3   OH239447   4.035   1.314  10.986  0.3636 -0.2993 -0.0335
 6011TIP3    H139448   4.050   1.401  10.950  0.8062 -0.5974 -0.5710
 6011TIP3    H239449   3.979   1.329  11.062 -0.9100  0.3007 -1.0740
 6012TIP3   OH239450   2.869   0.453   4.012  0.4676 -0.1830 -0.2224
 6012TIP3    H139451   2.961   0.437   3.991  0.9180 -1.3031  2.3236
 6012TIP3    H239452   2.843   0.376   4.063 -1.5708  0.6306 -0.0027
 6013TIP3   OH239453   2.277   1.370  12.892 -0.2664  0.1740  0.0356
 6013TIP3    H139454   2.274   1.372  12.988  0.6290 -1.3512  0.1102
 6013TIP3    H239455   2.365   1.401  12.870  0.6878 -2.5635 -0.1486
 6014TIP3   OH239456   5.881   2.232   1.933  0.2668 -0.5672 -1.1795
 6014TIP3    H139457   5.902   2.311   1.883  2.1515 -0.7651 -0.7362
 6014TIP3    H239458   5.861   2.264   2.021 -0.5768 -0.4397 -1.4178
 6015TIP3   OH239459   1.421   0.656   0.295  0.1892  0.3072 -0.4130
 6015TIP3    H139460   1.411   0.703   0.213  0.0003  2.5992  0.8641
 6015TIP3    H239461   1.507   0.684   0.328  0.9471 -1.7710 -0.5466
 6016TIP3   OH239462   3.931   2.257  13.291 -0.1347  0.3424  0.3815
 6016TIP3    H139463   3.981   2.263  13.372  1.6253 -1.0040 -0.5869
 6016TIP3    H239464   3.896   2.168  13.291  0.9730 -0.1091 -0.9474
 6017TIP3   OH239465   2.452   5.836   2.404 -0.6942  0.0063 -0.5684
 6017TIP3    H139466   2.464   5.897   2.477  3.7630  1.6826 -2.5024
 6017TIP3    H239467   2.457   5.749   2.445 -1.0308  0.9060  1.4645
 6018TIP3   OH239468   0.420   3.965  13.806  0.5549 -0.2802  0.0480
 6018TIP3    H139469   0.469   3.895  13.848  0.2377 -0.9204 -0.6329
 6018TIP3    H239470   0.471   3.987  13.728  0.3140 -0.2127 -0.0928
 6019TIP3   OH239471   3.796   1.257   1.492  0.0290  0.8171 -0.3641
 6019TIP3    H139472   3.807   1.328   1.556 -3.1263 -1.2563  2.6486
 6019TIP3    H239473   3.752   1.299   1.417 -1.4913  2.1381  1.2362
 6020TIP3   OH239474   3.928   6.758   4.369  0.3252 -0.3125 -1.0757
 6020TIP3    H139475   3.943   6.668   4.397  0.7652  0.2507  0.5519
 6020TIP3    H239476   3.919   6.807   4.451 -1.5082  0.8606 -1.9532
 6021TIP3   OH239477   3.458   2.516   0.499  0.1164 -0.2008  0.6739
 6021TIP3    H139478   3.486   2.604   0.525 -1.8621  0.1973  1.5670
 6021TIP3    H239479   3.539   2.465   0.497  1.2462  1.5539  0.4825
 6022TIP3   OH239480   1.795   0.492  14.232  0.4095  0.2063  0.9231
 6022TIP3    H139481   1.799   0.491  14.327 -1.0279  0.0089  0.9939
 6022TIP3    H239482   1.712   0.450  14.211  0.9824 -0.2685 -0.4381
 6023TIP3   OH239483   0.666   6.352  15.542 -0.1360 -0.1028  0.0343
 6023TIP3    H139484   0.725   6.394  15.604  2.5755  0.8333 -2.9911
 6023TIP3    H239485   0.615   6.291  15.594  3.1587 -0.5646  2.9070
 6024TIP3   OH239486   4.523   2.343  14.806 -0.5396  0.0472 -0.0856
 6024TIP3    H139487   4.548   2.427  14.768 -0.5964 -0.7273 -1.9149
 6024TIP3    H239488   4.449   2.314  14.752 -2.1088 -0.0483  2.0574
 6025TIP3   OH239489   1.162   0.582   5.704  0.9705  0.4837  0.1098
 6025TIP3    H139490   1.246   0.580   5.749  0.2794  1.9912  1.4745
 6025TIP3    H239491   1.101   0.621   5.766 -0.5880  0.1465 -1.1537
 6026TIP3   OH239492   3.263   0.435   0.009  0.2132 -0.0933 -0.8697
 6026TIP3    H139493   3.345   0.417   0.056 -0.0198 -1.5791 -1.0059
 6026TIP3    H239494   3.202   0.464   0.078  0.5113 -0.1406 -0.5843
 6027TIP3   OH239495   0.600   6.134  17.144 -0.0920 -0.4142  0.1408
 6027TIP3    H139496   0.620   6.211  17.196 -3.7933  0.4966  0.3355
 6027TIP3    H239497   0.538   6.165  17.078 -0.1729 -2.8358 -0.9823
 6028TIP3   OH239498   0.231   2.144   6.637  0.0832  0.9145 -0.2025
 6028TIP3    H139499   0.325   2.147   6.617  0.1090  0.0601 -0.2262
 6028TIP3    H239500   0.220   2.209   6.707  0.8058  0.5891  0.2274
 6029TIP3   OH239501   6.136   5.567   2.951  0.5847  0.2115  0.3154
 6029TIP3    H139502   6.201   5.573   3.021 -0.6900  1.3028  1.4259
 6029TIP3    H239503   6.161   5.489   2.902  1.7060 -0.3694  1.7767
 6030TIP3   OH239504   3.726   5.783   5.067 -0.0923  0.1432  0.7007
 6030TIP3    H139505   3.767   5.713   5.017 -1.4202 -1.2173  1.4976
 6030TIP3    H239506   3.640   5.794   5.027  0.1057  1.3536  0.5648
 6031TIP3   OH239507   4.401   1.754   0.530  0.2054 -0.0257  0.4648
 6031TIP3    H139508   4.422   1.797   0.448  0.4466  1.4940  1.3159
 6031TIP3    H239509   4.471   1.690   0.542 -0.2996 -0.8681 -0.9323
 6032TIP3   OH239510   1.380   1.492   6.478  0.3806 -0.0130 -0.1362
 6032TIP3    H139511   1.357   1.474   6.386  1.3412  0.5367 -0.4936
 6032TIP3    H239512   1.424   1.413   6.508  2.4605  0.7977 -0.9750
 6033TIP3   OH239513   2.934   6.096   3.555 -0.4436  0.0644 -0.1380
 6033TIP3    H139514   2.862   6.092   3.492 -0.9029  0.2886  0.3641
 6033TIP3    H239515   2.894   6.134   3.634  0.4446  1.0162 -0.1477
 6034TIP3   OH239516   2.141   3.725  12.635 -0.0350 -0.0504  0.2163
 6034TIP3    H139517   2.068   3.665  12.621  0.5687 -0.6856 -0.2916
 6034TIP3    H239518   2.171   3.746  12.546  0.5026  0.0697  0.4289
 6035TIP3   OH239519   3.953   5.713  13.279  0.0717  0.2137 -0.1329
 6035TIP3    H139520   3.896   5.694  13.353  1.5982 -0.7506  0.8141
 6035TIP3    H239521   3.963   5.808  13.281  0.2275  0.1839  0.9942
 6036TIP3   OH239522   3.694   2.457  12.652  0.0286  0.3691 -0.4931
 6036TIP3    H139523   3.612   2.474  12.700  1.1408  1.0020  1.2066
 6036TIP3    H239524   3.673   2.481  12.561 -1.8812 -0.1360 -0.2180
 6037TIP3   OH239525   6.641   1.694  16.186 -0.7536  0.2610 -0.1074
 6037TIP3    H139526   6.712   1.713  16.125 -1.6473  1.2734 -0.8818
 6037TIP3    H239527   6.682   1.697  16.272  0.4277 -0.6607 -0.6269
 6038TIP3   OH239528   5.944   4.155  11.322 -0.5079 -0.1852 -0.1566
 6038TIP3    H139529   5.932   4.164  11.416 -0.4941 -0.2653 -0.1472
 6038TIP3    H239530   5.996   4.231  11.297  0.7009 -0.9101  0.1159
 6039TIP3   OH239531   4.760   3.075  14.706 -0.4003 -0.0070  0.0784
 6039TIP3    H139532   4.726   2.987  14.695 -0.7347 -0.1030  1.6931
 6039TIP3    H239533   4.854   3.067  14.688 -0.7456 -0.2838 -1.6800
 6040TIP3   OH239534   4.964   1.661  15.780  0.7242  0.2285 -0.2855
 6040TIP3    H139535   4.890   1.655  15.720  0.5959 -1.2346  0.0130
 6040TIP3    H239536   5.037   1.689  15.725  0.9103 -2.3472 -1.3951
 6041TIP3   OH239537   5.041   2.178   0.755 -0.1441 -0.2103  0.1349
 6041TIP3    H139538   5.057   2.238   0.683  0.5393  0.0459  0.4898
 6041TIP3    H239539   5.029   2.235   0.832 -2.5398 -0.3982 -0.0515
 6042TIP3   OH239540   5.073   0.856  16.008  0.2056  0.2691  0.9334
 6042TIP3    H139541   5.102   0.946  16.026 -0.3052  0.5030  0.5999
 6042TIP3    H239542   4.978   0.864  15.996 -0.1785 -0.6445  3.1132
 6043TIP3   OH239543   4.054   5.109  13.639 -0.1678  0.5547  0.6339
 6043TIP3    H139544   4.100   5.036  13.597  1.6148  0.1819  3.1012
 6043TIP3    H239545   3.962   5.083  13.637  0.3985 -1.6272  1.1678
 6044TIP3   OH239546   3.698   4.374  15.679  0.6814 -0.1937  0.0055
 6044TIP3    H139547   3.702   4.282  15.703  0.8543 -1.1174 -3.4081
 6044TIP3    H239548   3.614   4.404  15.714  0.8095 -1.5049  1.4905
 6045TIP3   OH239549   5.531   3.717   0.555 -0.4073 -0.4136 -0.5302
 6045TIP3    H139550   5.487   3.634   0.540 -2.0444  1.0839 -4.9347
 6045TIP3    H239551   5.479   3.761   0.622 -2.4085 -0.9737 -1.6853
 6046TIP3   OH239552   0.551   4.472   1.450  0.3055  0.2396  0.3815
 6046TIP3    H139553   0.564   4.379   1.467 -1.2035  0.0411  0.5191
 6046TIP3    H239554   0.570   4.483   1.357  1.8442  0.0562  0.6675
 6047TIP3   OH239555   5.230   6.609  11.145  0.2846 -0.1861 -0.3791
 6047TIP3    H139556   5.158   6.553  11.173  0.3720 -1.3251 -2.3597
 6047TIP3    H239557   5.202   6.698  11.168 -0.0897 -0.9569  2.3113
 6048TIP3   OH239558   0.694   3.432  11.864  0.2088  0.4220 -0.0584
 6048TIP3    H139559   0.777   3.462  11.826 -0.1759  0.3175 -0.9804
 6048TIP3    H239560   0.635   3.506  11.856  0.0314  0.2955  0.0600
 6049TIP3   OH239561   3.793   1.080  12.504  0.4749  0.5790  0.0191
 6049TIP3    H139562   3.768   1.137  12.432  0.5577  0.2660 -0.2560
 6049TIP3    H239563   3.873   1.120  12.539  0.3419  0.8232  0.0465
 6050TIP3   OH239564   6.348   5.147   0.063 -0.1610 -0.0044  0.1847
 6050TIP3    H139565   6.274   5.093   0.090  0.0150  0.5449  1.8472
 6050TIP3    H239566   6.370   5.198   0.142  1.7203  0.1305 -0.4128
 6051TIP3   OH239567   6.173   4.695   2.978  0.0160  0.0759  0.1035
 6051TIP3    H139568   6.267   4.706   2.995  0.3183  1.3062 -2.2185
 6051TIP3    H239569   6.169   4.625   2.912 -0.6283  0.6487 -0.4695
 6052TIP3   OH239570   3.832   1.334   2.110 -0.4161  0.0348 -0.0403
 6052TIP3    H139571   3.880   1.408   2.147  0.7907  0.0144 -1.5239
 6052TIP3    H239572   3.805   1.364   2.023 -0.3086 -1.1042 -0.4770
 6053TIP3   OH239573   4.451   0.850   5.525 -0.6363  0.4970 -0.2830
 6053TIP3    H139574   4.545   0.869   5.524 -0.2539 -0.7591  3.3865
 6053TIP3    H239575   4.409   0.935   5.531  0.2347  1.0725 -1.9747
 6054TIP3   OH239576   1.568   0.991  17.183  0.0425  0.0659 -0.0016
 6054TIP3    H139577   1.604   0.983  17.272 -0.3901 -0.7588  0.1012
 6054TIP3    H239578   1.630   0.943  17.128  0.3063  0.5703 -0.1405
 6055TIP3   OH239579   2.308   0.459  14.993  0.4291  0.1353  0.2987
 6055TIP3    H139580   2.298   0.473  14.899 -1.0573  0.9256  0.5497
 6055TIP3    H239581   2.260   0.379  15.011 -2.1664  1.7391  0.8664
 6056TIP3   OH239582   2.992   5.414   1.304  0.4387 -0.0260  0.2120
 6056TIP3    H139583   2.990   5.347   1.236 -0.0773 -2.3193  2.4282
 6056TIP3    H239584   2.905   5.455   1.299 -0.6173 -2.0857  1.3238
 6057TIP3   OH239585   5.228   2.111  11.721 -0.5790  0.4028 -0.0038
 6057TIP3    H139586   5.272   2.091  11.804 -0.7871  0.4365  0.1132
 6057TIP3    H239587   5.137   2.127  11.744 -0.5580  0.8071 -0.1884
 6058TIP3   OH239588   5.513   0.460   4.510 -0.7319 -0.1977 -0.1236
 6058TIP3    H139589   5.517   0.482   4.417  1.4609 -1.5463 -0.3863
 6058TIP3    H239590   5.496   0.366   4.511  2.7899 -0.8755  0.7474
 6059TIP3   OH239591   2.179   5.997   1.994 -0.8280 -0.6330 -0.0339
 6059TIP3    H139592   2.268   5.976   2.023 -0.7230  0.7108  0.6287
 6059TIP3    H239593   2.159   6.081   2.036 -1.2558  0.5961 -2.5963
 6060TIP3   OH239594   4.990   2.821  14.763 -0.0459  0.3544 -0.1415
 6060TIP3    H139595   5.022   2.901  14.721 -0.5674  1.0521  0.7871
 6060TIP3    H239596   4.933   2.852  14.833 -0.4131 -0.8387  0.0920
 6061TIP3   OH239597   5.771   5.912   1.490  0.3159  0.0724  0.2432
 6061TIP3    H139598   5.703   5.846   1.503 -0.0336  0.4114  0.1491
 6061TIP3    H239599   5.852   5.862   1.487  0.3129 -0.1308  2.6280
 6062TIP3   OH239600   5.756   1.669  15.576  0.4895 -0.4979  0.5050
 6062TIP3    H139601   5.667   1.695  15.552  0.4781  0.0296  1.1140
 6062TIP3    H239602   5.805   1.676  15.494  0.0707 -0.3563  0.2607
 6063TIP3   OH239603   3.523   1.625   3.004 -0.0026  0.0332 -0.1861
 6063TIP3    H139604   3.612   1.641   2.975  0.2801  1.3187  1.3386
 6063TIP3    H239605   3.474   1.703   2.977 -0.4806 -0.2912 -0.2704
 6064TIP3   OH239606   5.048   4.322   3.177  0.1600  0.2643 -0.3476
 6064TIP3    H139607   5.138   4.291   3.191 -0.8546 -2.8932 -0.4913
 6064TIP3    H239608   4.998   4.243   3.158 -2.1922  2.2371 -2.8120
 6065TIP3   OH239609   5.753   1.697  16.193  0.0754  0.5107 -0.2690
 6065TIP3    H139610   5.724   1.617  16.149 -0.3661  0.7741 -0.4715
 6065TIP3    H239611   5.739   1.766  16.128  0.8037  0.6965 -0.2233
 6066TIP3   OH239612   4.679   6.205   3.914 -0.2787  0.8134  0.0280
 6066TIP3    H139613   4.629   6.177   3.990  0.3418 -0.7551 -0.1256
 6066TIP3    H239614   4.650   6.295   3.898 -1.2837  0.7454  1.3789
 6067TIP3   OH239615   3.441   6.521   4.927 -0.1148  0.1043 -0.0064
 6067TIP3    H139616   3.474   6.555   4.844  1.1302  0.0748  0.4669
 6067TIP3    H239617   3.463   6.428   4.925  0.9008  0.3106  0.8048
 6068TIP3   OH239618   3.616   3.432  13.643 -0.1245  0.0428 -0.1384
 6068TIP3    H139619   3.604   3.467  13.555 -1.4625  2.6663  1.0215
 6068TIP3    H239620   3.527   3.411  13.672  0.1694  0.3470  1.0173
 6069TIP3   OH239621   3.148   2.040   4.159  0.3590  0.0601 -0.1739
 6069TIP3    H139622   3.147   2.073   4.249 -1.0005 -0.4037 -0.0213
 6069TIP3    H239623   3.092   1.963   4.161  0.1010  0.2143 -1.4869
 6070TIP3   OH239624   4.736   0.500  13.647  0.0309 -0.3323  0.2123
 6070TIP3    H139625   4.663   0.555  13.674  0.2128  0.7967 -1.4665
 6070TIP3    H239626   4.811   0.531  13.697  0.1046  0.8946 -0.6477
 6071TIP3   OH239627   1.098   3.394   1.792  0.2456 -0.6651  0.2251
 6071TIP3    H139628   1.177   3.391   1.846  0.3960 -0.2674  0.0262
 6071TIP3    H239629   1.026   3.375   1.853  0.3756  0.1410  0.6366
 6072TIP3   OH239630   5.238   3.377   5.384 -0.0370  0.8888 -0.5692
 6072TIP3    H139631   5.220   3.469   5.402  1.6645  1.8030 -3.1645
 6072TIP3    H239632   5.167   3.349   5.326 -1.2036  0.1996  1.1606
 6073TIP3   OH239633   1.086   1.059   2.293 -0.0105 -0.3146 -0.3193
 6073TIP3    H139634   1.113   0.973   2.326  0.0091 -0.4796 -0.7585
 6073TIP3    H239635   1.020   1.089   2.356 -1.1063 -1.3209 -0.9614
 6074TIP3   OH239636   1.977   0.464  13.033 -1.0411  0.0045  0.7049
 6074TIP3    H139637   2.057   0.450  12.984 -0.9528  0.3290  0.7540
 6074TIP3    H239638   1.998   0.437  13.123 -0.9939  0.0604  0.7114
 6075TIP3   OH239639   6.441   2.272  13.417 -0.6017 -0.7697 -0.3925
 6075TIP3    H139640   6.518   2.320  13.449  0.4231 -2.1202 -0.8045
 6075TIP3    H239641   6.403   2.234  13.496 -1.8689  1.3035  0.0507
 6076TIP3   OH239642   4.133   2.790  14.122  0.5606 -0.2482 -0.0715
 6076TIP3    H139643   4.113   2.759  14.033  1.6872  0.9860 -0.7690
 6076TIP3    H239644   4.052   2.775  14.171 -0.6868  0.7782 -1.7687
 6077TIP3   OH239645   6.214   3.355  15.981  0.0226  0.2344 -0.3271
 6077TIP3    H139646   6.121   3.376  15.976 -0.1548 -0.3161  0.6264
 6077TIP3    H239647   6.223   3.305  16.062  1.1585  0.3364 -0.3856
 6078TIP3   OH239648   3.832   5.900  12.532 -0.1349  0.0787 -0.2510
 6078TIP3    H139649   3.805   5.952  12.608 -0.7242 -2.4956  1.3460
 6078TIP3    H239650   3.927   5.908  12.529  0.1156 -1.6462  2.1671
 6079TIP3   OH239651   1.275   6.073   2.998  0.1655 -0.0938 -0.6508
 6079TIP3    H139652   1.272   6.085   3.092 -0.2824 -2.2568 -0.3664
 6079TIP3    H239653   1.352   6.019   2.982  1.7642  2.4072 -1.8187
 6080TIP3   OH239654   0.905   4.444   2.032 -0.3247 -0.1215 -0.1479
 6080TIP3    H139655   0.816   4.465   2.060 -0.2948  2.1252 -1.5429
 6080TIP3    H239656   0.894   4.391   1.953 -0.4009 -2.0924  1.1581
 6081TIP3   OH239657   0.115   4.588   2.313 -0.5939 -0.3738 -0.8719
 6081TIP3    H139658   0.032   4.571   2.268 -0.4010 -1.7405 -0.7262
 6081TIP3    H239659   0.095   4.577   2.406 -0.5520  0.5959 -0.7453
 6082TIP3   OH239660   0.540   4.168   0.390  0.0582 -0.2856 -0.3233
 6082TIP3    H139661   0.511   4.239   0.448 -2.1175 -0.7858 -0.7736
 6082TIP3    H239662   0.565   4.213   0.309  0.4425  0.1354  0.0217
 6083TIP3   OH239663   6.710   5.063  16.448 -0.8319  0.3418  0.2428
 6083TIP3    H139664   6.800   5.061  16.481 -0.6314  1.7747 -0.1847
 6083TIP3    H239665   6.657   5.093  16.521 -0.9915 -0.6483  0.5420
 6084TIP3   OH239666   2.770   1.113   5.052 -0.3629 -0.2849 -0.0669
 6084TIP3    H139667   2.685   1.135   5.090  0.7329  0.7618  1.8559
 6084TIP3    H239668   2.801   1.195   5.014 -1.0722 -1.1253 -2.5613
 6085TIP3   OH239669   6.288   4.664  13.240  0.2056 -0.3264 -0.7910
 6085TIP3    H139670   6.255   4.753  13.251  0.3800 -0.2556 -0.8576
 6085TIP3    H239671   6.231   4.626  13.173 -0.4350 -0.5462 -0.1388
 6086TIP3   OH239672   3.062   4.431   6.635  0.3403  0.3648  0.4657
 6086TIP3    H139673   2.993   4.456   6.696  0.9716 -0.1556  1.4116
 6086TIP3    H239674   3.125   4.503   6.639  0.6907  0.0353  0.9130
 6087TIP3   OH239675   5.081   3.090  14.776  0.7026 -0.0522 -0.1872
 6087TIP3    H139676   5.035   3.149  14.717 -1.3653 -0.1416  1.3111
 6087TIP3    H239677   5.136   3.147  14.830  0.0337  0.3317  0.0864
 6088TIP3   OH239678   2.619   3.985   3.188 -0.5335  0.3826  0.1445
 6088TIP3    H139679   2.543   4.040   3.200  0.4749  2.1948 -1.5219
 6088TIP3    H239680   2.627   3.974   3.094  0.2384 -1.2881  0.3676
 6089TIP3   OH239681   4.180   3.651   0.783  0.3704 -0.0096  0.8468
 6089TIP3    H139682   4.101   3.598   0.772  0.8468 -0.4416 -0.6949
 6089TIP3    H239683   4.224   3.613   0.859 -0.6276 -0.1110  1.3848
 6090TIP3   OH239684   0.031   5.639  16.891  0.1367  0.2920 -0.2314
 6090TIP3    H139685  -0.044   5.635  16.832 -0.3696  0.3040  0.4078
 6090TIP3    H239686   0.059   5.731  16.889  0.2894  0.2371 -0.6565
 6091TIP3   OH239687   4.171   5.228  15.729 -0.5377  0.2774  0.1242
 6091TIP3    H139688   4.129   5.146  15.756  1.1904 -0.2303  1.3047
 6091TIP3    H239689   4.105   5.271  15.673 -1.6031 -1.7176 -0.1973
 6092TIP3   OH239690   1.786   2.210   1.849 -0.2247  0.1213 -0.5872
 6092TIP3    H139691   1.851   2.279   1.830  0.3778 -0.1930  0.2983
 6092TIP3    H239692   1.714   2.228   1.788  0.5184  0.7165 -1.3141
 6093TIP3   OH239693   2.192   1.973  12.852 -0.1787  0.1294  0.3110
 6093TIP3    H139694   2.271   1.982  12.799 -0.4581  0.2139 -0.0884
 6093TIP3    H239695   2.224   1.970  12.942  0.0535  3.4722  0.3810
 6094TIP3   OH239696   0.256   1.586   2.530  0.1211  0.1800 -0.1247
 6094TIP3    H139697   0.177   1.635   2.508 -0.4081 -0.8219 -0.4948
 6094TIP3    H239698   0.324   1.622   2.474  0.1285  1.6253  0.7988
 6095TIP3   OH239699   3.713   6.249  15.887 -0.0733 -0.5402  0.0248
 6095TIP3    H139700   3.749   6.320  15.833 -0.0153  0.7865  1.7557
 6095TIP3    H239701   3.678   6.186  15.824 -1.1911  1.5818 -1.5527
 6096TIP3   OH239702   4.978   1.365   0.912 -0.5543  0.8094  0.1673
 6096TIP3    H139703   4.949   1.349   1.001 -0.1840 -0.9963 -0.0217
 6096TIP3    H239704   5.074   1.373   0.919 -0.1666 -2.5559 -0.4710
 6097TIP3   OH239705   6.247   4.560  15.000 -0.3326 -0.0280 -0.1262
 6097TIP3    H139706   6.214   4.650  14.997  0.5889  0.3470  0.5272
 6097TIP3    H239707   6.241   4.536  15.092  2.0429  0.3866  0.1783
 6098TIP3   OH239708   5.938   4.688  11.126 -0.3605 -0.1969  0.1781
 6098TIP3    H139709   5.869   4.709  11.189  0.4105 -2.8652  1.9871
 6098TIP3    H239710   5.973   4.774  11.100 -2.7007  1.0756  1.0829
 6099TIP3   OH239711   1.153   1.778  14.814 -0.3413  0.2507  0.3620
 6099TIP3    H139712   1.167   1.861  14.768  1.9812 -1.2403 -1.7194
 6099TIP3    H239713   1.232   1.766  14.866 -0.8589 -0.4744  0.9948
 6100TIP3   OH239714   4.297   1.331  14.555  0.1624  0.0066  0.1739
 6100TIP3    H139715   4.288   1.257  14.616  0.3459 -1.1722 -1.2173
 6100TIP3    H239716   4.207   1.361  14.540 -0.2016 -1.8688 -1.5978
 6101TIP3   OH239717   1.353   2.267   0.177 -0.2440 -0.5406  0.0987
 6101TIP3    H139718   1.396   2.342   0.136 -1.0215 -0.4479 -0.5522
 6101TIP3    H239719   1.266   2.298   0.199 -0.6768 -1.3383 -0.4542
 6102TIP3   OH239720   0.602   3.478  17.035  0.0601 -0.4167  0.0325
 6102TIP3    H139721   0.507   3.490  17.029 -0.1009 -1.2160  0.8768
 6102TIP3    H239722   0.638   3.566  17.025 -0.7603 -0.1362 -0.5045
 6103TIP3   OH239723   3.432   1.510  16.434  0.1534  0.6672 -0.4800
 6103TIP3    H139724   3.482   1.461  16.499 -0.0306  1.9570  0.6518
 6103TIP3    H239725   3.341   1.486  16.450  0.1454  0.6538 -0.5441
 6104TIP3   OH239726   1.092   2.852   1.645 -0.1371 -0.2024 -0.4364
 6104TIP3    H139727   1.027   2.855   1.575 -2.9827 -0.8077  2.0729
 6104TIP3    H239728   1.091   2.940   1.683  1.5678  0.1949 -1.2986
 6105TIP3   OH239729   1.835   0.839  14.051  0.1668  0.0771  0.3922
 6105TIP3    H139730   1.865   0.834  14.142 -0.3131  1.6892  0.6597
 6105TIP3    H239731   1.784   0.920  14.047 -1.2257 -0.8234 -0.9055
 6106TIP3   OH239732   0.435   3.177   1.521  0.1955  0.3474 -0.3383
 6106TIP3    H139733   0.503   3.244   1.528 -0.4335  0.9306  0.3548
 6106TIP3    H239734   0.443   3.126   1.602  0.7824 -0.5190 -0.9424
 6107TIP3   OH239735   4.701   6.037   1.085  0.4282  0.0524 -0.3018
 6107TIP3    H139736   4.772   6.010   1.143  0.8358  0.5480 -0.5603
 6107TIP3    H239737   4.696   6.132   1.097  1.3434  0.3343 -1.9841
 6108TIP3   OH239738   0.791   0.246   4.756 -0.6595  0.2235  0.3513
 6108TIP3    H139739   0.766   0.279   4.843  0.8384 -0.5685  1.0954
 6108TIP3    H239740   0.803   0.152   4.769  3.2275  0.6478  0.1569
 6109TIP3   OH239741   0.550   2.733   1.372 -0.6273  0.0847  1.3180
 6109TIP3    H139742   0.502   2.816   1.366 -1.8849 -0.6948  0.3916
 6109TIP3    H239743   0.620   2.741   1.307 -2.1613 -0.4857 -0.4464
 6110TIP3   OH239744   2.853   4.701   1.640  0.1953  0.0678  0.4523
 6110TIP3    H139745   2.819   4.625   1.688  0.6994 -1.0716 -0.9630
 6110TIP3    H239746   2.782   4.725   1.580  0.6240 -0.2686 -0.1968
 6111TIP3   OH239747   0.846   5.515  13.709 -0.3539  0.8610  0.1617
 6111TIP3    H139748   0.844   5.610  13.716 -2.6445  0.7986  0.9068
 6111TIP3    H239749   0.757   5.491  13.685  0.7465 -0.9613 -2.2945
 6112TIP3   OH239750   1.215   1.500  15.387 -0.1057  0.1783 -0.1228
 6112TIP3    H139751   1.243   1.417  15.348 -2.0165 -0.1178 -0.9336
 6112TIP3    H239752   1.248   1.496  15.477 -1.3504 -2.1056  0.2958
 6113TIP3   OH239753   3.334   6.434   2.529 -0.3290 -0.2577  0.1360
 6113TIP3    H139754   3.360   6.505   2.587 -0.4566 -0.3339  0.2883
 6113TIP3    H239755   3.403   6.430   2.463  0.6777 -1.2378  1.2084
 6114TIP3   OH239756   5.109   3.241  12.539 -0.4941 -0.2967 -0.1165
 6114TIP3    H139757   5.171   3.168  12.543  0.2604  0.3763  0.9654
 6114TIP3    H239758   5.114   3.271  12.448  1.4510  0.3155  0.1617
 6115TIP3   OH239759   2.988   0.221   0.636 -0.4247 -0.3380 -0.1100
 6115TIP3    H139760   3.015   0.299   0.685  1.6921 -1.1570  0.1041
 6115TIP3    H239761   2.944   0.256   0.559  0.9049  1.0979 -0.2590
 6116TIP3   OH239762   0.247   2.163  13.981  0.1359  0.3880 -0.4203
 6116TIP3    H139763   0.261   2.251  14.018  1.1719 -0.3241  0.9416
 6116TIP3    H239764   0.279   2.169  13.891  0.3555  1.3646 -0.2842
 6117TIP3   OH239765   1.585   2.017   4.846 -0.1937  0.3369  0.7373
 6117TIP3    H139766   1.548   1.929   4.840 -1.0558  0.7169  0.4514
 6117TIP3    H239767   1.511   2.072   4.873  0.7311  0.6862  2.6115
 6118TIP3   OH239768   0.454   6.270   3.136 -0.4204  0.2116  0.3851
 6118TIP3    H139769   0.484   6.251   3.047  0.6489 -1.3684  1.0485
 6118TIP3    H239770   0.399   6.195   3.159 -0.6899  0.6111  1.0497
 6119TIP3   OH239771   4.604   5.591  11.966 -0.4941 -0.2297  0.0555
 6119TIP3    H139772   4.558   5.517  12.006  0.3373 -1.1520 -0.6514
 6119TIP3    H239773   4.566   5.597  11.878  0.7052 -0.9981 -0.5337
 6120TIP3   OH239774   5.650   1.008   5.540 -0.1775  0.1005  0.2296
 6120TIP3    H139775   5.559   1.009   5.510  0.9141 -0.0454 -3.2985
 6120TIP3    H239776   5.662   0.919   5.574 -1.3498  0.1255  0.7462
 6121TIP3   OH239777   4.127   5.456  15.236  0.1280  0.2720 -0.1456
 6121TIP3    H139778   4.072   5.496  15.169 -0.1400  1.7787  0.9459
 6121TIP3    H239779   4.087   5.370  15.251 -1.1643  0.8416 -0.2739
 6122TIP3   OH239780   0.707   4.125  17.187  0.4235  0.0312 -0.7289
 6122TIP3    H139781   0.683   4.036  17.211  1.3697 -0.8025 -2.7437
 6122TIP3    H239782   0.741   4.118  17.098  0.0587  2.4824 -1.1186
 6123TIP3   OH239783   4.306   0.243   4.746  0.1637 -0.5984 -0.7649
 6123TIP3    H139784   4.253   0.169   4.775  0.3738 -0.6023 -0.3801
 6123TIP3    H239785   4.373   0.253   4.815 -0.1932  0.2829 -0.5367
 6124TIP3   OH239786   6.365   4.196  14.807  1.0333  0.5416 -0.0293
 6124TIP3    H139787   6.420   4.134  14.760  0.4684 -0.2342  0.3344
 6124TIP3    H239788   6.400   4.282  14.783  0.7992  0.1598 -1.8133
 6125TIP3   OH239789   0.808   0.900   4.652 -0.2458  0.4459  0.2253
 6125TIP3    H139790   0.807   0.804   4.649  2.2059  0.4386 -2.3289
 6125TIP3    H239791   0.717   0.925   4.639 -0.8358 -1.5284  0.4138
 6126TIP3   OH239792   4.637   1.824   2.778 -0.2349  0.7796  0.5469
 6126TIP3    H139793   4.627   1.734   2.747  1.6821  1.1249 -1.1910
 6126TIP3    H239794   4.574   1.874   2.726  0.2985  0.7632 -0.1366
 6127TIP3   OH239795   4.260   0.059  12.692  0.0027  0.0098  0.2334
 6127TIP3    H139796   4.248   0.082  12.600  2.0740 -1.3618 -0.4163
 6127TIP3    H239797   4.214   0.128  12.741 -1.6815  0.3926 -1.8132
 6128TIP3   OH239798   3.539   4.284  12.795  0.0985 -0.1314  0.2099
 6128TIP3    H139799   3.471   4.337  12.755 -0.3389 -0.0640  1.0333
 6128TIP3    H239800   3.492   4.222  12.851  0.7374  0.4608  1.4277
 6129TIP3   OH239801   0.113   2.515  15.337 -0.0894 -0.0502  0.1881
 6129TIP3    H139802   0.069   2.594  15.307  1.6003  0.1394 -1.8738
 6129TIP3    H239803   0.105   2.454  15.264  0.1579 -1.1854  1.0855
 6130TIP3   OH239804   0.926   4.904  13.575  0.1008 -0.2252 -0.0236
 6130TIP3    H139805   0.897   4.930  13.663  1.2570  0.8059  0.0681
 6130TIP3    H239806   0.947   4.811  13.584 -1.8021 -0.6554  0.2515
 6131TIP3   OH239807   4.836   3.534   1.935  0.0307  0.3501  0.1672
 6131TIP3    H139808   4.891   3.586   1.993 -0.4858  0.5916  0.4343
 6131TIP3    H239809   4.776   3.596   1.895  1.1486  0.3843 -1.5323
 6132TIP3   OH239810   3.440   5.003   2.863 -0.3870  0.2052 -0.5012
 6132TIP3    H139811   3.524   4.970   2.831  0.1202  0.1127  0.9126
 6132TIP3    H239812   3.406   4.933   2.919 -1.2537  0.3785 -0.8038
 6133TIP3   OH239813   5.393   1.540   0.804  0.3139  0.6288  0.4831
 6133TIP3    H139814   5.402   1.527   0.898 -3.8248 -0.9186  0.8106
 6133TIP3    H239815   5.449   1.473   0.765 -1.2998 -1.6579  1.9487
 6134TIP3   OH239816   3.107   0.397  13.627  0.0773 -0.1319  0.2964
 6134TIP3    H139817   3.159   0.350  13.692  1.1853  1.0094  0.2435
 6134TIP3    H239818   3.170   0.425  13.561 -0.6681  0.9028  0.0051
 6135TIP3   OH239819   2.708   3.842   4.714  0.9088  0.3889 -0.0351
 6135TIP3    H139820   2.724   3.753   4.744  0.1493  0.4019  0.4277
 6135TIP3    H239821   2.746   3.898   4.782  3.3948  0.4380 -1.4211
 6136TIP3   OH239822   3.638   6.313  14.253 -0.5946  0.8018  0.1322
 6136TIP3    H139823   3.581   6.278  14.184 -0.7820  0.6005  0.3854
 6136TIP3    H239824   3.653   6.239  14.311  0.5706  0.6536 -0.3522
 6137TIP3   OH239825   3.786   3.171   2.728  0.2605  0.0092  0.3299
 6137TIP3    H139826   3.725   3.244   2.716  0.9077  0.6367  0.8209
 6137TIP3    H239827   3.744   3.098   2.683  0.3402  1.0722 -1.5433
 6138TIP3   OH239828   1.100   4.658   0.681 -0.5639 -0.5521 -0.7166
 6138TIP3    H139829   1.078   4.641   0.772  1.3517  0.5921 -0.0359
 6138TIP3    H239830   1.038   4.604   0.632 -1.3044 -1.5425  1.2513
 6139TIP3   OH239831   2.272   0.928  13.710  0.4289 -0.2611  0.0209
 6139TIP3    H139832   2.319   0.929  13.627  1.0480  2.9266  0.3459
 6139TIP3    H239833   2.273   1.019  13.740 -2.7731 -0.7168  1.8377
 6140TIP3   OH239834   6.290   4.148  16.280 -0.4615 -0.1442 -0.6618
 6140TIP3    H139835   6.342   4.227  16.263  0.3396 -0.4777  0.1961
 6140TIP3    H239836   6.204   4.168  16.244 -0.5355  1.4889  0.3525
 6141TIP3   OH239837   3.621   4.112   0.038 -0.3370 -0.2292 -0.0720
 6141TIP3    H139838   3.665   4.076  -0.039 -0.9220 -2.1931  0.4911
 6141TIP3    H239839   3.532   4.077   0.034 -0.5387  0.1070  1.1874
 6142TIP3   OH239840   0.805   2.021   5.351  0.6980  0.8785 -0.1304
 6142TIP3    H139841   0.775   2.106   5.321  1.3080  0.8184 -0.9244
 6142TIP3    H239842   0.855   1.985   5.278 -0.1628 -0.4754 -0.0777
 6143TIP3   OH239843   5.280   2.303   2.462 -0.8625  0.1092 -0.3509
 6143TIP3    H139844   5.185   2.312   2.452 -0.8901  2.5043  1.6381
 6143TIP3    H239845   5.317   2.368   2.402 -0.5577  0.7030  0.4650
 6144TIP3   OH239846   1.126   5.044   5.197  0.6030 -0.3201 -0.3746
 6144TIP3    H139847   1.131   4.950   5.212  2.0777  0.0976  2.1789
 6144TIP3    H239848   1.045   5.071   5.241 -0.2057 -0.4986 -1.7496
 6145TIP3   OH239849   1.982   1.053   1.909 -0.5579 -0.3492  0.0376
 6145TIP3    H139850   2.033   1.010   1.977 -0.3037 -1.1995 -0.6892
 6145TIP3    H239851   1.994   0.999   1.831 -2.9368 -0.8299 -0.0293
 6146TIP3   OH239852   6.169   4.320   4.849  0.4377  0.9494  0.3866
 6146TIP3    H139853   6.098   4.263   4.821  0.4410  1.8772 -1.6933
 6146TIP3    H239854   6.131   4.375   4.917 -0.3322  0.2427  0.5270
 6147TIP3   OH239855   1.689   3.775  16.149  0.4821  0.0059  0.3896
 6147TIP3    H139856   1.714   3.771  16.242  3.3816  0.1578 -0.3295
 6147TIP3    H239857   1.663   3.685  16.127  1.7046 -0.4793  0.8683
 6148TIP3   OH239858   3.828   5.692  14.338 -0.0706 -0.0381  0.7690
 6148TIP3    H139859   3.740   5.661  14.316 -0.1152 -1.0149  2.2595
 6148TIP3    H239860   3.873   5.699  14.253 -1.4856  0.1979  0.0249
 6149TIP3   OH239861   4.795   2.975   1.614  0.5485  0.1041  0.5050
 6149TIP3    H139862   4.785   2.899   1.556 -0.9403 -0.6989  1.7725
 6149TIP3    H239863   4.717   3.027   1.599  0.9627  0.7547  0.5778
 6150TIP3   OH239864   6.523   1.911   0.435 -0.0563  0.0237 -0.1427
 6150TIP3    H139865   6.574   1.868   0.504 -1.3685 -0.8081  0.3294
 6150TIP3    H239866   6.502   1.997   0.471  0.7173  0.2371 -0.1989
 6151TIP3   OH239867   4.478   2.739  17.034  0.3635  0.5944  0.1984
 6151TIP3    H139868   4.411   2.703  17.092 -0.5339 -1.0084 -1.7768
 6151TIP3    H239869   4.486   2.831  17.060 -1.8021  0.5306  1.1689
 6152TIP3   OH239870   2.441   6.163   0.227 -0.0154  0.3821  0.3890
 6152TIP3    H139871   2.529   6.194   0.207  0.2504  0.6041  1.8569
 6152TIP3    H239872   2.384   6.235   0.201  0.1643 -0.0235 -1.1966
 6153TIP3   OH239873   3.115   4.261  14.195  0.0983 -0.5364 -0.3348
 6153TIP3    H139874   3.039   4.203  14.197  0.3862 -0.9120 -0.2144
 6153TIP3    H239875   3.164   4.233  14.118 -2.0132  2.4404 -2.8840
 6154TIP3   OH239876   0.350   2.794  15.572 -0.1311  0.6383 -0.3730
 6154TIP3    H139877   0.338   2.838  15.656 -2.3781  0.3800 -0.5285
 6154TIP3    H239878   0.351   2.701  15.594  1.2991  0.6306 -0.4224
 6155TIP3   OH239879   5.417   3.251   5.627  0.1347 -0.1697  0.3396
 6155TIP3    H139880   5.450   3.259   5.716  2.1869  0.1887 -0.4283
 6155TIP3    H239881   5.331   3.294   5.629 -0.8614 -2.2027  2.6621
 6156TIP3   OH239882   1.419   4.493   2.327  0.2738  0.0834 -0.6691
 6156TIP3    H139883   1.329   4.526   2.325 -0.0048 -0.5239  1.0422
 6156TIP3    H239884   1.432   4.465   2.417  1.6316 -1.3894 -1.3038
 6157TIP3   OH239885   5.559   2.203   6.636  0.2635 -0.7143  0.2628
 6157TIP3    H139886   5.509   2.255   6.573  0.6774  0.2284  0.7071
 6157TIP3    H239887   5.518   2.221   6.720  0.9344 -0.4381  0.5370
 6158TIP3   OH239888   6.426   2.551   6.515  1.0177 -0.4541 -0.2544
 6158TIP3    H139889   6.337   2.515   6.523  0.9001 -0.0575  0.2587
 6158TIP3    H239890   6.413   2.642   6.488  1.2515 -0.2956  0.1622
 6159TIP3   OH239891   0.650   3.555  10.837 -0.2303  0.6349  0.2177
 6159TIP3    H139892   0.583   3.622  10.845  1.9429  2.8282  0.7697
 6159TIP3    H239893   0.731   3.604  10.821  0.8481 -2.0277 -3.1596
 6160TIP3   OH239894   3.937   2.601  13.591 -0.1247  0.5127 -0.1295
 6160TIP3    H139895   3.870   2.549  13.636  0.3636 -0.6149 -0.7134
 6160TIP3    H239896   4.014   2.595  13.647 -0.6241  2.1764  0.7695
 6161TIP3   OH239897   6.143   4.363   2.093  0.3283 -0.5976 -0.1206
 6161TIP3    H139898   6.121   4.402   2.008  0.7667 -1.3371 -0.5860
 6161TIP3    H239899   6.080   4.400   2.154  0.5082  0.5472 -0.6271
 6162TIP3   OH239900   1.713   1.154  11.288 -0.0071 -0.7915  0.5526
 6162TIP3    H139901   1.736   1.219  11.221 -1.6543  0.1098  0.8414
 6162TIP3    H239902   1.797   1.115  11.313  0.9146  0.6195 -0.2477
 6163TIP3   OH239903   5.245   6.187  15.301  0.2927 -0.0204 -0.2211
 6163TIP3    H139904   5.282   6.188  15.389  0.4038  0.4617 -0.2745
 6163TIP3    H239905   5.164   6.236  15.308  0.1926 -0.1697 -0.3381
 6164TIP3   OH239906   4.640   1.896  15.455 -0.8076 -0.2436 -0.3022
 6164TIP3    H139907   4.657   1.964  15.520  0.0516  0.8813 -1.6727
 6164TIP3    H239908   4.703   1.913  15.385 -0.0514 -2.9507 -0.3220
 6165TIP3   OH239909   5.353   4.422  14.199 -0.7274 -0.2224 -0.0102
 6165TIP3    H139910   5.438   4.427  14.242 -0.3035  0.9611 -0.9550
 6165TIP3    H239911   5.334   4.512  14.172 -1.1589 -0.8728 -1.9273
 6166TIP3   OH239912   3.585   4.371   4.548  0.3962  0.8174 -0.2625
 6166TIP3    H139913   3.663   4.424   4.565  1.1771  0.2341 -1.8899
 6166TIP3    H239914   3.617   4.281   4.548 -0.0133  0.6416 -2.1803
 6167TIP3   OH239915   0.929   0.587  15.359  0.0705  0.7074 -0.0340
 6167TIP3    H139916   0.915   0.678  15.387 -3.2606  0.2412  0.0584
 6167TIP3    H239917   0.904   0.535  15.436  3.2767 -0.3143  0.3880
 6168TIP3   OH239918   3.186   3.059   4.586 -0.0411 -0.0261 -0.8033
 6168TIP3    H139919   3.259   3.048   4.648  0.3027  2.5751 -0.6990
 6168TIP3    H239920   3.118   3.103   4.637 -0.5079  0.3595 -1.7547
 6169TIP3   OH239921   4.848   3.278  16.925 -0.3045  0.2792  0.4263
 6169TIP3    H139922   4.753   3.291  16.919 -0.6794 -2.0467  0.7667
 6169TIP3    H239923   4.858   3.184  16.944  2.0948  0.2840 -0.6470
 6170TIP3   OH239924   6.677   1.126  14.696  0.3190 -0.3374 -0.4365
 6170TIP3    H139925   6.644   1.061  14.758  1.1831 -0.1942  0.1960
 6170TIP3    H239926   6.772   1.113  14.698  0.3017 -0.8042 -2.2664
 6171TIP3   OH239927   2.268   0.579  10.294 -0.5916 -0.3756 -0.1734
 6171TIP3    H139928   2.209   0.649  10.324 -0.3158  0.1233 -0.7892
 6171TIP3    H239929   2.356   0.612  10.315 -0.4349 -0.3152 -0.9120
 6172TIP3   OH239930   2.711   0.893   2.176  0.1781  0.0322  0.0320
 6172TIP3    H139931   2.787   0.854   2.133  0.0876 -0.1222  0.0130
 6172TIP3    H239932   2.660   0.931   2.105  0.3727  0.3693  0.0717
 6173TIP3   OH239933   6.101   5.844   4.856 -0.0158  0.3200  0.6021
 6173TIP3    H139934   6.193   5.842   4.881  0.0327  0.4560  0.4363
 6173TIP3    H239935   6.099   5.804   4.769  0.1810  2.2002 -0.2848
 6174TIP3   OH239936   0.049   3.179  13.218 -0.7127 -0.3667  0.2710
 6174TIP3    H139937   0.104   3.101  13.212  0.9259  0.7502  0.6224
 6174TIP3    H239938   0.006   3.184  13.132  0.2976 -0.8185 -0.2653
 6175TIP3   OH239939   1.314   5.924  11.675  0.0155  0.0780 -0.3038
 6175TIP3    H139940   1.278   5.847  11.719 -1.3422  0.1444 -1.2640
 6175TIP3    H239941   1.241   5.959  11.625  0.4995  2.2606  0.4733
 6176TIP3   OH239942   2.040   4.267  14.465 -0.4008  0.1354 -0.3219
 6176TIP3    H139943   2.077   4.190  14.507 -0.5201 -0.2352 -0.8959
 6176TIP3    H239944   2.017   4.238  14.377  0.1844  1.0127 -0.7672
 6177TIP3   OH239945   5.206   6.743   4.840  0.2711 -0.3549  0.0134
 6177TIP3    H139946   5.177   6.827   4.804  2.6865  0.5482  0.0391
 6177TIP3    H239947   5.256   6.703   4.768  1.9822 -0.2185  1.0896
 6178TIP3   OH239948   1.558   5.813  14.600  0.5871  0.0544 -0.0011
 6178TIP3    H139949   1.573   5.763  14.520  0.8627  0.0853  0.0288
 6178TIP3    H239950   1.638   5.800  14.651 -0.4290 -1.7379  1.2008
 6179TIP3   OH239951   3.796   3.617   1.857  0.5972 -0.7048  0.3726
 6179TIP3    H139952   3.800   3.644   1.949 -1.2072  0.0455  0.2352
 6179TIP3    H239953   3.848   3.683   1.811  1.4712 -1.0580  0.8199
 6180TIP3   OH239954   5.825   3.384   5.824  0.2468  0.4817  0.4132
 6180TIP3    H139955   5.847   3.321   5.755 -0.6711 -0.0110  0.5523
 6180TIP3    H239956   5.745   3.426   5.792  0.2105  0.7416  0.8568
 6181TIP3   OH239957   2.568   5.173   2.796 -0.4857 -0.5533  0.4852
 6181TIP3    H139958   2.501   5.241   2.799 -0.5131 -0.5014 -1.0044
 6181TIP3    H239959   2.619   5.186   2.876 -1.5631  0.1041  1.0789
 6182TIP3   OH239960   6.365   1.439  14.968 -0.0644 -0.0313 -0.2089
 6182TIP3    H139961   6.361   1.375  14.897 -1.8345  0.0372 -0.2124
 6182TIP3    H239962   6.359   1.524  14.925 -0.7731  0.0217 -0.0182
 6183TIP3   OH239963   0.991   5.854  17.145  0.0600 -1.2515 -0.1091
 6183TIP3    H139964   0.901   5.856  17.178 -0.7151 -0.0055 -2.1826
 6183TIP3    H239965   0.994   5.776  17.089 -0.5621  0.1706 -2.1774
 6184TIP3   OH239966   1.943   5.484  11.040 -0.1883 -0.2290 -0.0960
 6184TIP3    H139967   1.899   5.528  10.968 -1.3957 -1.5470 -0.1939
 6184TIP3    H239968   2.012   5.432  10.999 -0.6244 -0.6728 -0.2739
 6185TIP3   OH239969   5.904   5.529   4.054  0.1760 -0.0451 -0.1689
 6185TIP3    H139970   5.850   5.533   4.134 -0.9070 -1.6077 -0.8037
 6185TIP3    H239971   5.852   5.576   3.988 -0.8609 -2.3404 -1.0191
 6186TIP3   OH239972   5.702   5.932  15.594 -0.2568  0.0933  0.0807
 6186TIP3    H139973   5.711   5.871  15.667  0.7043 -1.3724 -1.2304
 6186TIP3    H239974   5.610   5.925  15.568 -0.1730 -0.7794 -0.0184
 6187TIP3   OH239975   4.743   3.615   3.964 -0.3802  0.2077  0.6514
 6187TIP3    H139976   4.660   3.631   4.008 -2.0088 -2.0454 -1.5082
 6187TIP3    H239977   4.733   3.656   3.878  0.3306 -0.9843 -0.0072
 6188TIP3   OH239978   1.704   4.750   2.984  0.7895  0.3367 -0.5338
 6188TIP3    H139979   1.792   4.746   2.946  1.2826  2.3832  0.3424
 6188TIP3    H239980   1.714   4.803   3.062 -1.4023  1.3612 -0.9110
 6189TIP3   OH239981   2.046   1.873  16.838 -0.2620  0.1833  0.3217
 6189TIP3    H139982   1.977   1.893  16.901  0.1505  1.9103  0.2616
 6189TIP3    H239983   2.127   1.899  16.882  0.2549 -0.7968 -0.0297
 6190TIP3   OH239984   6.231   4.202  12.884 -0.0470 -0.2954  0.3429
 6190TIP3    H139985   6.138   4.220  12.873 -0.2404 -1.8475 -0.7964
 6190TIP3    H239986   6.264   4.275  12.936 -1.4025  1.6135 -1.3912
 6191TIP3   OH239987   1.815   3.090  12.036 -0.5438 -0.1405  0.1616
 6191TIP3    H139988   1.895   3.140  12.021 -0.3273 -0.2132  1.0686
 6191TIP3    H239989   1.801   3.043  11.954 -0.3363  0.8193 -0.4361
 6192TIP3   OH239990   0.863   3.292  12.277  0.3370  0.1048  0.1478
 6192TIP3    H139991   0.877   3.325  12.366  0.3439  0.3082  0.0725
 6192TIP3    H239992   0.793   3.227  12.286  1.2133 -0.8016  0.5035
 6193TIP3   OH239993   6.641   6.512   4.880  0.0132 -0.8715  0.2443
 6193TIP3    H139994   6.611   6.423   4.861  0.0408 -1.3068  2.0691
 6193TIP3    H239995   6.704   6.501   4.952  1.2579  0.4685 -0.6112
 6194TIP3   OH239996   0.741   2.568   0.680  0.7976  0.7662 -0.3403
 6194TIP3    H139997   0.645   2.567   0.686  0.6565 -0.2664 -2.4797
 6194TIP3    H239998   0.763   2.489   0.632  2.6427  1.7223 -1.1151
 6195TIP3   OH239999   2.053   1.570  10.577 -0.0967 -0.5357  0.5869
 6195TIP3    H140000   2.055   1.476  10.594  0.3499 -0.5408  0.5029
 6195TIP3    H240001   1.979   1.582  10.516 -0.5747 -0.7410  1.1203
 6196TIP3   OH240002   4.311   2.303  14.641 -0.6461  0.6237  0.2654
 6196TIP3    H140003   4.295   2.228  14.585 -0.5464  1.2631 -0.6310
 6196TIP3    H240004   4.285   2.379  14.588 -0.9091  1.2037  1.2167
 6197TIP3   OH240005   5.103   0.045   2.060 -0.2767 -0.3732  0.3221
 6197TIP3    H140006   5.130   0.002   1.979  0.6974  0.7329  0.0429
 6197TIP3    H240007   5.105  -0.024   2.126  0.0161 -1.0352 -0.3792
 6198TIP3   OH240008   5.211   4.472   5.535 -0.1693  0.1375 -0.0597
 6198TIP3    H140009   5.186   4.416   5.609  0.4692  2.4553  1.9632
 6198TIP3    H240010   5.304   4.489   5.549  0.1649 -0.1324 -1.9153
 6199TIP3   OH240011   5.299   0.015  12.642  0.0814 -0.3791 -0.3409
 6199TIP3    H140012   5.336  -0.022  12.722 -0.2923  2.4488  1.2223
 6199TIP3    H240013   5.217  -0.032  12.630 -0.0333 -0.6008  1.1472
 6200TIP3   OH240014   1.143   4.627  16.428 -0.0638  0.4348  0.7804
 6200TIP3    H140015   1.063   4.679  16.426 -0.3606 -0.0301  0.5827
 6200TIP3    H240016   1.163   4.618  16.522  0.5021  1.6788  0.7914
 6201TIP3   OH240017   2.716   4.932  11.590  0.3265 -0.8778 -0.3726
 6201TIP3    H140018   2.689   4.841  11.585  0.2849 -0.9515  0.9210
 6201TIP3    H240019   2.645   4.976  11.637  0.2680 -0.1372 -1.1293
 6202TIP3   OH240020   0.992   2.421  13.687  0.0529  0.0364 -0.3568
 6202TIP3    H140021   0.927   2.472  13.638  0.9835  0.2082 -1.4153
 6202TIP3    H240022   0.943   2.345  13.719 -0.5841 -0.0210 -1.4423
 6203TIP3   OH240023   4.516   3.761  11.737 -0.0152  0.1602  0.5134
 6203TIP3    H140024   4.561   3.727  11.814 -0.0727  1.6967  1.2534
 6203TIP3    H240025   4.429   3.721  11.740  0.1399 -0.1379  0.9858
 6204TIP3   OH240026   2.385   4.082  14.703 -0.0727 -0.1407  0.5924
 6204TIP3    H140027   2.467   4.131  14.697  0.0750 -0.6484 -2.2033
 6204TIP3    H240028   2.371   4.048  14.615 -3.5025  0.2908  0.8915
 6205TIP3   OH240029   3.542   0.309   3.588 -0.3039  0.1434 -0.3546
 6205TIP3    H140030   3.566   0.307   3.496 -2.1787 -0.1268 -0.8595
 6205TIP3    H240031   3.536   0.402   3.610 -0.3505  0.2047 -0.6332
 6206TIP3   OH240032   3.434   4.304   2.711  0.8767 -0.0549 -0.3717
 6206TIP3    H140033   3.488   4.382   2.700 -0.3431  1.0998  1.5633
 6206TIP3    H240034   3.383   4.298   2.630 -0.3320  2.2120  0.1854
 6207TIP3   OH240035   4.947   4.303   4.055 -0.0926  0.4970  0.6333
 6207TIP3    H140036   4.855   4.329   4.055 -0.5201 -0.8520 -1.4438
 6207TIP3    H240037   4.948   4.219   4.101 -0.3535 -0.7927 -1.6372
 6208TIP3   OH240038   3.778   4.357  12.893  0.9645  0.0265 -0.3975
 6208TIP3    H140039   3.690   4.323  12.876  0.4895  0.8905  0.2549
 6208TIP3    H240040   3.824   4.349  12.810 -0.2546  1.0798 -1.2023
 6209TIP3   OH240041   0.044   2.758   5.063  0.5484 -0.1603 -0.4739
 6209TIP3    H140042   0.072   2.684   5.117 -0.6909  0.0852  0.5187
 6209TIP3    H240043   0.109   2.762   4.993  0.9646 -1.8172 -0.2055
 6210TIP3   OH240044   6.617   5.968   1.751  0.2279  0.2153 -0.3168
 6210TIP3    H140045   6.618   5.995   1.843  0.0091 -1.5966  0.2224
 6210TIP3    H240046   6.664   6.038   1.705  2.5576 -0.0856  1.5141
 6211TIP3   OH240047   0.158   3.757   5.734 -0.3018 -0.0630  0.8273
 6211TIP3    H140048   0.194   3.754   5.823  0.3595 -1.2808  0.5217
 6211TIP3    H240049   0.079   3.703   5.738 -0.6013  0.3735  0.8217
 6212TIP3   OH240050   2.582   2.744   0.947 -0.0346  0.3308 -0.2168
 6212TIP3    H140051   2.610   2.670   1.002 -0.4049  0.6736  0.4365
 6212TIP3    H240052   2.617   2.724   0.860  0.0186 -0.5312 -0.0020
 6213TIP3   OH240053   4.379   5.580  12.173 -0.0018  0.0822  0.0888
 6213TIP3    H140054   4.286   5.570  12.193 -0.0229 -0.3917 -0.2387
 6213TIP3    H240055   4.393   5.528  12.094  0.3588  0.8486 -0.3644
 6214TIP3   OH240056   6.141   4.000   3.380 -0.0239  0.2053  0.6155
 6214TIP3    H140057   6.102   3.975   3.296  1.8990  0.1589 -0.3082
 6214TIP3    H240058   6.211   3.936   3.394  2.2982  2.5649  0.2335
 6215TIP3   OH240059   2.795   5.912  14.399  0.3271  0.8962 -0.3847
 6215TIP3    H140060   2.874   5.907  14.344  0.9882  0.9041  0.5544
 6215TIP3    H240061   2.824   5.881  14.485 -1.2760 -1.4889 -0.6506
 6216TIP3   OH240062   1.742   2.345   3.351 -0.2331 -0.6992  0.1625
 6216TIP3    H140063   1.692   2.318   3.428 -0.3193  0.8625  0.6772
 6216TIP3    H240064   1.689   2.316   3.276 -1.1290 -0.4750  0.7007
 6217TIP3   OH240065   5.590   1.164   4.640 -0.0224 -0.3104  0.0183
 6217TIP3    H140066   5.602   1.080   4.596 -1.5716 -1.0840  1.0513
 6217TIP3    H240067   5.632   1.228   4.581  2.8158 -1.9844  0.1289
 6218TIP3   OH240068   2.360   0.160   5.159 -0.0355 -0.3068 -0.3167
 6218TIP3    H140069   2.394   0.071   5.145  1.8810  0.4545 -0.6999
 6218TIP3    H240070   2.424   0.217   5.115 -1.7136  1.2090 -0.8333
 6219TIP3   OH240071   5.429   0.566  11.092  0.6185  0.0265 -0.1156
 6219TIP3    H140072   5.431   0.657  11.062  0.5786  0.4823  1.2271
 6219TIP3    H240073   5.514   0.530  11.066  0.6446  0.4518 -0.6265
 6220TIP3   OH240074   1.144   2.763  14.935  0.1134 -0.5537 -0.4422
 6220TIP3    H140075   1.223   2.816  14.926  0.6353 -1.3629 -0.6960
 6220TIP3    H240076   1.094   2.780  14.856  0.4562 -0.7222 -0.6957
 6221TIP3   OH240077   0.661   5.793  13.153  0.8493  0.1720  0.3826
 6221TIP3    H140078   0.702   5.875  13.179  0.1515  0.6067  0.1428
 6221TIP3    H240079   0.567   5.809  13.163  0.7880 -1.2977  2.3954
 6222TIP3   OH240080   1.313   4.520  15.857 -0.0713  0.0148 -0.5115
 6222TIP3    H140081   1.285   4.432  15.829 -0.4405 -0.0265 -0.0304
 6222TIP3    H240082   1.331   4.510  15.951  2.0837 -0.0749 -0.9093
 6223TIP3   OH240083   3.285   6.242   4.019 -0.5476  0.0466  0.6851
 6223TIP3    H140084   3.374   6.217   4.043 -0.6965 -1.3950 -0.2109
 6223TIP3    H240085   3.293   6.331   3.985  0.6193 -0.2109  0.2636
 6224TIP3   OH240086   5.853   2.148  11.224 -0.5532 -0.0470  0.5106
 6224TIP3    H140087   5.807   2.107  11.151  1.3045 -0.7018 -0.3355
 6224TIP3    H240088   5.903   2.219  11.184  0.2614 -0.2322  1.1785
 6225TIP3   OH240089   2.660   2.768  15.015  0.7004 -0.2253  0.0981
 6225TIP3    H140090   2.691   2.677  15.010  0.2653 -0.3644 -0.1584
 6225TIP3    H240091   2.634   2.779  15.107  2.4341  0.2107  0.5450
 6226TIP3   OH240092   3.562   2.956  15.218  0.0516 -0.2189 -0.3465
 6226TIP3    H140093   3.628   2.996  15.275  1.3009 -3.0963  0.3265
 6226TIP3    H240094   3.593   2.975  15.129 -0.2084  1.5789 -0.0729
 6227TIP3   OH240095   1.223   2.900  14.208  0.2795  0.2091 -0.4862
 6227TIP3    H140096   1.144   2.913  14.155  0.0938 -1.4045 -0.6148
 6227TIP3    H240097   1.204   2.946  14.290 -0.2513  0.9715 -1.0255
 6228TIP3   OH240098   1.458   6.073  14.940 -0.5976  0.1773  0.7826
 6228TIP3    H140099   1.380   6.048  14.890 -0.3311  1.0160 -0.0567
 6228TIP3    H240100   1.433   6.058  15.031 -1.4674 -0.3120  0.4758
 6229TIP3   OH240101   1.329   1.967   0.223 -0.7099  0.3150  0.1718
 6229TIP3    H140102   1.333   2.059   0.197 -1.4586  0.1074 -0.7110
 6229TIP3    H240103   1.389   1.960   0.298  0.4178  1.2240 -0.6253
 6230TIP3   OH240104   6.042   5.167   6.362 -0.1133  0.1831  0.1106
 6230TIP3    H140105   6.114   5.156   6.424  0.8449 -0.9921 -1.1991
 6230TIP3    H240106   6.082   5.205   6.285 -1.2466  1.2923  0.0474
 6231TIP3   OH240107   1.121   0.096   3.142 -0.1588  0.5274  0.7297
 6231TIP3    H140108   1.037   0.133   3.115  0.7448  1.2031 -1.3018
 6231TIP3    H240109   1.170   0.171   3.177 -0.0491  0.3403  0.9752
 6232TIP3   OH240110   5.131   5.545  11.661 -0.1626 -0.0214 -0.0384
 6232TIP3    H140111   5.145   5.503  11.747 -1.2001  0.3736  0.3254
 6232TIP3    H240112   5.063   5.492  11.619 -0.1140  0.1682 -0.3548
 6233TIP3   OH240113   3.777   2.314  11.886  0.4293 -0.3998  0.1458
 6233TIP3    H140114   3.807   2.400  11.858 -1.0009 -0.2039 -0.8444
 6233TIP3    H240115   3.852   2.277  11.933  1.4013  0.9753 -0.2706
 6234TIP3   OH240116   4.883   0.202  16.462  0.3240 -0.5197 -0.0103
 6234TIP3    H140117   4.793   0.221  16.488  0.5812  0.0189  0.5129
 6234TIP3    H240118   4.935   0.268  16.508  1.1907 -2.0764  1.3079
 6235TIP3   OH240119   3.152   5.801   2.960  0.0913  0.1679 -0.1950
 6235TIP3    H140120   3.114   5.827   2.877  0.3193 -1.3950 -0.8155
 6235TIP3    H240121   3.082   5.814   3.024 -1.0817 -1.4522 -1.1121
 6236TIP3   OH240122   5.502   0.444  14.803 -0.2445 -0.0561  0.1091
 6236TIP3    H140123   5.434   0.472  14.741  2.2987  3.6159 -1.1552
 6236TIP3    H240124   5.470   0.473  14.888 -0.6721  0.8002 -0.3382
 6237TIP3   OH240125   2.544   2.378   4.376  0.0206 -0.1534  0.5270
 6237TIP3    H140126   2.552   2.382   4.472 -1.7338 -0.6556  0.7108
 6237TIP3    H240127   2.451   2.361   4.361  0.2439  0.1955 -1.2844
 6238TIP3   OH240128   4.956   2.545   2.520 -0.8113 -0.1496  0.3297
 6238TIP3    H140129   4.895   2.610   2.485 -1.5806 -1.4470 -0.8417
 6238TIP3    H240130   4.990   2.500   2.442 -0.5657 -1.3574  1.1207
 6239TIP3   OH240131   2.630   2.510   6.077 -0.0257 -0.1230 -0.4025
 6239TIP3    H140132   2.725   2.504   6.086 -0.0413  0.3195  0.0468
 6239TIP3    H240133   2.596   2.493   6.165 -0.2476  2.6677  0.0803
 6240TIP3   OH240134   2.102   0.358   2.707 -0.5289  0.6510 -0.3997
 6240TIP3    H140135   2.173   0.294   2.698 -0.3161  1.0410 -1.5673
 6240TIP3    H240136   2.074   0.350   2.798 -0.0685 -0.6484 -0.3645
 6241TIP3   OH240137   1.009   0.395   5.505 -0.5420  0.8219 -0.1529
 6241TIP3    H140138   1.072   0.432   5.568 -0.7800  0.0752  0.5269
 6241TIP3    H240139   0.924   0.414   5.543 -0.6452 -2.0875  1.1792
 6242TIP3   OH240140   2.270   2.610   1.698  0.2629 -0.7861  0.9159
 6242TIP3    H140141   2.257   2.526   1.741  0.1349 -1.1729  0.1330
 6242TIP3    H240142   2.365   2.618   1.687  0.3001 -0.6507  1.3372
 6243TIP3   OH240143   1.084   5.075   3.818 -0.7624  0.4636  0.8359
 6243TIP3    H140144   1.147   5.134   3.857  1.2700  0.2086 -1.8981
 6243TIP3    H240145   1.115   4.987   3.843  0.2924  0.3201 -0.8524
 6244TIP3   OH240146   3.103   6.298   1.253  0.2067 -0.1630 -0.3297
 6244TIP3    H140147   3.055   6.247   1.188 -1.9466  1.2858  0.0893
 6244TIP3    H240148   3.065   6.270   1.337  1.4295 -0.3884  0.1631
 6245TIP3   OH240149   1.651   5.292   0.476  0.1437  0.1927  0.2929
 6245TIP3    H140150   1.655   5.198   0.456  0.8921  0.2952 -0.0481
 6245TIP3    H240151   1.604   5.297   0.559 -0.3606 -0.4485  0.0513
 6246TIP3   OH240152   0.793   5.884  16.605 -0.2426  0.2641 -0.4003
 6246TIP3    H140153   0.857   5.945  16.642 -0.5228  0.4878 -0.2801
 6246TIP3    H240154   0.845   5.809  16.576 -0.2544 -1.0700  2.7873
 6247TIP3   OH240155   5.486   0.649  14.063  0.5075  0.2778  0.4044
 6247TIP3    H140156   5.510   0.736  14.031 -1.3204  1.3663  1.9227
 6247TIP3    H240157   5.395   0.638  14.037 -0.0901 -0.0569  2.5754
 6248TIP3   OH240158   2.454   6.489   2.733 -0.3302 -0.5897  0.4155
 6248TIP3    H140159   2.455   6.533   2.818  0.5231 -0.6231  0.4327
 6248TIP3    H240160   2.506   6.547   2.677 -1.7438 -0.0518 -0.3514
 6249TIP3   OH240161   0.290   2.007   6.377  0.2302  1.1940  0.1906
 6249TIP3    H140162   0.331   1.961   6.449 -0.7056  0.1163  0.0406
 6249TIP3    H240163   0.349   1.993   6.302  0.0426  0.3880  0.1896
 6250TIP3   OH240164   3.583   5.707   2.907 -0.7817 -0.6596 -0.1995
 6250TIP3    H140165   3.504   5.696   2.960 -0.3024 -1.8889  0.2751
 6250TIP3    H240166   3.643   5.756   2.964 -0.6946 -0.9581 -0.0313
 6251TIP3   OH240167   3.692   6.351  12.062 -0.1990 -0.6650 -0.4683
 6251TIP3    H140168   3.642   6.432  12.050  0.1350  0.0625  2.6345
 6251TIP3    H240169   3.771   6.364  12.011  0.4058  1.5116  0.9295
 6252TIP3   OH240170   3.741   3.830   2.045  0.0621 -0.2549  0.5497
 6252TIP3    H140171   3.689   3.890   1.991 -1.1910 -1.6087  0.2055
 6252TIP3    H240172   3.716   3.851   2.135  0.6076  0.6106  0.5087
 6253TIP3   OH240173   5.725   4.909  15.536 -0.6480  0.4784  0.1534
 6253TIP3    H140174   5.662   4.945  15.599  0.3400  0.5692  1.1065
 6253TIP3    H240175   5.805   4.896  15.587  0.0423  0.1562 -0.9927
 6254TIP3   OH240176   4.469   2.780  13.069  0.2677  0.1186 -0.1328
 6254TIP3    H140177   4.487   2.750  12.980  0.1078  1.4929 -0.6433
 6254TIP3    H240178   4.431   2.867  13.058  0.5948  0.4648  1.3012
 6255TIP3   OH240179   0.182   4.043  12.518  0.0654  0.1205 -0.0081
 6255TIP3    H140180   0.202   4.123  12.470  0.1183  1.5448  2.3055
 6255TIP3    H240181   0.235   3.976  12.475  1.0394  1.5814 -1.1537
 6256TIP3   OH240182   0.668   0.972  13.000  0.3490 -0.2102 -0.0635
 6256TIP3    H140183   0.723   1.051  13.010  0.8193 -0.5624  0.1734
 6256TIP3    H240184   0.719   0.914  12.943 -0.2266 -0.1391 -0.6580
 6257TIP3   OH240185   2.357   0.261   2.411 -0.2649 -0.3622  0.4619
 6257TIP3    H140186   2.437   0.313   2.412 -0.2189 -0.4203  2.2861
 6257TIP3    H240187   2.364   0.205   2.489 -0.9028 -2.1798 -0.7548
 6258TIP3   OH240188   4.420   3.238  11.950  0.0327  0.1809 -0.0006
 6258TIP3    H140189   4.400   3.187  12.029 -0.9967 -0.3183 -0.5746
 6258TIP3    H240190   4.334   3.259  11.914  0.4792  1.3093 -0.4171
 6259TIP3   OH240191   4.596   1.095  15.396  0.0342  0.2558 -0.2401
 6259TIP3    H140192   4.637   1.008  15.403 -0.6021 -0.0769 -0.5890
 6259TIP3    H240193   4.662   1.149  15.354 -0.2042 -0.4982 -1.6073
 6260TIP3   OH240194   3.630   5.510  14.877  0.2445  0.0290 -0.1669
 6260TIP3    H140195   3.693   5.577  14.849  1.7547 -0.9728  0.7524
 6260TIP3    H240196   3.678   5.427  14.868 -0.3809 -0.6079  2.0748
 6261TIP3   OH240197   6.622   4.869   1.566 -0.5510  0.2779  0.1022
 6261TIP3    H140198   6.669   4.786   1.573 -0.7990  0.1702  0.5673
 6261TIP3    H240199   6.691   4.936   1.564 -0.3142 -0.0147 -1.6370
 6262TIP3   OH240200   6.701   3.213  12.975 -0.7679  0.2690 -0.4841
 6262TIP3    H140201   6.726   3.140  12.918  0.4550  0.0280  0.3493
 6262TIP3    H240202   6.644   3.268  12.921 -0.8526 -0.7555 -1.4437
 6263TIP3   OH240203   0.870   6.168  14.023  0.0572  0.2013  0.0045
 6263TIP3    H140204   0.929   6.102  13.987 -0.4751 -0.0155 -0.4842
 6263TIP3    H240205   0.826   6.124  14.096 -0.6250 -0.1317 -0.6025
 6264TIP3   OH240206   2.855   3.120   3.815  0.2711 -0.1394  0.1691
 6264TIP3    H140207   2.826   3.209   3.795  0.5683 -0.1344 -0.2416
 6264TIP3    H240208   2.795   3.091   3.884 -1.4632 -0.5466 -1.4782
 6265TIP3   OH240209   1.263   3.216   1.341 -0.0822  1.0303  1.2850
 6265TIP3    H140210   1.298   3.150   1.402  1.4136 -0.5294 -1.1795
 6265TIP3    H240211   1.174   3.185   1.322 -0.0250  0.7109  1.5167
 6266TIP3   OH240212   1.660   4.407   0.540 -0.1963  0.2647  0.8041
 6266TIP3    H140213   1.627   4.492   0.569 -2.5274 -1.0719  2.2754
 6266TIP3    H240214   1.586   4.368   0.493  0.3831 -1.4830  1.3140
 6267TIP3   OH240215   1.573   4.791   2.410  0.2360 -0.1101 -0.3627
 6267TIP3    H140216   1.606   4.859   2.351  1.7223  0.4335  1.0756
 6267TIP3    H240217   1.622   4.803   2.491 -0.6265 -1.8887  0.4519
 6268TIP3   OH240218   0.751   1.507   0.860 -0.1566  0.1847  0.4464
 6268TIP3    H140219   0.782   1.577   0.802 -0.4858 -0.2508 -0.2633
 6268TIP3    H240220   0.669   1.477   0.820  0.4819 -1.2844  0.1684
 6269TIP3   OH240221   6.344   1.281  16.274  0.0137 -0.1114 -0.0610
 6269TIP3    H140222   6.255   1.316  16.267 -0.6131 -1.6308  0.0214
 6269TIP3    H240223   6.394   1.328  16.208 -1.0353  0.2219 -0.6306
 6270TIP3   OH240224   6.413   5.796  11.548  0.0509  0.1580  0.5512
 6270TIP3    H140225   6.384   5.885  11.525 -1.4384 -0.6613 -0.8628
 6270TIP3    H240226   6.369   5.739  11.485  2.6705 -1.4272  0.0580
 6271TIP3   OH240227   5.185   2.817   4.296 -0.4287  0.3947  0.0155
 6271TIP3    H140228   5.156   2.859   4.376  0.5345 -1.4248  1.3698
 6271TIP3    H240229   5.150   2.728   4.301  1.8920 -0.5750 -0.2439
 6272TIP3   OH240230   4.470   3.349  13.199 -0.0470  0.0395 -0.1723
 6272TIP3    H140231   4.549   3.296  13.210 -0.3029 -0.3013  0.0254
 6272TIP3    H240232   4.398   3.286  13.204 -0.2779  0.1964 -1.4772
 6273TIP3   OH240233   6.055   0.191   1.483  0.0767 -0.0911 -0.3150
 6273TIP3    H140234   6.026   0.108   1.522  1.9810 -0.6899 -0.1372
 6273TIP3    H240235   6.090   0.241   1.557 -1.1253  0.9101 -0.4125
 6274TIP3   OH240236   0.806   5.336   4.145  0.4676  0.5636 -0.1027
 6274TIP3    H140237   0.821   5.324   4.238 -0.6016 -1.3442 -0.1585
 6274TIP3    H240238   0.890   5.316   4.104  0.0358 -2.0123  0.2036
 6275TIP3   OH240239   0.178   5.873   3.677  0.8448  0.0040  0.3303
 6275TIP3    H140240   0.173   5.785   3.715  2.8066 -0.2473  0.1003
 6275TIP3    H240241   0.108   5.876   3.612  1.0418 -1.5509  0.0358
 6276TIP3   OH240242   3.517   1.925  17.195 -0.5562  0.2170  0.2255
 6276TIP3    H140243   3.508   1.856  17.260 -1.8932  0.8153  0.6800
 6276TIP3    H240244   3.477   1.890  17.116 -2.4485  0.9662  0.8316
 6277TIP3   OH240245   2.871   0.763   1.990 -0.4842 -0.4172  0.4157
 6277TIP3    H140246   2.866   0.806   1.904 -1.2852 -2.2330 -0.4955
 6277TIP3    H240247   2.959   0.727   1.993  0.1523  1.1722  1.1360
 6278TIP3   OH240248   6.429   3.359  14.166 -0.2512 -0.0308  0.2440
 6278TIP3    H140249   6.474   3.399  14.092 -2.4525  0.4334 -0.8815
 6278TIP3    H240250   6.361   3.304  14.126 -2.1201  0.9944  1.9254
 6279TIP3   OH240251   3.292   5.386  15.784 -0.2485 -0.1104  0.0055
 6279TIP3    H140252   3.353   5.327  15.828  1.5780  0.4205 -1.7241
 6279TIP3    H240253   3.311   5.472  15.820  1.3634  0.3528 -1.8191
 6280TIP3   OH240254   2.762   6.155  17.124  0.7121  0.0133  0.1340
 6280TIP3    H140255   2.775   6.101  17.045 -2.9134 -0.7255 -0.0435
 6280TIP3    H240256   2.709   6.229  17.094  0.8395  0.6785  1.5305
 6281TIP3   OH240257   4.351   3.492  14.464 -0.5358  0.3345 -0.1904
 6281TIP3    H140258   4.349   3.417  14.524  1.2354  0.2182 -0.2600
 6281TIP3    H240259   4.290   3.468  14.394 -1.4513 -0.1944  0.7641
 6282TIP3   OH240260   1.655   3.129  15.149 -0.0081 -0.0806  0.7311
 6282TIP3    H140261   1.709   3.156  15.075 -0.4726 -0.2351  0.3277
 6282TIP3    H240262   1.701   3.162  15.226  0.9810 -0.7576  0.4347
 6283TIP3   OH240263   4.671   5.294   0.251 -0.4626  0.3869  0.3297
 6283TIP3    H140264   4.634   5.275   0.165 -1.8553  1.4177  0.6825
 6283TIP3    H240265   4.736   5.363   0.234 -0.7540  0.6093  0.0997
 6284TIP3   OH240266   5.176   5.727   0.127  0.2019 -0.1736 -0.4302
 6284TIP3    H140267   5.132   5.798   0.175 -0.6096  0.2350 -1.7507
 6284TIP3    H240268   5.174   5.653   0.187 -1.4505  0.1179 -0.0949
 6285TIP3   OH240269   0.849   0.049  16.467  0.2953 -0.4542 -0.0753
 6285TIP3    H140270   0.906   0.053  16.543  2.3033  0.6833 -1.6086
 6285TIP3    H240271   0.853   0.136  16.429  0.3350 -1.3452 -2.2092
 6286TIP3   OH240272   2.957   6.087   0.555  0.2825 -0.3455 -0.2820
 6286TIP3    H140273   2.999   6.134   0.626  1.1063 -1.6496  0.1120
 6286TIP3    H240274   2.895   6.150   0.518  1.1641  0.9447  0.3917
 6287TIP3   OH240275   6.322   2.484   5.649  0.5241  0.2020 -0.6180
 6287TIP3    H140276   6.244   2.428   5.660 -0.0301  0.6771 -2.0002
 6287TIP3    H240277   6.394   2.430   5.682 -0.5193  0.2170  1.8573
 6288TIP3   OH240278   5.262   1.777  15.192  0.4468 -0.3007  0.3888
 6288TIP3    H140279   5.332   1.817  15.140 -0.5975 -0.4446 -1.1553
 6288TIP3    H240280   5.227   1.850  15.243  0.8627  0.0475  0.1930
 6289TIP3   OH240281   3.194   1.026   1.093 -0.1372  0.3592 -0.4859
 6289TIP3    H140282   3.135   0.956   1.065 -0.2415 -1.3985  3.7744
 6289TIP3    H240283   3.140   1.105   1.090 -1.6609 -0.6467 -0.0415
 6290TIP3   OH240284   6.320   1.324  12.883 -0.2113 -0.1545  0.7235
 6290TIP3    H140285   6.237   1.322  12.930 -0.3420  1.1406  0.5535
 6290TIP3    H240286   6.380   1.370  12.941 -0.1758  0.7969 -0.0477
 6291TIP3   OH240287   6.378   5.861   0.761 -0.0812  0.1752  0.3753
 6291TIP3    H140288   6.431   5.787   0.730  1.0296  2.0076 -2.2367
 6291TIP3    H240289   6.288   5.831   0.751  0.2178  0.4374 -4.3006
 6292TIP3   OH240290   5.808   6.123  13.365 -0.1958  0.3057 -0.4247
 6292TIP3    H140291   5.803   6.150  13.273 -3.3083  1.3570 -0.0053
 6292TIP3    H240292   5.734   6.063  13.376  1.9200 -2.2311  0.6854
 6293TIP3   OH240293   3.548   3.330   1.293  0.0128 -0.5148  0.5027
 6293TIP3    H140294   3.527   3.409   1.242  0.2454  0.5425  2.0177
 6293TIP3    H240295   3.602   3.278   1.233  1.1726  1.1822 -0.0019
 6294TIP3   OH240296   2.829   6.446  15.057 -0.0295 -0.0346  0.1282
 6294TIP3    H140297   2.890   6.455  14.983  1.7808 -0.3514  1.5486
 6294TIP3    H240298   2.820   6.535  15.091 -0.8976  0.1183 -0.4784
 6295TIP3   OH240299   1.940   0.447  16.223  0.3566  0.4662  0.0005
 6295TIP3    H140300   1.935   0.542  16.229  2.7803  0.8922 -3.5274
 6295TIP3    H240301   1.852   0.419  16.197 -0.0334  1.8486 -0.1939
 6296TIP3   OH240302   4.400   3.051  13.009 -0.6463  0.0402  0.1363
 6296TIP3    H140303   4.402   3.115  12.938 -1.5003  1.3505  1.2752
 6296TIP3    H240304   4.341   3.088  13.074 -1.3253 -2.0069  0.7416
 6297TIP3   OH240305   0.678   2.148  14.963  0.6325 -0.1650  0.0167
 6297TIP3    H140306   0.688   2.239  14.992 -0.7054 -0.5606  1.8079
 6297TIP3    H240307   0.611   2.152  14.894  1.3808  0.3442 -0.6884
 6298TIP3   OH240308   1.053   2.822  13.187  0.2801 -0.3041 -0.2569
 6298TIP3    H140309   0.972   2.873  13.184 -0.4295 -1.3777  0.1525
 6298TIP3    H240310   1.089   2.830  13.099 -0.5610 -0.2612 -0.6100
 6299TIP3   OH240311   0.145   1.472  16.166 -0.6509 -0.3301 -0.5875
 6299TIP3    H140312   0.239   1.485  16.183 -1.1307 -0.7167  2.6702
 6299TIP3    H240313   0.121   1.398  16.222 -3.0396  0.1359 -0.9692
 6300TIP3   OH240314   5.541   0.683  11.979  0.7524  0.4827  0.0213
 6300TIP3    H140315   5.513   0.762  12.025 -0.6211  0.2915 -0.4724
 6300TIP3    H240316   5.511   0.694  11.889 -2.0074 -1.8120  0.5801
 6301TIP3   OH240317   5.300   3.949   4.261 -0.3292  0.7990 -0.1826
 6301TIP3    H140318   5.275   3.999   4.183  1.8547  1.4797 -0.4683
 6301TIP3    H240319   5.268   4.002   4.334 -1.7952  0.4842 -0.5601
 6302TIP3   OH240320   5.041   2.565   0.229 -0.0244 -0.3184 -0.2549
 6302TIP3    H140321   5.123   2.599   0.265 -0.2849 -0.4327  0.4561
 6302TIP3    H240322   4.987   2.643   0.214 -0.3275 -0.3391  0.6459
 6303TIP3   OH240323   6.400   6.137  12.063  0.4701  0.4032  0.2885
 6303TIP3    H140324   6.430   6.047  12.081  0.7404  0.2890 -0.6784
 6303TIP3    H240325   6.309   6.138  12.094  0.7921  0.1176  1.2821
 6304TIP3   OH240326   1.715   5.699   6.365  0.3081 -0.3489  0.4274
 6304TIP3    H140327   1.641   5.693   6.425  1.3368  0.0089  1.7596
 6304TIP3    H240328   1.703   5.626   6.304 -0.5170 -1.0016  1.3561
 6305TIP3   OH240329   1.275   2.310  15.629  0.2671  0.3762  0.0443
 6305TIP3    H140330   1.204   2.246  15.615  0.7038 -0.6797  2.4444
 6305TIP3    H240331   1.260   2.377  15.562 -0.7874 -1.7216 -1.9172
 6306TIP3   OH240332   4.001   3.494   5.350 -0.4973 -0.5389 -0.3626
 6306TIP3    H140333   4.072   3.531   5.402 -0.0499 -0.7312 -0.8244
 6306TIP3    H240334   4.043   3.424   5.300 -1.3587 -1.7992  0.6352
 6307TIP3   OH240335   0.017   0.553  16.015 -0.2241  0.3330 -0.1592
 6307TIP3    H140336   0.049   0.525  15.930 -0.2317 -0.0179 -0.0443
 6307TIP3    H240337   0.073   0.627  16.039  0.0882  0.1267 -0.2518
 6308TIP3   OH240338   4.143   1.732   3.373  0.1279 -0.0758 -0.4058
 6308TIP3    H140339   4.190   1.815   3.382 -0.7750  0.4544 -0.5717
 6308TIP3    H240340   4.148   1.711   3.280  0.8691 -0.5213 -0.2751
 6309TIP3   OH240341   5.716   1.509   4.461 -0.7934 -0.1008  0.0931
 6309TIP3    H140342   5.749   1.494   4.550 -0.9911  0.4447  0.2634
 6309TIP3    H240343   5.730   1.603   4.447 -2.9568  0.2960  0.4539
 6310TIP3   OH240344   1.493   0.193   1.929  0.7269 -0.0085 -0.0435
 6310TIP3    H140345   1.555   0.127   1.959  0.3472 -0.5980 -0.5271
 6310TIP3    H240346   1.407   0.161   1.958  0.7007  1.0688  1.0827
 6311TIP3   OH240347   4.876   0.806  14.402  0.3558  0.1744  0.3082
 6311TIP3    H140348   4.805   0.804  14.465  0.6677  0.2229  0.6667
 6311TIP3    H240349   4.833   0.810  14.316 -0.0641  0.5467  0.5330
 6312TIP3   OH240350   3.147   0.341   3.515 -0.1538  0.0416  0.2535
 6312TIP3    H140351   3.242   0.338   3.530  0.5448 -0.1689 -3.5987
 6312TIP3    H240352   3.136   0.409   3.449 -2.7587  0.2714  0.8858
 6313TIP3   OH240353   6.354   3.751  14.073  0.1896  0.8775  0.2410
 6313TIP3    H140354   6.407   3.831  14.073  1.0624  0.3028  1.2142
 6313TIP3    H240355   6.307   3.753  14.156 -0.9248  1.1037 -0.3742
 6314TIP3   OH240356   3.175   0.021   5.495 -0.3338 -0.5180  0.5919
 6314TIP3    H140357   3.259  -0.026   5.494 -0.1953 -0.2806 -0.7360
 6314TIP3    H240358   3.112  -0.042   5.458 -0.4957 -0.2737  0.4491
 6315TIP3   OH240359   4.228   1.981  10.697  0.3203 -0.0510 -0.3533
 6315TIP3    H140360   4.253   2.014  10.783  0.5284 -1.1390  0.0077
 6315TIP3    H240361   4.218   1.887  10.709 -0.9743 -0.0458 -1.1967
 6316TIP3   OH240362   5.251   0.156   0.355  0.4575 -0.3052 -1.0127
 6316TIP3    H140363   5.255   0.067   0.390 -0.6088 -0.9078 -2.3508
 6316TIP3    H240364   5.227   0.144   0.263 -1.6727  1.4498 -0.7338
 6317TIP3   OH240365   5.018   6.003   3.173  0.2465  0.4274 -0.2559
 6317TIP3    H140366   5.079   5.946   3.127  0.8546  0.2223  0.7782
 6317TIP3    H240367   5.074   6.066   3.219 -0.2926  0.1072  0.8630
 6318TIP3   OH240368   1.058   2.463  14.654  0.0970 -1.0930 -0.3338
 6318TIP3    H140369   1.045   2.419  14.570 -2.1347  0.0026 -0.5885
 6318TIP3    H240370   1.047   2.556  14.635 -0.3986 -0.8346  1.1661
 6319TIP3   OH240371   2.760   1.160  11.189  0.8068  0.2839  0.5271
 6319TIP3    H140372   2.805   1.211  11.257 -0.8351  0.4241  1.5200
 6319TIP3    H240373   2.741   1.076  11.231  1.6810 -0.4252 -0.4599
 6320TIP3   OH240374   5.753   5.546  12.533 -0.2192 -0.1106 -0.1105
 6320TIP3    H140375   5.671   5.569  12.489  0.6549  1.5736 -0.8965
 6320TIP3    H240376   5.797   5.487  12.472  0.3483  1.1121 -0.9186
 6321TIP3   OH240377   0.998   4.895   6.734 -0.6367  0.3632 -0.6193
 6321TIP3    H140378   0.992   4.860   6.823 -1.3735 -0.8679 -1.1287
 6321TIP3    H240379   0.999   4.817   6.679  0.5235  1.0997 -1.6571
 6322TIP3   OH240380   0.994   5.762   6.537  0.9046  0.2479 -0.1543
 6322TIP3    H140381   1.041   5.750   6.619 -1.1363  0.4206  1.0669
 6322TIP3    H240382   1.010   5.682   6.488  0.7722 -0.5552  1.1000
 6323TIP3   OH240383   4.542   1.485  15.575 -0.1046 -0.4213  0.2506
 6323TIP3    H140384   4.486   1.413  15.602  1.2295 -0.3823  3.2735
 6323TIP3    H240385   4.626   1.443  15.553 -0.0088 -0.0289 -0.1447
 6324TIP3   OH240386   2.648   4.276   3.599  0.2131 -0.3898 -0.3832
 6324TIP3    H140387   2.576   4.221   3.630  1.0926 -0.6035  1.3505
 6324TIP3    H240388   2.632   4.285   3.505 -1.3270 -1.5387 -0.2626
 6325TIP3   OH240389   5.167   4.574   0.327 -0.1672  0.7176  0.0491
 6325TIP3    H140390   5.159   4.506   0.393  1.6797 -0.2583 -0.6897
 6325TIP3    H240391   5.225   4.639   0.366 -0.2704  0.8572 -0.0299
 6326TIP3   OH240392   0.539   5.270   5.634  0.1711 -0.3070 -0.0551
 6326TIP3    H140393   0.613   5.280   5.574 -0.3811 -0.4182 -0.7533
 6326TIP3    H240394   0.482   5.205   5.592 -0.8831  0.6223 -0.0738
 6327TIP3   OH240395   3.058   3.195   4.937 -0.0959  0.3542 -0.3995
 6327TIP3    H140396   3.127   3.254   4.908  1.6277 -3.1783 -3.8308
 6327TIP3    H240397   2.986   3.211   4.876 -0.7309  0.9216  0.4806
 6328TIP3   OH240398   3.209   2.420   0.394  0.1940 -0.2387 -0.3691
 6328TIP3    H140399   3.214   2.324   0.395 -1.9149 -0.3682  0.9488
 6328TIP3    H240400   3.295   2.449   0.426  1.2908 -1.6419 -1.9706
 6329TIP3   OH240401   0.906   4.381  15.196 -0.2535 -0.2588 -0.2020
 6329TIP3    H140402   0.830   4.432  15.168  0.5426 -0.1467 -2.2271
 6329TIP3    H240403   0.872   4.292  15.206 -1.0240  0.1178  0.6158
 6330TIP3   OH240404   0.430   0.173  14.018  0.0520 -0.0639  0.0695
 6330TIP3    H140405   0.490   0.234  14.061 -1.0145  0.3754  0.9567
 6330TIP3    H240406   0.344   0.195  14.054 -0.3431 -2.1720  0.4625
 6331TIP3   OH240407   1.238   5.795  12.272  0.1493 -0.3171  0.0607
 6331TIP3    H140408   1.205   5.728  12.332 -0.6123  1.2369  1.3819
 6331TIP3    H240409   1.194   5.776  12.189 -2.1449  0.1800  1.1399
 6332TIP3   OH240410   2.261   4.073   4.003 -0.0860  0.2858  0.0796
 6332TIP3    H140411   2.187   4.073   3.941  0.1420  2.2257 -0.2371
 6332TIP3    H240412   2.232   4.130   4.074  0.7328  0.2853  0.4119
 6333TIP3   OH240413   4.006   0.682  11.201 -0.9375 -0.0484 -0.1354
 6333TIP3    H140414   3.919   0.655  11.173 -0.5578 -3.2618  1.4959
 6333TIP3    H240415   4.038   0.608  11.253  2.4149  1.4311  0.0252
 6334TIP3   OH240416   4.970   6.349  15.750 -0.1370  0.4643 -0.2317
 6334TIP3    H140417   4.915   6.332  15.827 -1.8127  0.5623 -1.3869
 6334TIP3    H240418   5.012   6.264  15.732 -0.4769  0.1976  0.2159
 6335TIP3   OH240419   2.807   3.245  12.053  0.1339  0.1425  0.0328
 6335TIP3    H140420   2.892   3.286  12.068  1.0921 -2.0082  0.6593
 6335TIP3    H240421   2.748   3.286  12.116  0.2305  2.9369 -1.6045
 6336TIP3   OH240422   6.553   4.623   5.607 -0.4553  0.3921 -0.7568
 6336TIP3    H140423   6.622   4.564   5.577  1.4904  1.4264  1.5241
 6336TIP3    H240424   6.584   4.710   5.583 -0.8091  0.8867  0.5350
 6337TIP3   OH240425   5.734   5.388  16.023 -0.0854 -0.0574 -0.2589
 6337TIP3    H140426   5.664   5.391  15.959  0.3478  0.6458 -0.7079
 6337TIP3    H240427   5.707   5.322  16.086 -1.5203  0.7650  0.0043
 6338TIP3   OH240428   6.529   1.903   5.629 -0.3746  0.1674  0.3937
 6338TIP3    H140429   6.565   1.848   5.698 -1.1278  0.3157  0.9105
 6338TIP3    H240430   6.439   1.920   5.656 -0.7362  0.0690 -0.7176
 6339TIP3   OH240431   5.513   1.305  14.076 -0.0511 -0.2497 -0.3690
 6339TIP3    H140432   5.452   1.311  14.150  0.0085 -0.0034 -0.3381
 6339TIP3    H240433   5.462   1.338  14.002 -0.4293 -1.4022 -0.6303
 6340TIP3   OH240434   1.308   6.207   4.603  0.6683 -0.2345  0.9138
 6340TIP3    H140435   1.330   6.131   4.550  1.3679  0.1444  0.6579
 6340TIP3    H240436   1.299   6.173   4.692 -0.4653 -0.8651  0.5687
 6341TIP3   OH240437   6.221   0.044  12.611  0.0720 -0.2168  0.5450
 6341TIP3    H140438   6.224   0.131  12.572  0.4245 -0.6823 -0.4871
 6341TIP3    H240439   6.312   0.023  12.631 -0.0408 -0.2448  1.0541
 6342TIP3   OH240440   3.491   6.780  13.170  0.0229  0.9526 -0.2215
 6342TIP3    H140441   3.448   6.722  13.106 -2.8107  0.5857  1.8950
 6342TIP3    H240442   3.450   6.865  13.156  0.1155  1.1022  0.4299
 6343TIP3   OH240443   3.636   2.824  11.447  0.1222  0.6744  0.0043
 6343TIP3    H140444   3.618   2.758  11.380  0.3675  1.4558 -0.8429
 6343TIP3    H240445   3.563   2.817  11.509  0.2813 -0.5632  0.0666
 6344TIP3   OH240446   4.858   1.712   3.293  0.1248  0.5647 -0.1051
 6344TIP3    H140447   4.863   1.655   3.369 -2.1831 -1.6497 -1.5445
 6344TIP3    H240448   4.782   1.769   3.312  0.6577  1.2344  0.0365
 6345TIP3   OH240449   1.243   0.438   2.027  0.4577  0.1970 -0.0958
 6345TIP3    H140450   1.150   0.419   2.043  0.5899  0.6953  1.2766
 6345TIP3    H240451   1.249   0.446   1.932 -0.7569 -0.6168 -0.2590
 6346TIP3   OH240452   2.742   1.099  11.526  0.2228 -0.3437 -0.3378
 6346TIP3    H140453   2.669   1.093  11.586 -1.2534  0.0299 -2.0548
 6346TIP3    H240454   2.765   1.008  11.507  0.8060 -0.4646  0.8871
 6347TIP3   OH240455   5.142   0.050   2.577  0.0895 -0.6797  0.4492
 6347TIP3    H140456   5.130   0.002   2.659  0.5213 -1.7692 -0.1083
 6347TIP3    H240457   5.235   0.040   2.557  0.2594  0.7364  0.5274
 6348TIP3   OH240458   2.826   5.271   5.214 -0.1484  0.6968 -0.4156
 6348TIP3    H140459   2.878   5.204   5.258  0.6981  1.3015 -0.4825
 6348TIP3    H240460   2.879   5.351   5.220 -1.3470  1.4875  0.0985
 6349TIP3   OH240461   1.699   5.863   1.961 -0.6260 -0.7991 -0.4851
 6349TIP3    H140462   1.791   5.875   1.938 -0.5344 -0.9543 -0.2078
 6349TIP3    H240463   1.658   5.948   1.943  0.1462  0.2029  2.0917
 6350TIP3   OH240464   1.938   0.808   2.976 -0.7515  0.3209  0.4151
 6350TIP3    H140465   2.017   0.810   2.922 -1.2414  1.0123 -0.2886
 6350TIP3    H240466   1.890   0.731   2.946 -1.3812  1.1180 -0.6742
 6351TIP3   OH240467   4.024   4.488   2.799  0.6139  0.0441 -0.5073
 6351TIP3    H140468   4.118   4.501   2.814  0.5650 -0.6266  0.3933
 6351TIP3    H240469   3.982   4.559   2.846  0.4979 -1.6505  2.0178
 6352TIP3   OH240470   2.576   5.114   3.695  0.1185  0.1673  0.7105
 6352TIP3    H140471   2.507   5.177   3.717  0.2403  0.3137  0.6683
 6352TIP3    H240472   2.640   5.165   3.646  0.8455  0.3024  1.8007
 6353TIP3   OH240473   2.656   0.391  11.729 -0.3427  0.0459  0.2633
 6353TIP3    H140474   2.643   0.309  11.777  1.6271 -1.9138 -2.3608
 6353TIP3    H240475   2.746   0.416  11.748 -0.8186  1.4141  0.7491
 6354TIP3   OH240476   2.602   2.077  11.448 -0.2122  0.1476 -0.0425
 6354TIP3    H140477   2.674   2.033  11.493  0.1155  1.2862  0.5464
 6354TIP3    H240478   2.528   2.071  11.509 -0.0865  0.6649  0.1630
 6355TIP3   OH240479   2.669   4.573  15.053 -0.1075  0.4352  0.0119
 6355TIP3    H140480   2.672   4.650  14.997 -2.1981 -0.6268 -1.6285
 6355TIP3    H240481   2.589   4.527  15.026 -0.0397 -1.1832  2.4378
 6356TIP3   OH240482   0.041   4.970  15.577 -0.0476 -0.3847  0.3087
 6356TIP3    H140483  -0.035   4.993  15.631  0.7210  0.4005  1.0719
 6356TIP3    H240484   0.095   4.915  15.634  0.8978  0.6670  0.4476
 6357TIP3   OH240485   2.409   3.313  11.046 -0.2339 -0.3457 -0.3776
 6357TIP3    H140486   2.333   3.371  11.032 -0.0166 -0.3631 -1.6340
 6357TIP3    H240487   2.412   3.258  10.968 -0.5786 -2.2478  0.8966
 6358TIP3   OH240488   2.064   6.521   2.406  0.8404  0.0051  0.4240
 6358TIP3    H140489   2.138   6.462   2.387  0.1826 -1.1387  1.3745
 6358TIP3    H240490   2.074   6.542   2.499  0.1562  0.0974  0.4763
 6359TIP3   OH240491   5.854   4.413  16.978 -0.0450  0.2365  0.5770
 6359TIP3    H140492   5.762   4.385  16.980 -0.2691  0.7960 -0.9399
 6359TIP3    H240493   5.851   4.506  17.000 -0.0522  0.6758 -1.1666
 6360TIP3   OH240494   3.474   5.177   5.738  0.1319 -0.3674  0.0999
 6360TIP3    H140495   3.497   5.120   5.665 -0.6583 -1.2928  0.5453
 6360TIP3    H240496   3.553   5.227   5.757  0.2122  0.1676 -1.6441
 6361TIP3   OH240497   0.221   3.636   2.901 -0.4374 -0.0217 -0.9904
 6361TIP3    H140498   0.202   3.699   2.970 -1.2687  0.4215 -1.6178
 6361TIP3    H240499   0.138   3.624   2.856  0.0149 -0.5883 -1.6782
 6362TIP3   OH240500   4.381   2.232   1.713  0.0325  0.0228 -0.2206
 6362TIP3    H140501   4.427   2.315   1.725  0.7278 -0.2358 -1.0725
 6362TIP3    H240502   4.298   2.244   1.759 -0.0550  1.3466 -0.7072
 6363TIP3   OH240503   6.684   0.657  17.085  0.4312  0.2260  0.4663
 6363TIP3    H140504   6.654   0.649  16.994  0.9064  0.4688  0.2869
 6363TIP3    H240505   6.662   0.746  17.110  0.3220  0.1663  0.5836
 6364TIP3   OH240506   4.490   3.540   4.560  0.1795  0.2116  0.0083
 6364TIP3    H140507   4.433   3.465   4.540 -1.9165  1.7653  0.0705
 6364TIP3    H240508   4.438   3.595   4.618  0.9199  2.7481 -1.6907
 6365TIP3   OH240509   4.034   2.819  15.655  0.2358 -0.0659 -0.0071
 6365TIP3    H140510   4.128   2.825  15.672  1.0005 -1.0084 -3.5028
 6365TIP3    H240511   4.017   2.726  15.641 -0.9621  0.2320 -0.6533
 6366TIP3   OH240512   0.895   1.768  14.916 -0.1457 -0.0601 -0.0398
 6366TIP3    H140513   0.863   1.853  14.947  1.1162  0.0197  1.1046
 6366TIP3    H240514   0.985   1.784  14.890  0.1310 -1.0703  0.2618
 6367TIP3   OH240515   0.823   2.027   4.752 -0.0124  0.0680 -0.1082
 6367TIP3    H140516   0.767   2.104   4.749 -0.8511 -0.4963  0.8945
 6367TIP3    H240517   0.765   1.954   4.775  1.0916 -0.5417  0.8731
 6368TIP3   OH240518   5.114   3.350  16.073 -0.1117 -0.0581  0.7102
 6368TIP3    H140519   5.136   3.428  16.123  1.3961 -0.0936  0.1169
 6368TIP3    H240520   5.130   3.374  15.981 -0.6144 -0.7355  0.4345
 6369TIP3   OH240521   3.399   4.054   2.834  0.0069 -0.0765 -0.2724
 6369TIP3    H140522   3.423   4.144   2.813 -3.4299  1.3242  1.4004
 6369TIP3    H240523   3.362   4.019   2.753  1.3301  0.0097 -0.9185
 6370TIP3   OH240524   1.062   2.555   6.276  0.1122 -0.2963  0.2289
 6370TIP3    H140525   1.000   2.589   6.212  0.1134  1.4748  1.1244
 6370TIP3    H240526   1.126   2.625   6.288 -0.3286 -0.2635  2.7212
 6371TIP3   OH240527   1.628   5.960  14.059 -0.0856  0.7012 -0.4094
 6371TIP3    H140528   1.602   6.021  14.129  0.2849 -0.0947  0.4263
 6371TIP3    H240529   1.595   6.001  13.979 -0.1214  1.8532  0.1786
 6372TIP3   OH240530   0.531   6.028  16.745 -0.4599  0.0714 -0.6923
 6372TIP3    H140531   0.624   6.040  16.764 -0.7652  2.2130 -0.5216
 6372TIP3    H240532   0.527   6.019  16.650 -0.4272  3.6630 -1.1038
 6373TIP3   OH240533   6.186   0.902   4.341 -1.0179 -0.6622 -0.5737
 6373TIP3    H140534   6.142   0.985   4.357 -1.1320 -0.7571 -0.3979
 6373TIP3    H240535   6.272   0.913   4.381 -1.2033 -0.8000 -0.1331
 6374TIP3   OH240536   5.882   0.299  13.926  0.2568  0.6854  0.0546
 6374TIP3    H140537   5.861   0.389  13.902 -1.6861  0.0856 -0.6044
 6374TIP3    H240538   5.826   0.246  13.870 -0.2609 -0.8832  2.0048
 6375TIP3   OH240539   3.029   1.739  13.806 -0.5031  0.2442  0.1650
 6375TIP3    H140540   3.039   1.790  13.886 -1.9533  0.6869  0.0678
 6375TIP3    H240541   3.084   1.784  13.741  0.1622  0.2511  0.7286
 6376TIP3   OH240542   2.379   2.765   5.101  0.0352 -0.7436  0.1442
 6376TIP3    H140543   2.374   2.764   5.005 -1.6454  2.4114  0.1563
 6376TIP3    H240544   2.304   2.712   5.129  1.0630 -2.4475 -0.2670
 6377TIP3   OH240545   5.430   0.484  15.993 -0.0639  0.0886  0.5027
 6377TIP3    H140546   5.488   0.515  16.062 -0.7225 -0.8696  1.5034
 6377TIP3    H240547   5.488   0.458  15.922  0.8143 -1.9007  1.9133
 6378TIP3   OH240548   0.624   5.308  13.097  0.0730  0.4873  0.4983
 6378TIP3    H140549   0.700   5.349  13.055  0.0523  0.4124  0.3896
 6378TIP3    H240550   0.590   5.376  13.155 -0.7739  1.0896 -0.6927
 6379TIP3   OH240551   4.791   5.808  13.498  0.5815  0.4530  0.3079
 6379TIP3    H140552   4.788   5.885  13.441 -1.0823 -0.0617 -0.3227
 6379TIP3    H240553   4.880   5.776  13.489  0.4825  0.6561 -1.6606
 6380TIP3   OH240554   1.417   5.144  12.452  0.0594  0.2224 -0.6282
 6380TIP3    H140555   1.367   5.131  12.371 -2.4527  2.0175  0.5305
 6380TIP3    H240556   1.442   5.237  12.449  4.1388 -0.8543 -1.5734
 6381TIP3   OH240557   0.030   2.889  15.638  0.0936 -0.4070 -0.9581
 6381TIP3    H140558   0.019   2.925  15.549  0.9238  0.4508 -0.7176
 6381TIP3    H240559   0.123   2.898  15.656 -0.3699  1.1333  0.7266
 6382TIP3   OH240560   1.595   2.184   0.805 -0.1677  0.0795 -0.4826
 6382TIP3    H140561   1.563   2.234   0.730 -0.4397 -1.2249 -1.2391
 6382TIP3    H240562   1.538   2.108   0.810  0.1010 -0.0505  0.8201
 6383TIP3   OH240563   0.181   1.066  12.343  0.0546 -0.3530  0.2382
 6383TIP3    H140564   0.259   1.016  12.320 -0.1916 -0.3338 -0.6449
 6383TIP3    H240565   0.215   1.147  12.381  0.4900  0.2813 -1.4602
 6384TIP3   OH240566   1.437   2.426   3.341 -0.5581  0.0346 -0.1665
 6384TIP3    H140567   1.509   2.458   3.286 -2.5454  0.3907 -2.6545
 6384TIP3    H240568   1.462   2.451   3.430  0.9326  2.9355 -1.3322
 6385TIP3   OH240569   4.156   3.275   0.444  0.0307  0.2817  0.0542
 6385TIP3    H140570   4.145   3.214   0.517 -0.9917  1.3793  0.8333
 6385TIP3    H240571   4.185   3.356   0.485  0.8598  0.4858 -0.9201
 6386TIP3   OH240572   0.960   4.941  13.047  0.2990 -0.2904 -0.2502
 6386TIP3    H140573   0.880   4.991  13.033  0.0345 -1.2161 -2.2747
 6386TIP3    H240574   1.027   4.987  12.996  1.0556  0.4080  1.3322
 6387TIP3   OH240575   3.200   2.502  16.091  0.9604 -0.4614  1.0906
 6387TIP3    H140576   3.196   2.457  16.175  0.6359 -1.5781  0.4864
 6387TIP3    H240577   3.149   2.447  16.031  1.0206  0.4190  0.2039
 6388TIP3   OH240578   2.669   5.133   2.505  0.6039 -0.0685 -0.0752
 6388TIP3    H140579   2.644   5.114   2.596  1.7380 -2.2707 -0.1826
 6388TIP3    H240580   2.720   5.214   2.511 -0.0497  0.2742  1.1307
 6389TIP3   OH240581   6.488   4.786   4.399  0.0394 -0.1915  1.2019
 6389TIP3    H140582   6.543   4.708   4.409 -0.4717 -1.1394 -2.4699
 6389TIP3    H240583   6.421   4.759   4.336 -0.6794  2.9231  0.5725
 6390TIP3   OH240584   5.872   4.046  11.889 -0.3205 -0.2862  0.2306
 6390TIP3    H140585   5.932   4.024  11.960  1.2511 -1.0347 -1.2983
 6390TIP3    H240586   5.875   3.970  11.830 -0.1452  1.1073 -1.5939
 6391TIP3   OH240587   2.281   2.214   5.320 -0.1319 -0.0012 -0.2531
 6391TIP3    H140588   2.202   2.176   5.281  0.2143 -0.1613 -0.7976
 6391TIP3    H240589   2.311   2.279   5.257  0.4854 -0.3278 -0.3038
 6392TIP3   OH240590   5.166   5.582  15.295  1.0050 -0.1598  0.0577
 6392TIP3    H140591   5.115   5.501  15.289  1.2085 -0.2519 -0.4853
 6392TIP3    H240592   5.196   5.598  15.206 -0.1688  1.2774 -0.0979
 6393TIP3   OH240593   3.021   6.097   6.452  0.1152 -0.4204 -0.0664
 6393TIP3    H140594   3.005   6.046   6.532  1.6341  0.5639  0.8867
 6393TIP3    H240595   3.116   6.089   6.437 -0.2867 -1.4039 -2.3410
 6394TIP3   OH240596   4.972   3.723   0.595 -0.3224 -0.5845  0.1700
 6394TIP3    H140597   4.906   3.717   0.526  1.2022  1.5151 -1.5379
 6394TIP3    H240598   4.936   3.785   0.658  0.2667  1.0545 -1.0820
 6395TIP3   OH240599   3.912   1.946  16.030 -0.2555  0.5427  0.5869
 6395TIP3    H140600   3.999   1.979  16.009  0.1531 -0.2898  0.9518
 6395TIP3    H240601   3.922   1.851  16.032 -0.9748  0.4738  1.4865
 6396TIP3   OH240602   0.319   3.508  14.248 -0.3428 -0.1650 -0.0530
 6396TIP3    H140603   0.225   3.501  14.267 -0.4785  0.8081 -0.3242
 6396TIP3    H240604   0.328   3.475  14.159 -0.2172 -1.5273  0.4510
 6397TIP3   OH240605   6.298   1.452  14.251  0.0021 -0.3220  0.2753
 6397TIP3    H140606   6.213   1.437  14.291 -0.5059 -0.4720 -0.8400
 6397TIP3    H240607   6.309   1.380  14.189  1.0322 -0.4167  0.5452
 6398TIP3   OH240608   4.150   0.616   1.373  0.0779 -0.0488  0.5016
 6398TIP3    H140609   4.225   0.634   1.317 -0.7475  0.1055 -0.5587
 6398TIP3    H240610   4.189   0.594   1.458  1.2502  2.4713  0.6564
 6399TIP3   OH240611   6.596   5.325   1.523 -0.0157  0.1724 -0.2104
 6399TIP3    H140612   6.623   5.411   1.556  0.0037  0.0829  0.0080
 6399TIP3    H240613   6.651   5.310   1.447  0.6322 -0.0649  0.3084
 6400TIP3   OH240614   2.878   1.477  12.621  0.5979  0.2605 -0.4213
 6400TIP3    H140615   2.893   1.391  12.658 -0.2290  0.9777  1.6169
 6400TIP3    H240616   2.872   1.536  12.696 -1.6392  1.6657 -1.6205
 6401TIP3   OH240617   3.986   4.207  14.558 -0.9213 -0.8052 -0.4395
 6401TIP3    H140618   3.967   4.234  14.469 -0.2514 -0.2709 -0.4229
 6401TIP3    H240619   3.902   4.214  14.604 -0.1119  5.0385  0.5359
 6402TIP3   OH240620   4.370   1.167  11.325  0.5510  0.1298 -0.8180
 6402TIP3    H140621   4.294   1.224  11.318  0.1076 -0.5071 -1.1852
 6402TIP3    H240622   4.420   1.203  11.398 -1.7150 -1.3722  1.5320
 6403TIP3   OH240623   0.187   2.655   1.237 -0.0560 -0.3758 -0.7587
 6403TIP3    H140624   0.280   2.675   1.238 -0.0001 -0.6474 -0.1544
 6403TIP3    H240625   0.145   2.733   1.273  0.0755 -0.8914  0.5529
 6404TIP3   OH240626   3.799   6.108  16.868 -0.2212  0.3197 -0.4426
 6404TIP3    H140627   3.713   6.147  16.882 -0.3325  0.3485 -1.2160
 6404TIP3    H240628   3.782   6.015  16.856 -0.0777  0.2235  0.0936
 6405TIP3   OH240629   3.093   2.324   4.074 -0.2740 -0.2449 -0.4826
 6405TIP3    H140630   3.010   2.360   4.043  0.1421  0.2969 -0.9721
 6405TIP3    H240631   3.070   2.239   4.111 -1.2989  0.6073  0.8724
 6406TIP3   OH240632   3.904   1.649  16.696  0.1507  0.2970 -0.0451
 6406TIP3    H140633   3.889   1.664  16.602 -0.7275  1.4354  0.2559
 6406TIP3    H240634   3.990   1.608  16.700  0.2435  0.3168 -1.3453
 6407TIP3   OH240635   1.843   3.229  15.342  0.4109 -0.0632 -0.0989
 6407TIP3    H140636   1.852   3.272  15.427  0.4741 -0.0904 -0.0912
 6407TIP3    H240637   1.922   3.255  15.294  0.5664 -0.3585 -0.0089
 6408TIP3   OH240638   4.157   4.189   2.324 -0.4219  0.0971 -0.4838
 6408TIP3    H140639   4.133   4.264   2.269 -0.3696 -0.1755 -0.8791
 6408TIP3    H240640   4.074   4.145   2.341 -0.6710  1.1241  1.0514
 6409TIP3   OH240641   6.052   0.319   5.298  1.2436  0.4056  0.2229
 6409TIP3    H140642   6.019   0.250   5.240 -1.7842  3.0979 -1.4294
 6409TIP3    H240643   5.985   0.327   5.366 -0.1762  3.8663 -1.4575
 6410TIP3   OH240644   3.866   4.708  16.939 -0.1815 -0.2778  0.1960
 6410TIP3    H140645   3.924   4.650  16.889  0.6172  0.6161  0.0533
 6410TIP3    H240646   3.904   4.710  17.027 -0.3026 -0.0986  0.2431
 6411TIP3   OH240647   3.326   3.335  15.604  0.2626  0.0572 -0.6993
 6411TIP3    H140648   3.395   3.336  15.671  0.6171 -0.3759 -1.0540
 6411TIP3    H240649   3.259   3.278  15.641 -0.3472  1.2499  0.0752
 6412TIP3   OH240650   2.358   4.614   2.886 -0.4085  0.2267 -0.5635
 6412TIP3    H140651   2.448   4.582   2.886  0.6415  3.0429 -1.0002
 6412TIP3    H240652   2.325   4.595   2.798 -0.2228 -0.6817 -0.4434
 6413TIP3   OH240653   3.475   0.879  17.219  0.1553 -0.2678 -0.5282
 6413TIP3    H140654   3.508   0.910  17.134 -0.6466 -1.7171 -1.3864
 6413TIP3    H240655   3.386   0.849  17.200 -0.0971 -0.4200  0.8772
 6414TIP3   OH240656   2.188   1.184   1.005 -0.3026 -0.5431 -0.3118
 6414TIP3    H140657   2.272   1.156   1.039 -0.3249  1.1314  1.1818
 6414TIP3    H240658   2.200   1.276   0.981 -1.7899 -0.1796  0.2400
 6415TIP3   OH240659   1.640   2.241   5.464  0.4739  0.7035 -0.4349
 6415TIP3    H140660   1.732   2.248   5.489  0.2562  0.5920  0.4123
 6415TIP3    H240661   1.629   2.150   5.436  0.2614  0.3054  0.9341
 6416TIP3   OH240662   4.214   1.251  13.319 -0.2577  0.1675 -0.4872
 6416TIP3    H140663   4.274   1.178  13.337  0.9140  1.5379  1.2761
 6416TIP3    H240664   4.257   1.299  13.248 -0.4880 -0.2114 -0.8905
 6417TIP3   OH240665   4.918   5.590   6.225 -0.5722 -0.1394  0.3695
 6417TIP3    H140666   4.844   5.647   6.203  1.0313  1.3874 -1.2859
 6417TIP3    H240667   4.981   5.648   6.269  0.5407 -0.9087 -0.1708
 6418TIP3   OH240668   2.576   1.482  11.812  0.1407  0.5740 -0.1863
 6418TIP3    H140669   2.595   1.389  11.799 -0.9937  0.7044 -3.0995
 6418TIP3    H240670   2.488   1.483  11.850  0.5481  0.4410  0.7771
 6419TIP3   OH240671   0.411   1.017   4.418  0.2647  0.2110 -0.0207
 6419TIP3    H140672   0.453   1.014   4.332 -2.0344  1.7422 -1.2560
 6419TIP3    H240673   0.376   1.106   4.425  2.1944  0.7975  3.4178
 6420TIP3   OH240674   3.488   0.202   4.802  0.1596 -0.2181 -0.1252
 6420TIP3    H140675   3.512   0.291   4.826 -0.2809 -0.4011  1.0343
 6420TIP3    H240676   3.393   0.198   4.811  0.1018 -0.6154 -0.8308
 6421TIP3   OH240677   2.761   3.293   0.811  0.0926  0.3565  0.6639
 6421TIP3    H140678   2.703   3.329   0.744  0.4853  0.6376  0.4736
 6421TIP3    H240679   2.840   3.268   0.763 -0.1286 -0.6493  0.8134
 6422TIP3   OH240680   0.557   2.502   1.233  0.3059 -0.6667  0.2621
 6422TIP3    H140681   0.521   2.451   1.306 -0.7186  1.1051  1.0604
 6422TIP3    H240682   0.561   2.592   1.268  0.5565  0.0661 -1.6105
 6423TIP3   OH240683   6.225   2.277  15.875 -0.0764  0.0024 -0.1159
 6423TIP3    H140684   6.145   2.313  15.912  0.0912 -1.3890  1.7168
 6423TIP3    H240685   6.198   2.196  15.833 -0.0292  0.8496 -1.7982
 6424TIP3   OH240686   6.399   2.903   3.266 -0.4058  0.2199 -0.1828
 6424TIP3    H140687   6.453   2.977   3.237 -0.6804 -0.0048 -1.3168
 6424TIP3    H240688   6.315   2.916   3.221 -0.4100 -0.8356 -0.4956
 6425TIP3   OH240689   6.532   6.063   0.303 -0.0320  0.1766  0.8724
 6425TIP3    H140690   6.582   6.086   0.381 -0.3949  1.2211  0.8159
 6425TIP3    H240691   6.452   6.115   0.310  0.0434  0.4647 -0.3097
 6426TIP3   OH240692   2.635   5.248   1.566 -1.0934  0.5349 -0.1625
 6426TIP3    H140693   2.560   5.307   1.567 -0.1108  1.7967  1.6181
 6426TIP3    H240694   2.711   5.304   1.548 -0.4465 -0.5743 -0.9805
 6427TIP3   OH240695   1.709   2.507   2.146  0.2403  0.1233 -0.0321
 6427TIP3    H140696   1.766   2.543   2.077  0.9113 -0.2282  0.3359
 6427TIP3    H240697   1.763   2.442   2.189 -0.7796 -0.9160 -0.3128
 6428TIP3   OH240698   5.582   1.459   5.810  0.5104  0.2681  0.0755
 6428TIP3    H140699   5.573   1.477   5.716  0.2916  0.3608  0.1160
 6428TIP3    H240700   5.598   1.545   5.849 -0.0506  0.3083  0.2081
 6429TIP3   OH240701   2.381   2.360   2.535 -0.1040  0.7592 -0.3743
 6429TIP3    H140702   2.431   2.335   2.457  0.4179  0.5069  0.0376
 6429TIP3    H240703   2.368   2.278   2.582 -0.7939  0.8435 -0.4075
 6430TIP3   OH240704   5.884   3.499  13.286 -0.0976  0.6513 -0.8700
 6430TIP3    H140705   5.808   3.501  13.228 -0.5557  0.0479 -0.3043
 6430TIP3    H240706   5.862   3.558  13.358  0.6656  1.7707 -1.5319
 6431TIP3   OH240707   3.367   5.899  14.129 -0.1743  0.0720  0.5796
 6431TIP3    H140708   3.436   5.870  14.068  0.0137 -0.0600  0.8530
 6431TIP3    H240709   3.312   5.957  14.077 -0.1328 -0.2043  0.2258
 6432TIP3   OH240710   0.782   5.562  14.783  0.0928  0.2426  0.0989
 6432TIP3    H140711   0.825   5.644  14.805  0.5566  0.0303 -0.0135
 6432TIP3    H240712   0.846   5.514  14.731  0.3905 -0.8025  1.3732
 6433TIP3   OH240713   3.780   1.596   0.631 -0.1725  0.3066 -0.1414
 6433TIP3    H140714   3.760   1.689   0.645 -2.6960 -0.4926  1.9182
 6433TIP3    H240715   3.772   1.584   0.537 -0.0411  2.1262 -0.4081
 6434TIP3   OH240716   5.846   0.345  16.863  0.0819  0.0974 -0.2029
 6434TIP3    H140717   5.812   0.361  16.951  1.8693  2.1118  0.1506
 6434TIP3    H240718   5.790   0.397  16.806  1.1700  1.7025  0.1564
 6435TIP3   OH240719   3.928   5.806   5.920 -0.2641 -0.1120 -0.5229
 6435TIP3    H140720   3.918   5.900   5.931 -0.8941 -0.0772 -1.2906
 6435TIP3    H240721   4.021   5.790   5.934 -0.1971  0.5867 -0.1414
 6436TIP3   OH240722   6.030   3.831   3.146 -0.4401  0.2317  0.6422
 6436TIP3    H140723   5.997   3.767   3.209 -0.7606  1.9578  2.2560
 6436TIP3    H240724   6.060   3.778   3.072  0.0347 -1.8356  2.2719
 6437TIP3   OH240725   6.588   1.658   2.989  0.2117 -0.0655  0.2982
 6437TIP3    H140726   6.604   1.565   2.977  1.0601  0.0782  0.2769
 6437TIP3    H240727   6.635   1.681   3.069  0.1586  0.3792  0.2055
 6438TIP3   OH240728   3.678   5.430  13.347 -0.2304 -0.3328  0.3493
 6438TIP3    H140729   3.756   5.470  13.387  0.4431 -0.7770 -0.4909
 6438TIP3    H240730   3.703   5.338  13.333  0.2183  0.1997 -2.7070
 6439TIP3   OH240731   5.870   3.443   1.528  0.3832 -0.2255 -0.2588
 6439TIP3    H140732   5.886   3.412   1.617  1.5297 -0.5862 -0.5865
 6439TIP3    H240733   5.851   3.364   1.478 -1.3418  0.0829 -0.1200
 6440TIP3   OH240734   5.070   1.355   2.182 -0.6865  0.2573  0.1835
 6440TIP3    H140735   5.082   1.415   2.108 -1.1528  0.7706  0.5258
 6440TIP3    H240736   5.159   1.325   2.202 -0.3381  1.4623  0.5282
 6441TIP3   OH240737   3.695   4.018   3.215 -0.1959  0.0519  0.1394
 6441TIP3    H140738   3.709   3.927   3.189  2.0089 -0.0375  1.4608
 6441TIP3    H240739   3.781   4.047   3.246 -1.1670  2.1942  0.9083
 6442TIP3   OH240740   4.833   3.644  15.354 -0.1664  0.5268 -0.7989
 6442TIP3    H140741   4.870   3.720  15.399 -0.2555  0.3346 -0.3986
 6442TIP3    H240742   4.742   3.667  15.337  0.3912  1.3735 -2.6284
 6443TIP3   OH240743   0.917   2.019   4.286 -0.0101  0.1833 -0.0262
 6443TIP3    H140744   0.951   2.078   4.353 -1.3171  0.2471  0.6070
 6443TIP3    H240745   0.985   2.016   4.219  0.6764  1.2808  0.6129
 6444TIP3   OH240746   4.072   0.074   0.545 -0.1607 -0.3084  0.5759
 6444TIP3    H140747   4.024   0.037   0.619  1.1231 -1.6160  0.7837
 6444TIP3    H240748   4.068   0.006   0.477  0.5512 -0.0360  0.2508
 6445TIP3   OH240749   1.807   2.300  14.944 -0.0598  0.4441 -0.1155
 6445TIP3    H140750   1.722   2.336  14.917  0.3724  1.3669 -0.2763
 6445TIP3    H240751   1.820   2.225  14.888 -1.8430 -1.1158  1.4696
 6446TIP3   OH240752   0.510   1.295   3.750  0.1901  0.7025  0.1992
 6446TIP3    H140753   0.513   1.389   3.767  1.3643  0.4951  1.2468
 6446TIP3    H240754   0.462   1.258   3.824 -1.8309  0.6402 -1.0924
 6447TIP3   OH240755   4.565   1.697  14.745  0.4374 -0.3493 -0.1151
 6447TIP3    H140756   4.653   1.732  14.756  0.3179  0.3099 -1.1980
 6447TIP3    H240757   4.511   1.773  14.724 -0.4935 -0.6755  1.0498
 6448TIP3   OH240758   3.041   3.746   5.563 -0.5912 -0.6310  0.3872
 6448TIP3    H140759   2.977   3.807   5.597  0.8839  0.4373  1.3100
 6448TIP3    H240760   3.125   3.775   5.600  1.0801  0.3989 -3.8391
 6449TIP3   OH240761   2.005   3.024  14.144  0.6559  0.0221  0.3048
 6449TIP3    H140762   2.034   2.972  14.218  0.9009 -0.8669 -0.4104
 6449TIP3    H240763   2.079   3.082  14.125  0.0858  1.1966  1.6005
 6450TIP3   OH240764   6.059   3.675   1.727 -0.0842 -0.7112  0.3493
 6450TIP3    H140765   6.086   3.650   1.639  0.0216 -1.9249  0.7154
 6450TIP3    H240766   6.116   3.625   1.785 -0.7698 -0.6269  1.1087
 6451TIP3   OH240767   3.407   4.760   4.406 -0.7806  0.1201 -0.0137
 6451TIP3    H140768   3.354   4.768   4.327 -1.2697 -0.3542  0.2550
 6451TIP3    H240769   3.410   4.665   4.423 -0.2852  0.1850  0.2679
 6452TIP3   OH240770   2.772   2.794   2.892  0.3251  0.4723  0.0693
 6452TIP3    H140771   2.746   2.835   2.810  2.9148  0.5446 -0.7339
 6452TIP3    H240772   2.769   2.866   2.956  0.3241  0.8690 -0.3752
 6453TIP3   OH240773   5.260   5.962   1.668 -0.9333 -0.0231 -0.2667
 6453TIP3    H140774   5.335   5.930   1.618 -0.2045  0.6966  0.3418
 6453TIP3    H240775   5.298   5.988   1.753 -1.4141  2.8187 -0.8812
 6454TIP3   OH240776   1.266   2.135   0.666 -0.4530  0.2142  0.0146
 6454TIP3    H140777   1.198   2.090   0.716 -1.1970  2.6190  1.2827
 6454TIP3    H240778   1.239   2.227   0.669  1.3237  0.8289 -1.9578
 6455TIP3   OH240779   6.390   1.313  11.796  0.2585 -0.2780 -0.0996
 6455TIP3    H140780   6.320   1.351  11.743  0.1031 -0.1370  0.2104
 6455TIP3    H240781   6.389   1.220  11.773  0.9192 -0.0307 -1.1834
 6456TIP3   OH240782   2.074   1.060  15.064  0.7201  0.3558 -0.0769
 6456TIP3    H140783   2.015   1.121  15.020 -0.7677 -1.7688 -1.1559
 6456TIP3    H240784   2.145   1.046  15.001 -0.0906 -0.7056 -0.7842
 6457TIP3   OH240785   0.399   2.988  16.798  0.2204 -0.0823  0.4336
 6457TIP3    H140786   0.365   2.934  16.870 -0.2739  0.6882  0.7954
 6457TIP3    H240787   0.449   3.057  16.842 -0.0925  0.3961  0.0450
 6458TIP3   OH240788   4.298   2.560  14.454 -0.7883  0.1356  0.8190
 6458TIP3    H140789   4.256   2.640  14.484  0.0477  0.3409  1.4489
 6458TIP3    H240790   4.336   2.583  14.369  0.6120  0.7993  1.6114
 6459TIP3   OH240791   0.501   5.471   5.204  0.3979 -0.2097 -0.2659
 6459TIP3    H140792   0.454   5.542   5.161 -0.4603 -0.0774  0.8782
 6459TIP3    H240793   0.448   5.450   5.281  0.7291 -1.9655 -0.4901
 6460TIP3   OH240794   5.078   5.034   1.909 -0.4829 -0.3656 -1.1141
 6460TIP3    H140795   5.012   5.071   1.851 -0.2286 -0.2382 -1.3217
 6460TIP3    H240796   5.094   4.945   1.875 -0.2271 -0.2387 -1.3291
 6461TIP3   OH240797   2.542   3.231   2.525  0.1264  0.0877  0.0578
 6461TIP3    H140798   2.466   3.240   2.582 -0.6735  0.4310 -1.0357
 6461TIP3    H240799   2.513   3.172   2.455  1.0503 -0.2399 -0.0553
 6462TIP3   OH240800   4.692   6.107  13.674  0.4011  0.0034 -0.4361
 6462TIP3    H140801   4.780   6.088  13.707  0.7258 -1.3732 -1.9912
 6462TIP3    H240802   4.645   6.143  13.749  1.4295 -1.9653  1.2167
 6463TIP3   OH240803   3.196   6.409  15.186 -0.3994  0.2324 -0.1895
 6463TIP3    H140804   3.144   6.471  15.134 -0.9432 -0.0094  0.0621
 6463TIP3    H240805   3.277   6.456  15.204 -1.0431  1.0953  0.4937
 6464TIP3   OH240806   5.042   2.072  13.061 -0.0285  0.1362  0.5133
 6464TIP3    H140807   5.013   2.160  13.035  0.7924  0.7835  1.7355
 6464TIP3    H240808   4.988   2.050  13.136  1.3023  0.5605  1.6212
 6465TIP3   OH240809   2.391   2.351  16.406 -0.2067 -0.2852 -0.5754
 6465TIP3    H140810   2.428   2.432  16.440 -0.2259 -0.6596  0.3607
 6465TIP3    H240811   2.320   2.378  16.349  0.2695  0.3809 -0.8521
 6466TIP3   OH240812   6.502   0.207  11.444 -0.1342 -0.0780  0.4205
 6466TIP3    H140813   6.589   0.246  11.452 -0.3638  0.1259  2.0390
 6466TIP3    H240814   6.449   0.275  11.401  0.7835 -0.6570 -1.6891
 6467TIP3   OH240815   2.841   4.693   0.941 -0.0184  0.0569 -0.2514
 6467TIP3    H140816   2.861   4.702   1.035  1.6267  0.5014 -0.6307
 6467TIP3    H240817   2.827   4.599   0.929 -1.5280  0.1474  0.6822
 6468TIP3   OH240818   0.522   3.616  16.400  0.1105  0.1625 -0.1039
 6468TIP3    H140819   0.545   3.569  16.480  0.3428  0.0899 -0.2125
 6468TIP3    H240820   0.606   3.642  16.363 -0.0413  2.0272  0.7826
 6469TIP3   OH240821   5.627   0.983   2.364 -0.1464 -0.2932  0.0346
 6469TIP3    H140822   5.700   0.923   2.382  0.0415 -0.1588 -0.2790
 6469TIP3    H240823   5.587   0.949   2.284  2.0926  1.9829 -2.1080
 6470TIP3   OH240824   4.509   2.649   3.192 -0.9270  0.9124 -0.3078
 6470TIP3    H140825   4.586   2.699   3.220  0.9690 -1.3352 -1.3875
 6470TIP3    H240826   4.508   2.657   3.097 -0.1457 -1.6765 -0.5708
 6471TIP3   OH240827   0.474   6.227  14.322 -0.2724  0.0573 -0.0365
 6471TIP3    H140828   0.419   6.283  14.376  1.0618 -0.2901  1.7364
 6471TIP3    H240829   0.441   6.138  14.338  0.3783 -0.0854  0.5026
 6472TIP3   OH240830   4.719   0.839   5.492 -0.4578 -0.3375 -0.3112
 6472TIP3    H140831   4.795   0.786   5.470 -0.1891  0.3155 -0.9801
 6472TIP3    H240832   4.741   0.880   5.576  1.0132  1.8735 -1.7374
 6473TIP3   OH240833   4.975   1.072   1.036 -0.2141 -0.0933 -0.0900
 6473TIP3    H140834   4.927   1.116   0.965  0.2387  0.4938 -0.0273
 6473TIP3    H240835   5.023   1.002   0.992  0.8039  0.8517 -0.5014
 6474TIP3   OH240836   3.503   6.688  11.027 -0.5122  0.1825  0.6985
 6474TIP3    H140837   3.536   6.644  11.106 -0.9625  0.7122  1.1863
 6474TIP3    H240838   3.560   6.763  11.015 -0.9115  0.5335  0.9654
 6475TIP3   OH240839   6.027   2.316   3.630  0.3403  0.3731  0.2301
 6475TIP3    H140840   5.996   2.406   3.629 -0.4879  0.0921 -0.4822
 6475TIP3    H240841   6.121   2.322   3.611 -0.1641  0.9268 -2.2501
 6476TIP3   OH240842   1.588   2.678   4.801  0.3244  0.0389  0.8502
 6476TIP3    H140843   1.598   2.688   4.706 -4.3973 -1.9160 -0.0171
 6476TIP3    H240844   1.669   2.637   4.830  1.9632  0.9377 -2.2948
 6477TIP3   OH240845   2.283   3.579   3.116 -0.0548 -0.0406 -0.2688
 6477TIP3    H140846   2.334   3.502   3.092  2.7184  1.6250  0.0376
 6477TIP3    H240847   2.268   3.570   3.210  0.1736 -0.2730 -0.2529
 6478TIP3   OH240848   0.887   2.435  16.423 -0.1132  0.1392 -0.3377
 6478TIP3    H140849   0.912   2.406  16.335  0.8963 -1.6316  0.5004
 6478TIP3    H240850   0.844   2.359  16.462  0.0092  0.7089  0.9221
 6479TIP3   OH240851   4.699   4.919   3.907 -0.0780  0.4616 -0.1723
 6479TIP3    H140852   4.612   4.940   3.872  0.1283  1.9669  0.1698
 6479TIP3    H240853   4.706   4.972   3.986  0.7208 -0.5045  0.4162
 6480TIP3   OH240854   1.617   1.024  14.697 -0.1973 -0.1002  0.1328
 6480TIP3    H140855   1.706   0.993  14.681 -1.0117 -2.5053  0.0572
 6480TIP3    H240856   1.627   1.097  14.758  1.7725 -0.7109  0.5583
 6481TIP3   OH240857   5.858   0.707  16.914 -0.0787 -0.3748  0.0574
 6481TIP3    H140858   5.772   0.667  16.900  0.1413 -0.2330 -1.9080
 6481TIP3    H240859   5.838   0.792  16.953 -0.8224 -0.4130 -0.2143
 6482TIP3   OH240860   4.936   3.253   5.471 -0.0885  0.1731  0.4131
 6482TIP3    H140861   4.920   3.307   5.549  0.7027 -0.1154  0.7760
 6482TIP3    H240862   4.887   3.173   5.488  0.3615 -0.0289  0.7728
 6483TIP3   OH240863   5.123   4.307  13.445 -0.4478  0.4317 -0.0682
 6483TIP3    H140864   5.164   4.305  13.532 -0.4874  1.6286 -0.0235
 6483TIP3    H240865   5.093   4.397  13.434 -0.3731  0.3053 -1.3617
 6484TIP3   OH240866   1.438   5.516  16.252  0.0421 -0.0198 -0.6267
 6484TIP3    H140867   1.407   5.497  16.341  0.7064  1.5121 -0.0521
 6484TIP3    H240868   1.389   5.456  16.196 -0.8120 -0.5941  0.7212
 6485TIP3   OH240869   6.220   1.001   1.786 -0.3786  0.0381  0.6095
 6485TIP3    H140870   6.301   1.012   1.836  1.3395  0.8852 -2.2379
 6485TIP3    H240871   6.199   1.090   1.756 -1.0862 -0.5230 -0.5816
 6486TIP3   OH240872   0.988   3.952   0.830 -0.0727 -0.0760  0.2214
 6486TIP3    H140873   1.059   3.990   0.882 -0.9540  0.8633  0.7556
 6486TIP3    H240874   0.914   4.010   0.845 -0.6697 -0.4668 -1.1558
 6487TIP3   OH240875   4.628   1.863   6.281  0.3090 -0.2841 -0.4283
 6487TIP3    H140876   4.605   1.820   6.364 -0.8492  0.1701 -0.5114
 6487TIP3    H240877   4.670   1.793   6.230  0.3520 -0.7635  0.2443
 6488TIP3   OH240878   5.189   3.441   0.055 -0.7371  0.3766 -0.1128
 6488TIP3    H140879   5.181   3.536   0.058 -0.7124  0.3449  2.2079
 6488TIP3    H240880   5.233   3.418   0.138  0.0474 -1.5746 -1.0249
 6489TIP3   OH240881   0.913   3.585  11.903  0.2307  0.2936 -0.0590
 6489TIP3    H140882   0.871   3.668  11.881  0.9268  1.8645  3.9974
 6489TIP3    H240883   0.859   3.548  11.973  1.2153 -1.5704 -0.2423
 6490TIP3   OH240884   1.581   5.774   0.812  0.0679 -0.4023 -0.8070
 6490TIP3    H140885   1.637   5.706   0.849 -0.7851 -1.1867 -0.9374
 6490TIP3    H240886   1.597   5.851   0.867  0.0590 -1.0808  0.1487
 6491TIP3   OH240887   3.168   3.279  17.028  1.1202 -0.1598  0.4056
 6491TIP3    H140888   3.096   3.224  17.060  1.8455 -1.3875 -0.0302
 6491TIP3    H240889   3.247   3.227  17.045  1.6164 -0.3459 -2.2965
 6492TIP3   OH240890   5.970   3.538  14.136 -0.4086  0.2383 -0.5154
 6492TIP3    H140891   5.908   3.473  14.102  0.3736 -0.9678  0.3083
 6492TIP3    H240892   5.997   3.502  14.221 -0.1934  1.8043  0.0875
 6493TIP3   OH240893   3.614   0.239  13.609  0.1475  0.1930 -0.1057
 6493TIP3    H140894   3.541   0.177  13.607  1.2555 -1.1011 -0.7333
 6493TIP3    H240895   3.625   0.260  13.702 -0.9052  0.2773  0.0136
 6494TIP3   OH240896   0.697   2.690  16.905 -0.5441 -0.4112 -0.1120
 6494TIP3    H140897   0.668   2.619  16.847 -1.3216  0.0402 -0.2845
 6494TIP3    H240898   0.766   2.651  16.958 -3.2189 -2.3062  2.1253
 6495TIP3   OH240899   3.554   1.838  14.926  0.3133  0.0847  0.4806
 6495TIP3    H140900   3.545   1.761  14.982  1.0367  0.7279  1.5052
 6495TIP3    H240901   3.465   1.857  14.897  0.1309 -1.1340  0.2190
 6496TIP3   OH240902   2.534   4.740  14.252 -0.0222  0.0411 -0.5803
 6496TIP3    H140903   2.461   4.683  14.227 -0.1677  0.5204 -1.2448
 6496TIP3    H240904   2.494   4.826  14.262  0.0588 -0.0932  1.1400
 6497TIP3   OH240905   2.078   3.256   6.119  0.0607  0.0955 -0.2744
 6497TIP3    H140906   2.034   3.248   6.203 -0.4437  3.0850 -0.1976
 6497TIP3    H240907   2.138   3.330   6.131  0.5853  0.0112 -2.2874
 6498TIP3   OH240908   5.690   6.178   1.872 -0.2158  0.5163  0.7460
 6498TIP3    H140909   5.754   6.149   1.806  0.3127  0.8902  1.0866
 6498TIP3    H240910   5.734   6.163   1.956 -1.4245 -1.2828  1.0884
 6499TIP3   OH240911   2.045   5.105  15.387 -0.5432  1.0369 -0.4529
 6499TIP3    H140912   2.083   5.024  15.420  0.4718  0.6408 -2.4998
 6499TIP3    H240913   2.095   5.174  15.428  1.4643  0.5358 -1.9876
 6500TIP3   OH240914   4.672   3.357  14.625 -0.2445  0.3330  0.4149
 6500TIP3    H140915   4.641   3.267  14.629  0.0778  0.0899 -2.1512
 6500TIP3    H240916   4.665   3.389  14.716 -2.6552 -1.4636  0.8874
 6501TIP3   OH240917   4.780   0.944  11.488  0.0647 -0.6959  0.5889
 6501TIP3    H140918   4.717   0.994  11.540  0.7415 -0.6522  1.3849
 6501TIP3    H240919   4.859   0.998  11.488 -0.3753 -0.0267 -1.7092
 6502TIP3   OH240920   2.025   2.035  13.563  0.0740 -0.7916  0.1272
 6502TIP3    H140921   1.989   2.057  13.649  0.0658  0.6358 -0.2230
 6502TIP3    H240922   2.053   2.119  13.527  0.1751 -1.3929 -1.2236
 6503TIP3   OH240923   1.165   4.481  16.185  0.1223  0.3435  0.3587
 6503TIP3    H140924   1.178   4.524  16.270 -1.3252 -0.1982  0.8751
 6503TIP3    H240925   1.245   4.429  16.172  0.8215  1.2712  0.8698
 6504TIP3   OH240926   2.959   0.595  13.486  0.2520 -0.1967 -0.1809
 6504TIP3    H140927   2.945   0.561  13.398 -0.0038  0.3838 -0.3727
 6504TIP3    H240928   3.007   0.527  13.532 -0.0296 -0.6962 -0.6313
 6505TIP3   OH240929   1.991   1.142   2.215  0.2114 -0.5331 -0.1660
 6505TIP3    H140930   1.921   1.098   2.264 -0.4711  0.0424 -0.6130
 6505TIP3    H240931   2.071   1.102   2.248 -0.2902 -0.8101  0.7547
 6506TIP3   OH240932   3.718   5.118   3.999 -0.2433 -0.3306 -0.0054
 6506TIP3    H140933   3.636   5.070   4.007 -0.0590 -0.7318 -0.5023
 6506TIP3    H240934   3.772   5.064   3.942 -0.2527  0.7347 -1.0483
 6507TIP3   OH240935   5.127   6.592   4.382  0.0707 -0.3502  0.5423
 6507TIP3    H140936   5.059   6.612   4.446 -2.1791 -2.4038 -1.1246
 6507TIP3    H240937   5.099   6.637   4.302  1.0420 -0.6405  0.0220
 6508TIP3   OH240938   6.522   4.952  16.662 -0.6998 -0.0581  0.2807
 6508TIP3    H140939   6.555   5.030  16.706  0.8712 -0.5517 -0.0029
 6508TIP3    H240940   6.441   4.931  16.709 -1.7517  2.3654 -0.3394
 6509TIP3   OH240941   5.220   4.106  13.058  0.9591 -1.0129 -0.0914
 6509TIP3    H140942   5.280   4.048  13.011  2.6350 -0.2342  1.0545
 6509TIP3    H240943   5.262   4.192  13.056  0.2232 -0.5969  1.2995
 6510TIP3   OH240944   4.738   0.135   2.968 -0.2210 -0.3935 -0.9979
 6510TIP3    H140945   4.711   0.066   2.908 -1.2388 -0.2841 -0.6625
 6510TIP3    H240946   4.694   0.115   3.050  0.8511 -0.3166 -0.3942
 6511TIP3   OH240947   5.804   1.852   6.614  1.0293 -0.1135  0.5522
 6511TIP3    H140948   5.869   1.888   6.674  2.4040 -0.6012 -0.6040
 6511TIP3    H240949   5.775   1.771   6.656  1.5678 -0.1628  0.8378
 6512TIP3   OH240950   3.405   5.892   0.620  0.3092  0.0516  0.2334
 6512TIP3    H140951   3.344   5.876   0.548  0.1691 -0.3445  0.4381
 6512TIP3    H240952   3.429   5.985   0.611  0.5025 -0.0689 -0.4771
 6513TIP3   OH240953   0.319   1.265   4.990 -0.1333 -0.1757 -0.7966
 6513TIP3    H140954   0.366   1.337   4.947  0.2192 -0.6719 -1.2529
 6513TIP3    H240955   0.285   1.303   5.070  0.7030  0.3084 -0.6606
 6514TIP3   OH240956   5.508   0.445   2.966 -0.2092  0.4538  0.4281
 6514TIP3    H140957   5.551   0.370   2.925 -2.0232 -0.3121 -0.1346
 6514TIP3    H240958   5.536   0.441   3.057  1.4547  0.3939 -0.0618
 6515TIP3   OH240959   5.282   3.387  16.541 -0.2191 -0.2062 -0.5742
 6515TIP3    H140960   5.331   3.379  16.623  0.2198  1.8704 -0.6017
 6515TIP3    H240961   5.342   3.352  16.475  0.7297  1.1100 -0.4332
 6516TIP3   OH240962   6.160   4.055   5.444 -0.3278  0.1347 -0.4610
 6516TIP3    H140963   6.083   4.021   5.399 -0.6048  0.4785 -0.2564
 6516TIP3    H240964   6.189   4.129   5.390 -0.9209  0.8201  0.1490
 6517TIP3   OH240965   0.120   5.955  16.821 -0.2939 -0.5728  0.2388
 6517TIP3    H140966   0.099   6.026  16.881  0.5273 -0.3705  0.2926
 6517TIP3    H240967   0.215   5.959  16.811 -0.2662 -1.5169  0.0607
 6518TIP3   OH240968   4.072   2.683   4.190 -0.2070  0.1336 -0.4925
 6518TIP3    H140969   4.068   2.754   4.127  0.5221 -0.5415 -1.3234
 6518TIP3    H240970   4.076   2.604   4.136 -1.7180 -0.5820  0.4147
 6519TIP3   OH240971   3.886   6.560   2.304  0.2252 -0.1971  1.1624
 6519TIP3    H140972   3.829   6.605   2.366 -0.0739  0.7630  0.2183
 6519TIP3    H240973   3.888   6.617   2.227  1.4362 -0.8449  0.6881
 6520TIP3   OH240974   3.759   1.570  13.406  0.5858  0.0867  0.3051
 6520TIP3    H140975   3.820   1.547  13.476  1.6088  0.3920 -0.4898
 6520TIP3    H240976   3.723   1.655  13.433  1.1436  0.3099  0.3420
 6521TIP3   OH240977   3.644   2.086  15.432  0.4772  0.0551  0.0646
 6521TIP3    H140978   3.704   2.126  15.495 -0.4395  0.9600  0.3684
 6521TIP3    H240979   3.618   2.159  15.375  0.2040 -0.4727 -0.4889
 6522TIP3   OH240980   0.965   6.420   3.973 -0.3365  0.1034  0.2523
 6522TIP3    H140981   0.921   6.347   4.017 -1.0562  1.4056  1.7408
 6522TIP3    H240982   0.893   6.473   3.937  0.1447  0.6081  0.0297
 6523TIP3   OH240983   6.677   1.514  12.668 -0.3586 -0.0723  0.0937
 6523TIP3    H140984   6.638   1.530  12.754 -1.1467  2.3934 -0.6747
 6523TIP3    H240985   6.754   1.571  12.666  0.3220 -1.0008 -0.3966
 6524TIP3   OH240986   5.039   3.328   4.885  0.6335  0.2991 -0.2594
 6524TIP3    H140987   5.090   3.318   4.965  0.9537  0.5728 -0.4270
 6524TIP3    H240988   5.040   3.422   4.867  1.0218  0.1829 -0.8799
 6525TIP3   OH240989   5.031   4.913   5.215 -0.3368  0.0017  0.0852
 6525TIP3    H140990   4.957   4.900   5.274  0.2032  0.3747  0.8476
 6525TIP3    H240991   5.032   5.008   5.199 -0.3182 -0.0643 -0.3132
 6526TIP3   OH240992   4.497   6.114   2.745 -0.0512 -0.3078 -0.3009
 6526TIP3    H140993   4.489   6.196   2.697  0.7456 -0.4982 -0.7689
 6526TIP3    H240994   4.436   6.054   2.701 -1.7693  0.4515  0.9857
 6527TIP3   OH240995   3.449   0.062   3.493  0.4455 -0.3839  0.0211
 6527TIP3    H140996   3.505   0.127   3.534 -0.2953 -0.5075  1.2200
 6527TIP3    H240997   3.455  -0.015   3.550  0.8926 -1.2082 -1.0944
 6528TIP3   OH240998   4.420   0.495  14.368  0.2968  0.4782 -0.0010
 6528TIP3    H140999   4.504   0.534  14.391  0.1001  1.8649 -1.5007
 6528TIP3    H241000   4.425   0.481  14.273 -1.2022  0.7550 -0.1402
 6529TIP3   OH241001   0.336   2.556  15.689  0.0820  0.3047 -0.0998
 6529TIP3    H141002   0.363   2.497  15.760  1.3881 -1.7721 -2.2528
 6529TIP3    H241003   0.246   2.530  15.669  0.2093 -0.0658 -0.1860
 6530TIP3   OH241004   5.648   1.422  16.567  0.1922 -0.5334 -0.0075
 6530TIP3    H141005   5.598   1.406  16.487  0.6214  0.2516 -0.4445
 6530TIP3    H241006   5.620   1.509  16.595 -0.6597 -1.1853  1.2360
 6531TIP3   OH241007   1.430   0.597   5.776 -0.2767 -0.3282 -0.5291
 6531TIP3    H141008   1.426   0.679   5.823 -0.5967  0.3625 -1.7417
 6531TIP3    H241009   1.522   0.589   5.748 -0.5465  0.3210 -1.6279
 6532TIP3   OH241010   6.165   5.656  11.388 -0.4985  0.3081 -0.4379
 6532TIP3    H141011   6.154   5.589  11.455  0.2740  1.1426  0.5477
 6532TIP3    H241012   6.241   5.628  11.337  0.3261  0.8406  0.4862
 6533TIP3   OH241013   1.425   0.097  15.523 -0.1743  0.0367  0.2935
 6533TIP3    H141014   1.413   0.110  15.429 -0.1699 -0.7781  0.1785
 6533TIP3    H241015   1.492   0.028  15.530 -0.1945  0.0712  0.8904
 6534TIP3   OH241016   1.924   0.846  12.748 -0.0241 -0.1863 -0.6143
 6534TIP3    H141017   1.829   0.847  12.755 -0.1258 -0.1349 -1.8001
 6534TIP3    H241018   1.950   0.938  12.755 -0.1027 -0.1549 -0.7318
 6535TIP3   OH241019   2.015   4.145  15.384  0.0621  0.0184  0.3575
 6535TIP3    H141020   1.945   4.084  15.408  0.1720  0.2249  1.2318
 6535TIP3    H241021   2.075   4.093  15.331 -1.6237  0.2850 -1.8677
 6536TIP3   OH241022   0.106   3.350  16.000 -0.5024  0.4019 -0.4151
 6536TIP3    H141023   0.028   3.301  15.976 -0.3289  0.0031 -0.1855
 6536TIP3    H241024   0.096   3.435  15.958 -1.6097  0.7646  0.5746
 6537TIP3   OH241025   6.759   2.144  14.363 -0.4146 -0.0812  0.0460
 6537TIP3    H141026   6.706   2.083  14.312  0.7985 -2.0898  1.1077
 6537TIP3    H241027   6.749   2.115  14.454  0.6988  0.8947  0.4941
 6538TIP3   OH241028   5.572   5.908  13.737  0.0783  0.1263  0.1663
 6538TIP3    H141029   5.617   5.943  13.814 -0.6866 -1.5701  1.4144
 6538TIP3    H241030   5.594   5.815  13.737 -2.0821 -0.4074 -0.1366
 6539TIP3   OH241031   1.067   0.647   5.958  0.2724  0.0616  0.0534
 6539TIP3    H141032   1.144   0.610   6.001 -0.0593 -1.3971 -0.5743
 6539TIP3    H241033   1.010   0.675   6.030  0.5033 -0.7196  0.5416
 6540TIP3   OH241034   3.021   2.680  11.057  0.3931 -0.2023 -0.3234
 6540TIP3    H141035   3.084   2.734  11.105 -1.3708  0.0255  1.8130
 6540TIP3    H241036   3.048   2.590  11.077  1.9858 -0.1640 -2.0970
 6541TIP3   OH241037   6.740   3.049  14.454  0.6925  0.0966 -0.5202
 6541TIP3    H141038   6.676   3.115  14.478  0.4390 -0.1378 -0.5441
 6541TIP3    H241039   6.697   2.966  14.472  0.8743 -0.0678 -0.8304
 6542TIP3   OH241040   1.118   5.457  14.978 -1.0096 -0.5762 -0.1289
 6542TIP3    H141041   1.070   5.386  14.936 -0.8090 -0.4631 -0.5537
 6542TIP3    H241042   1.199   5.416  15.009 -0.4881 -0.3588 -1.1574
 6543TIP3   OH241043   4.461   3.840   5.994  0.1538  0.0612  0.1898
 6543TIP3    H141044   4.502   3.754   5.987  1.4337  0.6410  0.3143
 6543TIP3    H241045   4.368   3.822   6.002  0.4073 -1.3094  0.1835
 6544TIP3   OH241046   4.777   6.710  11.057  0.1216 -0.2238  0.4424
 6544TIP3    H141047   4.751   6.735  10.968  1.3839 -2.1779 -0.5064
 6544TIP3    H241048   4.694   6.708  11.106 -0.4333  2.1872 -0.3154
 6545TIP3   OH241049   0.052   1.078  12.108 -0.1613  0.1381 -0.1534
 6545TIP3    H141050   0.085   1.059  12.196 -0.8331 -0.9983 -0.1356
 6545TIP3    H241051   0.004   1.159  12.118  0.2836  0.3410  0.4036
 6546TIP3   OH241052   6.145   2.147   1.087  0.2302 -0.0391  0.2938
 6546TIP3    H141053   6.232   2.184   1.105 -0.2399  1.1977  0.0805
 6546TIP3    H241054   6.129   2.088   1.160  1.9528 -1.5547 -0.5157
 6547TIP3   OH241055   5.703   2.434  15.267 -0.2501  0.3294 -0.1626
 6547TIP3    H141056   5.746   2.350  15.285 -0.4066  0.0789 -0.9605
 6547TIP3    H241057   5.696   2.475  15.353 -0.8751 -0.8033  0.3430
 6548TIP3   OH241058   5.145   0.650  12.537 -0.5807 -0.2748 -0.2465
 6548TIP3    H141059   5.214   0.591  12.505 -1.0823 -1.2053  0.3702
 6548TIP3    H241060   5.193   0.720  12.581  0.0565  0.2452 -1.7407
 6549TIP3   OH241061   0.818   5.488   0.268 -0.5850  0.4841 -0.7213
 6549TIP3    H141062   0.874   5.565   0.271  0.0258  0.0110  0.4364
 6549TIP3    H241063   0.733   5.518   0.298  0.0574  0.3845  1.2886
 6550TIP3   OH241064   3.787   6.084   3.693 -0.0585  0.2848 -0.2193
 6550TIP3    H141065   3.838   6.045   3.622  1.9493  0.4215  1.1076
 6550TIP3    H241066   3.718   6.020   3.711  1.2916 -1.1859 -0.2100
 6551TIP3   OH241067   6.343   3.035  15.241  0.1059 -0.5092  0.1804
 6551TIP3    H141068   6.315   3.125  15.257 -0.5252 -0.6752  0.0129
 6551TIP3    H241069   6.394   3.012  15.319  1.2049  0.3626 -0.2653
 6552TIP3   OH241070   1.669   0.776   2.648  0.7661  0.2880 -0.4857
 6552TIP3    H141071   1.760   0.790   2.624  0.2952  3.0209 -0.9634
 6552TIP3    H241072   1.639   0.705   2.591  2.0413  0.7980 -1.8200
 6553TIP3   OH241073   1.839   1.035   2.423 -0.4557  0.3803 -0.1042
 6553TIP3    H141074   1.830   1.099   2.493 -0.8344  0.5882 -0.3469
 6553TIP3    H241075   1.857   0.952   2.469  1.5957  0.9337  0.1485
 6554TIP3   OH241076   4.258   6.519  15.264 -0.1496  1.2076 -0.2277
 6554TIP3    H141077   4.282   6.480  15.348  0.7398  0.2179 -0.9271
 6554TIP3    H241078   4.312   6.598  15.259  1.4570  0.1100 -0.8314
 6555TIP3   OH241079   5.121   1.586  14.729  0.3538  0.1056  0.1849
 6555TIP3    H141080   5.194   1.559  14.673  0.6029  0.5197  0.3135
 6555TIP3    H241081   5.047   1.533  14.698  0.6346 -0.1040 -0.1371
 6556TIP3   OH241082   5.782   2.622   2.231  0.1220  0.3029  0.6707
 6556TIP3    H141083   5.698   2.624   2.278  0.5562 -1.0558  1.5538
 6556TIP3    H241084   5.816   2.711   2.237 -1.0106  0.7354  0.7704
 6557TIP3   OH241085   5.278   4.345   2.802 -0.3087 -0.1826  0.1322
 6557TIP3    H141086   5.260   4.287   2.728  1.7785  1.2376 -1.5494
 6557TIP3    H241087   5.369   4.325   2.826 -0.6722  0.0381  1.7301
 6558TIP3   OH241088   2.134   5.803  17.079  0.3841  0.1822  0.1699
 6558TIP3    H141089   2.118   5.723  17.029 -0.5036 -0.4180  1.4067
 6558TIP3    H241090   2.120   5.874  17.015  1.2123 -0.6317 -0.9365
 6559TIP3   OH241091   2.003   1.588  14.171 -0.3039 -0.4091 -0.0728
 6559TIP3    H141092   1.935   1.599  14.238 -0.1154 -1.3430  0.2827
 6559TIP3    H241093   2.073   1.647  14.198 -0.4939 -0.3094  0.2015
 6560TIP3   OH241094   6.526   1.033   0.935  0.5783  0.5993  0.0861
 6560TIP3    H141095   6.431   1.043   0.943  0.6619 -0.0080  2.2331
 6560TIP3    H241096   6.537   0.960   0.874 -0.3737 -0.1342  0.7786
 6561TIP3   OH241097   2.244   0.727  14.319 -0.9032  0.1973 -0.3802
 6561TIP3    H141098   2.185   0.687  14.383 -0.9918 -0.2866 -0.7565
 6561TIP3    H241099   2.250   0.662  14.249 -1.3048  0.9825 -1.1484
 6562TIP3   OH241100   3.632   4.558  13.344 -0.0952 -0.4509  0.7835
 6562TIP3    H141101   3.546   4.534  13.379  0.3029 -1.6236  0.9832
 6562TIP3    H241102   3.690   4.486  13.371  0.7589 -0.1074 -0.1026
 6563TIP3   OH241103   2.583   1.109  17.067  0.2653  0.6072 -0.4811
 6563TIP3    H141104   2.671   1.148  17.062 -0.1745  1.7497  0.3576
 6563TIP3    H241105   2.565   1.105  17.161 -0.4286 -0.0031 -0.6347
 6564TIP3   OH241106   5.044   5.690   2.266 -0.4342  0.5063 -0.6346
 6564TIP3    H141107   5.106   5.689   2.193 -0.3945  0.4791 -0.6008
 6564TIP3    H241108   4.959   5.707   2.225 -1.1268 -3.7678 -1.2211
 6565TIP3   OH241109   1.666   0.597   3.144  0.2305  0.2636 -0.6739
 6565TIP3    H141110   1.664   0.689   3.118 -2.0344  0.7202  0.9173
 6565TIP3    H241111   1.603   0.554   3.086 -0.5339  0.1931  0.1986
 6566TIP3   OH241112   2.113   3.910   1.927  0.8577  0.6477 -0.2494
 6566TIP3    H141113   2.030   3.957   1.937  1.1625  1.3644 -1.0008
 6566TIP3    H241114   2.174   3.977   1.895  1.3004 -0.2820 -1.3485
 6567TIP3   OH241115   5.343   4.578   2.626 -0.0120 -1.0564 -0.5639
 6567TIP3    H141116   5.436   4.571   2.607 -0.2331 -1.4784 -1.5490
 6567TIP3    H241117   5.330   4.523   2.703  0.6887 -0.3411  0.0777
 6568TIP3   OH241118   6.040   3.991   0.219 -0.0274 -0.1928  0.0409
 6568TIP3    H141119   6.135   3.990   0.233 -0.1925  0.3400  1.2125
 6568TIP3    H241120   6.025   3.924   0.153  1.3324  0.6862 -1.1979
 6569TIP3   OH241121   0.463   3.569  15.808 -0.2174 -0.0967 -0.0996
 6569TIP3    H141122   0.536   3.611  15.763 -1.5022  0.0159 -2.0894
 6569TIP3    H241123   0.396   3.636  15.814 -2.1453 -1.6684 -2.9780
 6570TIP3   OH241124   0.922   5.787  15.823 -0.0442 -0.0274  0.1228
 6570TIP3    H141125   0.854   5.853  15.837 -0.4371 -0.5547  0.7126
 6570TIP3    H241126   0.883   5.705  15.852  1.1526 -0.1885  1.3593
 6571TIP3   OH241127   0.821   0.621  15.938 -0.1888  0.1374 -0.2116
 6571TIP3    H141128   0.880   0.625  15.863 -1.4739 -1.5039 -1.3559
 6571TIP3    H241129   0.824   0.709  15.976  0.6421  0.9378 -2.0613
 6572TIP3   OH241130   3.802   1.556   2.290  0.3384  0.0227  0.4560
 6572TIP3    H141131   3.715   1.595   2.280  0.9574  1.0088 -1.3652
 6572TIP3    H241132   3.861   1.630   2.301  0.8895 -0.6702  2.3218
 6573TIP3   OH241133   6.132   5.104   4.549  0.1386 -0.1010  0.1195
 6573TIP3    H141134   6.090   5.148   4.474  0.5999  0.0537 -0.0469
 6573TIP3    H241135   6.226   5.117   4.535  0.2630 -0.8608  0.2451
 6574TIP3   OH241136   6.605   6.326  11.240 -0.0473 -0.0004 -0.2630
 6574TIP3    H141137   6.510   6.335  11.231 -0.0831  1.2531  1.0855
 6574TIP3    H241138   6.616   6.243  11.288 -0.5070  0.3191  0.4014
 6575TIP3   OH241139   4.130   5.136  15.048  0.3356 -0.7396  0.1484
 6575TIP3    H141140   4.121   5.056  14.997 -0.8079 -0.6382  0.1724
 6575TIP3    H241141   4.213   5.126  15.095 -0.2517 -2.3401  0.8805
 6576TIP3   OH241142   0.175   2.045   2.920  0.1668 -0.3312 -0.8619
 6576TIP3    H141143   0.230   2.122   2.934  1.3353 -1.2832 -0.1448
 6576TIP3    H241144   0.148   2.018   3.008  0.3836 -1.1742 -1.0451
 6577TIP3   OH241145   6.494   6.693   0.960 -0.0438 -0.2802  0.1002
 6577TIP3    H141146   6.417   6.656   1.002  0.3187 -0.4208  0.6391
 6577TIP3    H241147   6.468   6.705   0.869 -1.1409  0.9171  0.5706
 6578TIP3   OH241148   0.406   2.920   2.508 -0.0352 -0.5687  0.1826
 6578TIP3    H141149   0.498   2.894   2.501 -0.4119 -1.4329 -1.9822
 6578TIP3    H241150   0.357   2.843   2.479 -1.4164  0.3289  0.0776
 6579TIP3   OH241151   5.188   1.770   0.261 -0.0435  0.0823  0.5687
 6579TIP3    H141152   5.109   1.803   0.218  0.2457 -0.0867 -0.0969
 6579TIP3    H241153   5.258   1.784   0.197  0.0670 -1.9440  0.2225
 6580TIP3   OH241154   4.474   5.540   1.486  1.0826  0.3366  0.2802
 6580TIP3    H141155   4.409   5.572   1.549  1.4599  0.4356  0.6199
 6580TIP3    H241156   4.424   5.523   1.406  0.3249 -1.2325  1.0628
 6581TIP3   OH241157   4.219   5.791   0.960  0.5760  0.2075  0.1940
 6581TIP3    H141158   4.275   5.824   0.890 -0.8589 -1.7933 -1.9968
 6581TIP3    H241159   4.171   5.867   0.991  0.5029  0.9654 -1.7190
 6582TIP3   OH241160   5.964   0.447  15.021 -0.2900  0.2126 -0.5335
 6582TIP3    H141161   6.036   0.506  14.998  1.8916 -3.1974 -2.8813
 6582TIP3    H241162   5.912   0.441  14.941 -0.6799 -0.7882 -0.2069
 6583TIP3   OH241163   4.787   1.733   0.987  0.5079  0.2605 -0.6093
 6583TIP3    H141164   4.758   1.692   1.068  0.2268 -0.0559 -0.8690
 6583TIP3    H241165   4.829   1.814   1.015 -0.0458  0.4010 -0.1856
 6584TIP3   OH241166   2.166   4.338  15.821 -0.4067  0.2852  0.6033
 6584TIP3    H141167   2.109   4.262  15.836  1.2300 -1.4426 -1.5301
 6584TIP3    H241168   2.108   4.403  15.781 -1.2059 -0.9281 -0.2718
 6585TIP3   OH241169   4.091   5.038   0.729 -0.8051 -0.1555 -0.1305
 6585TIP3    H141170   4.034   4.992   0.791 -0.3545 -0.5410  0.0100
 6585TIP3    H241171   4.033   5.068   0.660 -1.1562 -0.6571 -0.0578
 6586TIP3   OH241172   2.524   4.669  15.680  0.2633 -0.0650  0.2283
 6586TIP3    H141173   2.465   4.602  15.647 -1.4952  0.5352  2.0287
 6586TIP3    H241174   2.488   4.693  15.765  1.8399  1.9320  0.3790
 6587TIP3   OH241175   4.139   0.561  13.990  0.0442 -0.1646  0.5635
 6587TIP3    H141176   4.073   0.493  13.977  1.1404 -0.9315 -1.2122
 6587TIP3    H241177   4.211   0.516  14.033  1.0473 -0.3420 -1.2243
 6588TIP3   OH241178   1.057   4.820   4.992  0.4870 -0.1675  0.1911
 6588TIP3    H141179   1.036   4.735   4.954  0.4902  0.2672 -0.7983
 6588TIP3    H241180   1.151   4.814   5.013  0.3937 -0.5478  0.4971
 6589TIP3   OH241181   5.908   0.166  14.449  0.0947 -0.3127 -0.3834
 6589TIP3    H141182   5.968   0.175  14.375 -0.6691  0.4752 -0.9049
 6589TIP3    H241183   5.836   0.225  14.429 -0.6886 -0.9961  0.4192
 6590TIP3   OH241184   5.903   6.049  15.944 -0.6514  0.4378  0.4319
 6590TIP3    H141185   5.890   6.118  16.009 -1.5937 -0.0312  0.7603
 6590TIP3    H241186   5.880   6.090  15.860  0.7219  1.0901  0.3592
 6591TIP3   OH241187   2.752   5.686   3.903  0.6614 -0.2893  0.1893
 6591TIP3    H141188   2.707   5.723   3.979  0.0402 -0.3616 -0.1433
 6591TIP3    H241189   2.734   5.748   3.832  1.8717  0.1785  0.2696
 6592TIP3   OH241190   2.812   1.440  15.971  0.0872  0.0904  0.0118
 6592TIP3    H141191   2.723   1.475  15.980  0.4948  0.8096  1.3900
 6592TIP3    H241192   2.851   1.452  16.057  2.2174  1.6978 -1.1339
 6593TIP3   OH241193   0.115   1.981   4.931 -0.4927  0.1574  0.1076
 6593TIP3    H141194   0.143   1.990   5.022 -2.0983 -0.7781  0.7142
 6593TIP3    H241195   0.039   2.039   4.924  0.4972  1.3643 -1.0584
 6594TIP3   OH241196   5.656   4.859   5.703 -0.4609 -1.0211 -0.0414
 6594TIP3    H141197   5.675   4.944   5.664 -1.4459 -1.0189 -0.5430
 6594TIP3    H241198   5.731   4.840   5.759 -0.6595  0.6133  0.8052
 6595TIP3   OH241199   0.986   1.891   0.654  0.0944 -0.5598  0.0048
 6595TIP3    H141200   1.016   1.958   0.593 -1.0308 -0.5611 -0.5605
 6595TIP3    H241201   0.893   1.880   0.634 -0.2138 -0.7723  1.5240
 6596TIP3   OH241202   3.961   2.827  13.358 -0.2619  0.3698  0.0328
 6596TIP3    H141203   4.006   2.785  13.432  0.8049 -1.5748 -1.6746
 6596TIP3    H241204   3.877   2.782  13.354 -0.7703  1.2341  0.7125
 6597TIP3   OH241205   4.692   3.510  13.072 -0.0002  0.3333 -0.3682
 6597TIP3    H141206   4.701   3.415  13.082  0.6507  0.5965  1.7760
 6597TIP3    H241207   4.782   3.543  13.072 -0.2693  1.0999  0.7396
 6598TIP3   OH241208   6.748   1.048   0.229  0.3817 -0.2103  0.7905
 6598TIP3    H141209   6.797   0.984   0.280  0.2005 -2.3660 -1.5779
 6598TIP3    H241210   6.814   1.091   0.175  0.1680 -0.4141  0.3617
 6599TIP3   OH241211   5.629   2.853   0.350 -0.0026 -0.1292  0.7090
 6599TIP3    H141212   5.587   2.767   0.353  0.1474 -0.2291 -0.0867
 6599TIP3    H241213   5.601   2.896   0.431 -2.1457  0.0281 -0.0760
 6600TIP3   OH241214   0.179   2.234   0.244 -0.2090 -0.2291  0.1184
 6600TIP3    H141215   0.151   2.174   0.313 -0.8243  0.2418  0.2884
 6600TIP3    H241216   0.215   2.178   0.176  1.8814 -0.6112  1.4929
 6601TIP3   OH241217   2.068   2.683  10.694  0.0243  0.2434 -0.2452
 6601TIP3    H141218   2.109   2.655  10.612 -0.9095  0.0653 -0.6588
 6601TIP3    H241219   2.018   2.607  10.723 -1.3923  1.0126 -0.6419
 6602TIP3   OH241220   6.560   4.083  17.216  0.2218  0.2660 -0.0334
 6602TIP3    H141221   6.560   4.174  17.187 -1.0690  0.1064 -0.5770
 6602TIP3    H241222   6.531   4.034  17.139  0.3655 -0.5433  0.4278
 6603TIP3   OH241223   2.972   2.823  11.687 -0.3967  0.3399 -0.2884
 6603TIP3    H141224   2.932   2.876  11.619  0.1811  1.2002  0.0295
 6603TIP3    H241225   3.047   2.781  11.644 -1.3642 -0.9373 -0.7710
 6604TIP3   OH241226   2.391   4.462  15.609 -0.0570 -0.3229  0.6498
 6604TIP3    H141227   2.451   4.388  15.623  1.9284  0.4119 -3.2953
 6604TIP3    H241228   2.320   4.425  15.557 -0.6513 -0.1150  1.3040
 6605TIP3   OH241229   2.288   3.212   0.894  0.6215 -0.0402 -0.3167
 6605TIP3    H141230   2.341   3.132   0.896  0.6913  0.0066 -0.3072
 6605TIP3    H241231   2.219   3.197   0.959  1.9834  0.8690  1.3690
 6606TIP3   OH241232   0.284   0.958   0.324  0.6256  0.4991 -0.4479
 6606TIP3    H141233   0.355   0.950   0.388  2.1265 -2.1115 -2.3632
 6606TIP3    H241234   0.245   0.871   0.321 -0.9218  1.2104 -1.4343
 6607TIP3   OH241235   4.014   0.700  13.773  0.0354  0.3776 -0.4616
 6607TIP3    H141236   4.072   0.673  13.844 -0.6141 -0.0657 -0.0950
 6607TIP3    H241237   3.946   0.752  13.815  0.5005  1.4134 -0.9780
 6608TIP3   OH241238   4.112   3.565  12.380  0.0311 -0.7789  0.2043
 6608TIP3    H141239   4.030   3.611  12.363  1.1438  1.2845  0.2501
 6608TIP3    H241240   4.121   3.567  12.475  0.2910 -0.7186  0.1778
 6609TIP3   OH241241   6.485   0.733   0.374 -0.3512 -0.3723 -0.1652
 6609TIP3    H141242   6.405   0.691   0.345 -1.9530  2.8477 -0.6908
 6609TIP3    H241243   6.525   0.767   0.294 -0.3880  1.2042  0.4629
 6610TIP3   OH241244   0.383   5.755   1.274 -0.1282 -0.8788  0.4974
 6610TIP3    H141245   0.380   5.838   1.226 -0.4324  0.0709  2.1308
 6610TIP3    H241246   0.382   5.688   1.205 -0.5663  0.4499 -0.8262
 6611TIP3   OH241247   2.016   2.458  15.065  0.6771 -0.5848  0.0929
 6611TIP3    H141248   1.941   2.416  15.023 -0.2010  1.4672 -0.4913
 6611TIP3    H241249   2.091   2.431  15.013  0.1697 -1.6506 -0.0906
 6612TIP3   OH241250   6.411   5.732   2.013  0.5453  0.2403 -1.1175
 6612TIP3    H141251   6.398   5.817   2.057  0.2310  0.1957 -1.1216
 6612TIP3    H241252   6.506   5.722   2.008  0.5851  0.7192 -1.3582
 6613TIP3   OH241253   5.689   0.158  11.855 -0.0173 -0.1344 -0.0460
 6613TIP3    H141254   5.692   0.179  11.949 -1.0067 -0.4019  0.0482
 6613TIP3    H241255   5.668   0.064  11.852  0.4808 -0.2335 -0.5308
 6614TIP3   OH241256   1.807   0.271  12.988  0.0042 -0.5514 -0.2141
 6614TIP3    H141257   1.762   0.278  12.904  1.8892 -0.7805 -1.2820
 6614TIP3    H241258   1.872   0.342  12.986  0.4828 -0.9610  0.7684
 6615TIP3   OH241259   2.872   6.168   4.234 -0.0752  0.8869  0.6804
 6615TIP3    H141260   2.787   6.150   4.275  0.4004 -1.3572  0.7429
 6615TIP3    H241261   2.935   6.164   4.306  0.1081  2.5784  0.6378
 6616TIP3   OH241262   5.443   2.354  16.182  0.4440  0.2896 -0.6545
 6616TIP3    H141263   5.475   2.305  16.106  0.9125 -0.0795 -0.2223
 6616TIP3    H241264   5.356   2.318  16.199  0.1424  0.6929 -1.2951
 6617TIP3   OH241265   0.864   0.094  13.825 -0.1102  0.0933 -0.5741
 6617TIP3    H141266   0.914   0.053  13.754 -0.6741  0.0607 -0.9511
 6617TIP3    H241267   0.899   0.183  13.830  0.5079 -0.1548 -0.3353
 6618TIP3   OH241268   3.641   0.048   3.036 -0.1517 -0.5811  0.2048
 6618TIP3    H141269   3.590   0.077   3.112 -0.3366  2.5267 -1.0743
 6618TIP3    H241270   3.643   0.123   2.977  2.7086 -1.8743 -1.4765
 6619TIP3   OH241271   0.455   3.093   5.569 -0.1689  0.1439  0.0444
 6619TIP3    H141272   0.440   3.070   5.661  1.4385 -0.1685  0.2416
 6619TIP3    H241273   0.396   3.167   5.553 -0.6171  0.0640  1.2618
 6620TIP3   OH241274   3.276   0.420   2.423  0.5470  0.5719 -0.8253
 6620TIP3    H141275   3.278   0.329   2.454  1.6165  0.8147 -0.1705
 6620TIP3    H241276   3.338   0.421   2.350  0.9823  0.9263 -0.4441
 6621TIP3   OH241277   4.251   4.835   4.747 -0.0784 -0.0168 -0.6135
 6621TIP3    H141278   4.295   4.754   4.720  1.2075 -0.0942  1.6090
 6621TIP3    H241279   4.216   4.815   4.834 -1.2987  1.2577 -0.7985
 6622TIP3   OH241280   1.990   3.976   5.531 -0.3512  0.1847  0.0271
 6622TIP3    H141281   2.025   3.995   5.619 -1.0781 -0.1744  0.3977
 6622TIP3    H241282   1.978   3.881   5.530 -2.0865  0.3905  0.2035
 6623TIP3   OH241283   3.614   0.727   4.379  0.2661 -0.5797  0.0326
 6623TIP3    H141284   3.647   0.696   4.295 -1.4113  0.1376 -0.9249
 6623TIP3    H241285   3.691   0.764   4.423  1.7027 -3.4297  0.0018
 6624TIP3   OH241286   6.556   0.449   2.499  0.4631 -0.1188  0.3407
 6624TIP3    H141287   6.610   0.524   2.523  2.0037 -1.2466  0.4713
 6624TIP3    H241288   6.502   0.481   2.427 -0.0902  1.5923  1.4861
 6625TIP3   OH241289   5.018   1.340   1.432  0.3204  0.3569 -0.3129
 6625TIP3    H141290   5.062   1.407   1.381  1.3870  0.1361  0.3149
 6625TIP3    H241291   5.047   1.354   1.522 -1.4074  0.6324  0.2240
 6626TIP3   OH241292   2.185   5.422   3.549 -0.1781  0.0134  0.4079
 6626TIP3    H141293   2.112   5.455   3.602  0.4396  0.9075  0.7097
 6626TIP3    H241294   2.240   5.499   3.532  0.8121 -0.6883  0.3698
 6627TIP3   OH241295   1.533   2.936  11.485 -0.1575  0.2702  0.1095
 6627TIP3    H141296   1.554   2.844  11.468 -0.7304  0.4664 -1.8406
 6627TIP3    H241297   1.479   2.962  11.410 -0.9801  1.8763  1.2293
 6628TIP3   OH241298   2.941   4.372  17.034  0.6077 -0.4231  0.0841
 6628TIP3    H141299   2.880   4.434  16.994  0.3292 -1.6953 -1.4731
 6628TIP3    H241300   2.917   4.372  17.127 -0.4850  0.5357 -0.1871
 6629TIP3   OH241301   5.816   3.159   3.713 -0.4197 -0.1980 -0.0086
 6629TIP3    H141302   5.847   3.073   3.683  1.0107  0.6166 -0.9142
 6629TIP3    H241303   5.828   3.157   3.808  1.8103 -0.1477 -0.2763
 6630TIP3   OH241304   2.539   0.791   3.346 -0.8753 -0.0562 -0.0618
 6630TIP3    H141305   2.504   0.750   3.425 -1.6389  1.0742  0.2045
 6630TIP3    H241306   2.492   0.749   3.274  0.9180 -2.1746 -0.0224
 6631TIP3   OH241307   2.236   2.902   2.319 -0.2407  0.1844 -0.3678
 6631TIP3    H141308   2.281   2.888   2.403  1.4608 -2.9190 -1.7342
 6631TIP3    H241309   2.295   2.960   2.270  1.3458 -2.2101 -1.3637
 6632TIP3   OH241310   3.094   1.279  11.034  0.2349  0.2636 -0.2517
 6632TIP3    H141311   3.100   1.230  10.952  0.9790 -0.0482 -0.0204
 6632TIP3    H241312   3.185   1.302  11.055 -0.0285  1.0448  0.0621
 6633TIP3   OH241313   5.989   1.602   0.540 -0.2880  0.1735 -0.0426
 6633TIP3    H141314   6.048   1.659   0.590 -0.5519  1.2425 -0.9339
 6633TIP3    H241315   5.939   1.662   0.486 -0.9384 -0.8830 -0.6132
 6634TIP3   OH241316   3.199   3.274  15.328 -0.2657 -0.0437 -0.5563
 6634TIP3    H141317   3.259   3.284  15.254  0.0398  5.7198  0.2563
 6634TIP3    H241318   3.254   3.238  15.398  0.6841 -0.7017 -1.6117
 6635TIP3   OH241319   4.036   2.954   1.524  0.0657  0.0958 -0.4692
 6635TIP3    H141320   3.983   2.885   1.565  0.2287 -0.4395 -1.1522
 6635TIP3    H241321   3.972   3.007   1.476 -0.1215  0.7056  0.4389
 6636TIP3   OH241322   0.307   6.121   1.384  0.2454 -0.7268 -0.2490
 6636TIP3    H141323   0.387   6.164   1.353  0.0213  1.0659  1.5446
 6636TIP3    H241324   0.286   6.166   1.466 -2.8936 -0.8046 -0.9436
 6637TIP3   OH241325   5.269   3.572   0.424 -0.1172  0.1982 -0.0868
 6637TIP3    H141326   5.247   3.643   0.364  0.9749 -0.9309 -1.8455
 6637TIP3    H241327   5.193   3.565   0.482 -0.5577  2.2721 -0.3747
 6638TIP3   OH241328   4.307   1.542  11.051 -0.0438 -0.2925  0.5157
 6638TIP3    H141329   4.212   1.549  11.042  0.1400  1.1940 -0.3112
 6638TIP3    H241330   4.333   1.477  10.986 -0.3551  0.2319 -0.1345
 6639TIP3   OH241331   4.888   4.988   3.467  0.2430  0.2549  0.5281
 6639TIP3    H141332   4.858   5.070   3.507 -3.2560 -1.3040  1.2386
 6639TIP3    H241333   4.920   4.936   3.541  0.2621  0.0439  0.3710
 6640TIP3   OH241334   5.632   2.571  12.894 -0.6474 -0.3631  0.4878
 6640TIP3    H141335   5.625   2.489  12.846  1.6586 -0.0157 -0.5256
 6640TIP3    H241336   5.681   2.548  12.973 -1.7280 -0.3219  1.1875
 6641TIP3   OH241337   5.524   1.930   1.861  0.2779 -0.0818 -0.1216
 6641TIP3    H141338   5.565   2.013   1.835  0.4611 -0.0546  0.2470
 6641TIP3    H241339   5.562   1.865   1.802  0.0796  0.1070 -0.4600
 6642TIP3   OH241340   3.370   0.350  11.977 -0.5826 -0.0969 -0.3517
 6642TIP3    H141341   3.420   0.384  12.052 -1.0454 -1.5248  0.6129
 6642TIP3    H241342   3.432   0.353  11.904  0.0164  0.8701  0.1832
 6643TIP3   OH241343   6.124   1.781  15.826  0.3180  0.0997  0.5807
 6643TIP3    H141344   6.044   1.829  15.849  0.9449  0.4639  2.0221
 6643TIP3    H241345   6.092   1.700  15.786 -0.8208 -0.7684  3.1385
 6644TIP3   OH241346   0.232   1.342  12.445  0.1544 -0.2169 -0.1610
 6644TIP3    H141347   0.243   1.435  12.426 -2.1006  0.3784  1.1683
 6644TIP3    H241348   0.149   1.319  12.405 -0.0898 -1.2455  0.8875
 6645TIP3   OH241349   0.517   2.170   4.956  0.7607  0.1042 -0.7190
 6645TIP3    H141350   0.477   2.086   4.934  1.2662 -0.3477  0.0692
 6645TIP3    H241351   0.458   2.235   4.918  0.0039 -0.5885 -0.7484
 6646TIP3   OH241352   3.360   6.327   0.991 -0.8219 -0.0936 -1.0185
 6646TIP3    H141353   3.348   6.245   1.039 -1.4018 -0.1066 -1.1807
 6646TIP3    H241354   3.386   6.391   1.057  0.8254 -0.6778 -1.0679
 6647TIP3   OH241355   6.507   0.665  14.901  0.0649 -0.5762 -0.4740
 6647TIP3    H141356   6.494   0.706  14.986 -0.6963 -0.5868 -0.5826
 6647TIP3    H241357   6.565   0.591  14.918  0.4734 -0.1676 -0.0837
 6648TIP3   OH241358   1.964   6.620  13.184  0.2508 -0.5645 -0.7584
 6648TIP3    H141359   2.023   6.691  13.209  0.7073 -0.3928 -2.2929
 6648TIP3    H241360   1.956   6.567  13.264  1.0566  0.3915 -0.0221
 6649TIP3   OH241361   0.111   0.429  13.254  0.5793  0.4567 -0.1152
 6649TIP3    H141362   0.151   0.380  13.326 -0.4847  0.8060  0.7134
 6649TIP3    H241363   0.172   0.501  13.238  0.1798  1.1402  1.3230
 6650TIP3   OH241364   2.055   5.828  15.533  0.2882 -0.9198 -0.0204
 6650TIP3    H141365   2.145   5.810  15.507  0.6190  0.4730  0.1374
 6650TIP3    H241366   2.054   5.814  15.628  0.8274  1.0042  0.2751
 6651TIP3   OH241367   0.532   5.589   1.923 -0.4027 -0.0619  0.0440
 6651TIP3    H141368   0.509   5.623   2.010  0.2457 -2.0903  1.0430
 6651TIP3    H241369   0.456   5.610   1.868  0.0508  3.1327  0.5216
 6652TIP3   OH241370   2.996   5.806   1.393  0.5553  0.8191 -0.5556
 6652TIP3    H141371   2.957   5.755   1.321 -1.6430 -0.9458  1.7867
 6652TIP3    H241372   2.935   5.879   1.407  0.5332  0.6888  0.0462
 6653TIP3   OH241373   3.305   1.946  14.854  0.1040 -0.2780  0.4091
 6653TIP3    H141374   3.284   1.896  14.776  1.0865  1.0061 -0.6892
 6653TIP3    H241375   3.337   2.030  14.822  0.4215  0.3142  2.1890
 6654TIP3   OH241376   6.255   4.284  17.062  0.2369  0.5292 -0.3123
 6654TIP3    H141377   6.271   4.197  17.026 -0.2351  0.1968  0.2726
 6654TIP3    H241378   6.332   4.301  17.117  0.1029  0.2813 -0.0484
 6655TIP3   OH241379   0.920   0.501   3.426 -0.1253  0.5551 -0.0704
 6655TIP3    H141380   0.956   0.579   3.382  1.1184  0.5672  0.9660
 6655TIP3    H241381   0.996   0.449   3.450 -0.8917 -0.3157  0.5129
 6656TIP3   OH241382   4.407   5.403  11.962 -0.1017  0.1861  0.1102
 6656TIP3    H141383   4.430   5.440  11.877 -1.2319 -0.4579 -0.4876
 6656TIP3    H241384   4.321   5.363  11.949  0.3647 -1.2107  1.1557
 6657TIP3   OH241385   5.198   3.493  11.788 -0.2814  0.2617  0.2497
 6657TIP3    H141386   5.170   3.413  11.743  2.3150 -0.3130 -0.4804
 6657TIP3    H241387   5.162   3.564  11.735  0.1067 -0.4388 -0.9888
 6658TIP3   OH241388   5.939   5.806  15.077  0.1140  0.0112  0.0477
 6658TIP3    H141389   5.885   5.883  15.093 -0.0469 -0.0658 -0.1236
 6658TIP3    H241390   6.021   5.824  15.123  0.1748  0.3972 -0.2130
 6659TIP3   OH241391   3.770   1.146  14.419 -0.2764  0.4529 -0.8509
 6659TIP3    H141392   3.716   1.083  14.373  0.6010 -1.1882  0.3289
 6659TIP3    H241393   3.721   1.169  14.498 -0.7547  1.5261 -1.4531
 6660TIP3   OH241394   5.526   2.944   5.111 -0.4502 -0.3749 -0.3756
 6660TIP3    H141395   5.510   2.881   5.040 -1.4235 -1.0028  0.3798
 6660TIP3    H241396   5.446   2.996   5.115 -0.0929  0.1640 -0.2421
 6661TIP3   OH241397   4.209   3.451   3.811 -0.2416 -0.6686 -0.3860
 6661TIP3    H141398   4.303   3.462   3.794 -0.1981  3.1601  1.9146
 6661TIP3    H241399   4.166   3.489   3.735  0.0744 -0.2922 -0.3783
 6662TIP3   OH241400   4.896   2.527   2.167  0.2713 -0.7744 -0.2768
 6662TIP3    H141401   4.825   2.513   2.104  0.0110 -0.6689 -0.0112
 6662TIP3    H241402   4.902   2.623   2.174 -0.4936 -0.7916  0.7414
 6663TIP3   OH241403   1.688   0.096  12.152 -0.0713 -0.0101 -0.1049
 6663TIP3    H141404   1.652   0.145  12.226  2.0965  2.2977 -0.5069
 6663TIP3    H241405   1.731   0.021  12.192 -2.1561 -0.8265  0.6502
 6664TIP3   OH241406   6.649   1.594   0.724 -0.2591  0.1989 -0.0853
 6664TIP3    H141407   6.673   1.534   0.795  0.2397 -0.0334 -0.4454
 6664TIP3    H241408   6.555   1.605   0.732 -0.6125 -1.9260 -1.0080
 6665TIP3   OH241409   3.644   4.182  15.992 -0.1576  0.1505  0.5893
 6665TIP3    H141410   3.564   4.190  16.045  0.3066 -0.4392  1.3847
 6665TIP3    H241411   3.635   4.097  15.949 -0.1515  0.2746  0.3402
 6666TIP3   OH241412   5.953   3.699   1.048  0.2422  0.3006 -0.3774
 6666TIP3    H141413   5.944   3.636   0.977 -3.4506  1.3615 -0.9426
 6666TIP3    H241414   6.001   3.772   1.009  0.6072 -0.2706 -1.0080
 6667TIP3   OH241415   4.648   2.995  14.440 -0.5793  0.1599  0.0951
 6667TIP3    H141416   4.740   3.018  14.450  0.0904 -1.6857 -1.5586
 6667TIP3    H241417   4.649   2.914  14.390 -3.1158  0.1175  0.0677
 6668TIP3   OH241418   0.915   5.312   5.142  0.1510  0.2145  0.5952
 6668TIP3    H141419   0.909   5.273   5.055 -0.4937  0.6633  0.4308
 6668TIP3    H241420   0.878   5.247   5.201 -1.8407  0.9398  0.2036
 6669TIP3   OH241421   5.809   2.440   4.757 -0.1791 -0.0778  0.2084
 6669TIP3    H141422   5.877   2.488   4.806  0.5790 -2.4250  1.5121
 6669TIP3    H241423   5.747   2.412   4.823 -1.7552  0.8810 -0.8261
 6670TIP3   OH241424   4.687   5.173   5.683 -0.2257 -0.1498  0.1353
 6670TIP3    H141425   4.595   5.153   5.668  0.1309 -1.4771 -0.2902
 6670TIP3    H241426   4.702   5.149   5.774 -0.1375 -0.5452  0.0164
 6671TIP3   OH241427   2.079   3.765   4.112  0.5710  0.5089  0.0726
 6671TIP3    H141428   2.009   3.783   4.050  2.2143  1.6458 -1.5188
 6671TIP3    H241429   2.090   3.670   4.109  0.2313  0.4987 -0.9281
 6672TIP3   OH241430   6.356   6.037  11.346 -0.0701 -0.5871 -0.4285
 6672TIP3    H141431   6.440   6.001  11.318  0.6531 -1.4293  2.5783
 6672TIP3    H241432   6.366   6.132  11.337  1.1162 -0.7023 -0.3764
 6673TIP3   OH241433   4.093   6.382   1.512 -0.5547  0.0395  0.4675
 6673TIP3    H141434   4.110   6.288   1.503  2.6022  0.4611  1.4949
 6673TIP3    H241435   4.099   6.398   1.606 -0.5810  1.3655  0.2422
 6674TIP3   OH241436   4.575   2.261  15.932 -0.0380  0.1068 -0.2462
 6674TIP3    H141437   4.617   2.175  15.932 -1.0374 -0.4512 -2.8637
 6674TIP3    H241438   4.629   2.315  15.989  0.1543 -2.4697  2.0871
 6675TIP3   OH241439   3.551   1.865  15.754  0.4692 -0.4263 -0.0686
 6675TIP3    H141440   3.622   1.927  15.773  0.1232 -0.1767  0.4060
 6675TIP3    H241441   3.596   1.788  15.718  1.0637 -0.5891  0.9837
 6676TIP3   OH241442   0.979   5.861  13.338 -0.2065  0.3251 -0.0677
 6676TIP3    H141443   0.925   5.914  13.279 -0.0508  1.9345  1.1877
 6676TIP3    H241444   0.941   5.876  13.425  1.2594  0.2137  0.6038
 6677TIP3   OH241445   0.465   3.897  12.135  0.6872 -0.2080 -0.4346
 6677TIP3    H141446   0.557   3.875  12.151  0.8362  1.4867  1.2777
 6677TIP3    H241447   0.468   3.978  12.084  0.1523  0.0422 -0.0774
 6678TIP3   OH241448   1.285   6.772   0.678 -0.5176  0.5041  0.4115
 6678TIP3    H141449   1.194   6.750   0.698 -0.8705  1.1488 -0.4290
 6678TIP3    H241450   1.280   6.820   0.595  0.5402  0.9433  0.5924
 6679TIP3   OH241451   1.428   3.951   3.964  0.2885 -0.0512  0.5814
 6679TIP3    H141452   1.453   3.974   3.874 -0.8195 -1.7085 -0.1843
 6679TIP3    H241453   1.334   3.968   3.968  0.2105 -0.6032  1.2227
 6680TIP3   OH241454   6.213   0.784  12.130 -0.5743 -0.4878  0.0388
 6680TIP3    H141455   6.224   0.740  12.046 -1.1349 -3.4464  1.4712
 6680TIP3    H241456   6.239   0.875  12.113  3.5458 -1.9924 -2.2332
 6681TIP3   OH241457   0.790   6.363  16.255  0.5086  0.2785  0.6109
 6681TIP3    H141458   0.695   6.355  16.261  0.4449 -0.2592 -0.9974
 6681TIP3    H241459   0.823   6.275  16.274  0.6809  0.3864  0.8237
 6682TIP3   OH241460   3.177   5.435   2.701  0.5426 -0.2100 -0.4348
 6682TIP3    H141461   3.228   5.382   2.762  0.8566  0.0038 -0.5114
 6682TIP3    H241462   3.232   5.511   2.684  0.1427  0.0891 -0.4087
 6683TIP3   OH241463   5.475   5.328  12.707 -0.1272 -0.6203 -0.4705
 6683TIP3    H141464   5.512   5.244  12.735 -0.0417 -1.1805 -2.1694
 6683TIP3    H241465   5.419   5.305  12.633 -1.4476  0.6235  0.1265
 6684TIP3   OH241466   2.466   5.911  11.840  0.2428 -0.2295  0.3124
 6684TIP3    H141467   2.454   5.827  11.795 -0.4699 -0.2373  0.5146
 6684TIP3    H241468   2.461   5.976  11.770 -1.4222 -0.2011  0.4347
 6685TIP3   OH241469   1.712   2.002  14.189  0.5302  0.4910 -0.4825
 6685TIP3    H141470   1.747   2.069  14.131  0.5696 -0.0864 -1.1199
 6685TIP3    H241471   1.719   2.041  14.277  2.0282  0.7007 -0.6736
 6686TIP3   OH241472   4.035   3.513  16.077  0.2643 -0.0634 -0.3367
 6686TIP3    H141473   4.094   3.512  16.152  1.0598 -0.6312 -0.9623
 6686TIP3    H241474   4.068   3.444  16.020 -0.0630  0.6584 -1.4124
 6687TIP3   OH241475   0.554   4.209  12.948 -0.2278 -0.1323 -0.5655
 6687TIP3    H141476   0.477   4.217  13.005  0.3996  3.0163 -0.0827
 6687TIP3    H241477   0.519   4.205  12.859 -1.0473 -1.2695 -0.1960
 6688TIP3   OH241478   3.078   1.629  12.359  0.2141 -0.1077  0.4315
 6688TIP3    H141479   3.087   1.598  12.269 -0.4346  2.6446 -0.6364
 6688TIP3    H241480   3.114   1.559  12.413 -0.1860 -2.1706 -1.9159
 6689TIP3   OH241481   2.294   6.705  13.815 -0.1035 -0.3893  0.5322
 6689TIP3    H141482   2.363   6.640  13.812 -1.8395 -2.2307 -0.8170
 6689TIP3    H241483   2.293   6.743  13.727 -0.4626 -0.0172  0.6952
 6690TIP3   OH241484   1.394   1.314  13.738  0.0252 -0.1014  0.2152
 6690TIP3    H141485   1.429   1.277  13.819 -0.2268 -1.7913 -0.4343
 6690TIP3    H241486   1.418   1.407  13.742  1.6658 -0.5481  1.3274
 6691TIP3   OH241487   3.650   5.133   5.225 -0.0378 -0.2678 -0.5577
 6691TIP3    H141488   3.722   5.078   5.194 -0.1211 -0.3691 -0.5744
 6691TIP3    H241489   3.586   5.131   5.153  0.8064  1.4252 -1.3884
 6692TIP3   OH241490   5.351   3.106  11.067  0.2618  0.4152 -0.1336
 6692TIP3    H141491   5.294   3.104  10.990  0.0022 -0.7411  0.0805
 6692TIP3    H241492   5.433   3.145  11.035 -0.0359  0.4479 -0.8643
 6693TIP3   OH241493   5.933   4.095  10.999 -0.7698  0.5220  0.0954
 6693TIP3    H141494   6.008   4.054  10.955 -0.4535  0.6968  0.4789
 6693TIP3    H241495   5.866   4.101  10.930  0.5346  2.9970 -1.0140
 6694TIP3   OH241496   2.317   1.267   3.058 -0.3976 -0.1336 -0.3434
 6694TIP3    H141497   2.360   1.325   2.995 -1.0382  0.4055 -0.2854
 6694TIP3    H241498   2.270   1.204   3.004 -1.9254  1.0515 -0.4158
 6695TIP3   OH241499   0.879   5.655   6.028 -0.4987 -0.1899 -0.1153
 6695TIP3    H141500   0.892   5.724   5.962 -0.8950  1.1365  1.1801
 6695TIP3    H241501   0.903   5.696   6.111  0.5192 -2.0248  0.5170
 6696TIP3   OH241502   5.764   4.007  16.056 -0.2917  0.0254 -0.1150
 6696TIP3    H141503   5.672   3.981  16.063 -0.2810  0.5224  2.2127
 6696TIP3    H241504   5.802   3.984  16.141  1.7533 -0.2140 -1.0611
 6697TIP3   OH241505   1.573   1.333  16.213  0.2751  0.1619 -0.2213
 6697TIP3    H141506   1.588   1.238  16.218  0.2454  0.1637 -0.1085
 6697TIP3    H241507   1.490   1.341  16.167 -0.2727  0.1040  0.7571
 6698TIP3   OH241508   1.095   2.518   4.066 -0.1099  0.2845  0.2055
 6698TIP3    H141509   1.027   2.470   4.020  0.1953 -1.3506  1.4246
 6698TIP3    H241510   1.140   2.569   3.998 -0.0564 -1.6081 -1.1869
 6699TIP3   OH241511   3.908   4.876   5.652 -0.0993 -0.3626  0.3892
 6699TIP3    H141512   3.871   4.957   5.688 -1.8414 -0.5563 -0.9243
 6699TIP3    H241513   3.860   4.806   5.696 -2.5820 -0.6003 -2.5417
 6700TIP3   OH241514   6.751   6.748  13.810 -0.3116  0.0194  0.1521
 6700TIP3    H141515   6.835   6.791  13.830 -0.4631  0.1049  0.6141
 6700TIP3    H241516   6.696   6.819  13.776 -0.3778  0.0736  0.3733
 6701TIP3   OH241517   5.342   4.791   5.546  0.2487  0.2280  0.3613
 6701TIP3    H141518   5.367   4.833   5.629 -0.3064 -1.5073  1.4377
 6701TIP3    H241519   5.394   4.711   5.544  0.5959  0.4771 -1.2111
 6702TIP3   OH241520   0.144   1.200   0.075  0.9200 -0.3680 -0.7770
 6702TIP3    H141521   0.218   1.261   0.074  1.4110 -0.9461 -0.2741
 6702TIP3    H241522   0.184   1.113   0.066  0.2930 -0.6703 -0.6877
 6703TIP3   OH241523   2.076   1.673   3.885  0.0835  0.2315 -0.4119
 6703TIP3    H141524   2.030   1.682   3.968  0.1025  1.9200 -0.5692
 6703TIP3    H241525   2.027   1.730   3.825  0.6290 -0.2536 -1.3296
 6704TIP3   OH241526   0.772   3.284  16.728 -0.2650 -0.0053  0.0724
 6704TIP3    H141527   0.828   3.232  16.786 -0.6750 -0.0792  0.3998
 6704TIP3    H241528   0.739   3.221  16.664  0.3617  0.1184 -0.3712
 6705TIP3   OH241529   4.068   6.760   2.630  0.2682  0.0296 -0.1525
 6705TIP3    H141530   4.082   6.739   2.537 -1.4308 -1.6140 -0.0584
 6705TIP3    H241531   4.060   6.675   2.673 -1.5967  0.7993  1.0827
 6706TIP3   OH241532   6.179   3.291  12.435 -0.0825 -0.0337  0.1007
 6706TIP3    H141533   6.260   3.240  12.430 -0.0399  0.0461 -0.0195
 6706TIP3    H241534   6.111   3.226  12.452 -0.1756 -0.2528 -1.0998
 6707TIP3   OH241535   1.120   5.360  12.474  0.3775 -0.1242 -0.5817
 6707TIP3    H141536   1.126   5.265  12.463  0.9995 -0.0168 -1.2163
 6707TIP3    H241537   1.114   5.372  12.569  0.1850 -0.8044 -0.5023
 6708TIP3   OH241538   0.314   4.146   5.912  0.3211  0.2189 -0.2267
 6708TIP3    H141539   0.319   4.130   6.007 -1.9666  1.6874  0.2002
 6708TIP3    H241540   0.285   4.063   5.876 -0.7435  0.1806  0.6471
 6709TIP3   OH241541   1.274   1.902  15.487 -0.3355 -0.1391  0.0948
 6709TIP3    H141542   1.258   1.887  15.394 -0.0410 -0.7221  0.1364
 6709TIP3    H241543   1.272   1.997  15.497  1.0145 -0.0075 -0.7582
 6710TIP3   OH241544   3.421   1.908   2.532  0.5645 -0.2391  0.1612
 6710TIP3    H141545   3.444   1.854   2.608 -0.2097 -2.1892 -0.9657
 6710TIP3    H241546   3.482   1.982   2.536  1.2476 -0.8800  2.0686
 6711TIP3   OH241547   3.340   4.305   3.863  0.8554  0.3276 -0.4081
 6711TIP3    H141548   3.291   4.243   3.809  2.5654 -1.5814  0.1196
 6711TIP3    H241549   3.274   4.349   3.916 -0.3176 -2.2792  0.3939
 6712TIP3   OH241550   5.158   6.784  17.150  0.2557  0.2929 -0.6502
 6712TIP3    H141551   5.219   6.854  17.127  1.0057  0.0159  0.4267
 6712TIP3    H241552   5.106   6.820  17.222  0.1675  0.0041 -0.5678
 6713TIP3   OH241553   5.345   5.722   3.232 -0.0460 -0.3502 -0.1024
 6713TIP3    H141554   5.403   5.709   3.307 -0.6607 -1.5526  0.1797
 6713TIP3    H241555   5.300   5.804   3.250  0.6010 -0.0799  0.3154
 6714TIP3   OH241556   0.372   3.316  14.514  0.2599  0.5170  0.2890
 6714TIP3    H141557   0.353   3.264  14.593 -0.1080  2.0580  1.2419
 6714TIP3    H241558   0.286   3.335  14.477  0.3041  1.4520  0.6321
 6715TIP3   OH241559   0.415   5.305  14.082  0.5515 -0.0118  0.3620
 6715TIP3    H141560   0.357   5.228  14.087  0.6108 -0.0643  0.2165
 6715TIP3    H241561   0.493   5.278  14.130  0.4325  0.0801  0.6092
 6716TIP3   OH241562   3.352   0.768  13.145  0.4071 -0.3324 -0.1511
 6716TIP3    H141563   3.257   0.764  13.136  0.3907 -0.2330 -0.0267
 6716TIP3    H241564   3.381   0.824  13.072  0.2255  0.8936  0.7009
 6717TIP3   OH241565   0.687   2.374  14.557 -0.0707  0.1912 -0.0724
 6717TIP3    H141566   0.652   2.329  14.634  0.1729  0.8887  0.4432
 6717TIP3    H241567   0.664   2.316  14.484  1.2862 -1.3566  0.7011
 6718TIP3   OH241568   3.849   3.292  14.002 -0.2446 -0.0135  0.0079
 6718TIP3    H141569   3.787   3.289  13.929 -0.4416  1.3536  0.1143
 6718TIP3    H241570   3.918   3.351  13.972  0.6009 -0.8790  0.2148
 6719TIP3   OH241571   0.428   0.963  12.271  0.0235  0.0111  0.6762
 6719TIP3    H141572   0.441   0.868  12.276  0.0771  0.1081  2.6436
 6719TIP3    H241573   0.426   0.982  12.177 -1.4237 -2.1157  0.2572
 6720TIP3   OH241574   2.886   2.340  12.219 -0.0180  0.0265  0.2309
 6720TIP3    H141575   2.912   2.249  12.207 -0.4863  0.1001 -1.4670
 6720TIP3    H241576   2.844   2.342  12.305 -1.1361 -1.6290 -0.2545
 6721TIP3   OH241577   0.833   3.141  12.692  0.1544  0.1366 -0.1812
 6721TIP3    H141578   0.796   3.200  12.757 -0.3692 -0.4861  0.0914
 6721TIP3    H241579   0.856   3.197  12.618 -0.3284  0.6740  0.0772
 6722TIP3   OH241580   6.342   1.752   4.194 -0.2786  0.1573 -0.2585
 6722TIP3    H141581   6.293   1.704   4.260 -0.9414  0.3235 -0.6280
 6722TIP3    H241582   6.387   1.821   4.243 -2.0545  1.2903 -0.1891
 6723TIP3   OH241583   4.376   2.873   2.773 -0.3812 -0.3947  0.5558
 6723TIP3    H141584   4.354   2.966   2.774  2.5172  0.3371  2.6720
 6723TIP3    H241585   4.430   2.862   2.694 -0.5374 -0.2238  0.4253
 6724TIP3   OH241586   4.539   0.725  17.120  0.5265  0.1243 -0.5064
 6724TIP3    H141587   4.550   0.820  17.120  0.0044  0.1823 -0.7574
 6724TIP3    H241588   4.603   0.694  17.185  0.3968  0.6772 -0.1094
 6725TIP3   OH241589   3.719   0.282   3.355 -0.3568  0.1399  0.1913
 6725TIP3    H141590   3.748   0.192   3.376 -0.4806  0.5344  2.1687
 6725TIP3    H241591   3.793   0.337   3.381 -0.0846  0.5836 -1.4928
 6726TIP3   OH241592   3.239   6.673  13.666 -0.2412  0.6234  0.7909
 6726TIP3    H141593   3.202   6.620  13.595  1.5660  1.6946 -0.9818
 6726TIP3    H241594   3.264   6.608  13.732 -0.5554 -0.5282 -0.1843
 6727TIP3   OH241595   2.430   6.714   2.362 -0.2529 -0.4227  0.3274
 6727TIP3    H141596   2.520   6.683   2.366  0.4611  1.0874 -2.3214
 6727TIP3    H241597   2.394   6.672   2.284 -0.5035  2.1328 -1.0010
 6728TIP3   OH241598   0.654   6.402   2.133  0.0725 -0.0270 -0.0080
 6728TIP3    H141599   0.565   6.429   2.109  1.1789  3.1348 -0.9020
 6728TIP3    H241600   0.674   6.454   2.211  1.1506 -0.6227  0.1207
 6729TIP3   OH241601   6.359   3.661  13.378 -0.3671 -0.6687  0.3042
 6729TIP3    H141602   6.366   3.737  13.320  1.5550 -1.2369 -0.2535
 6729TIP3    H241603   6.440   3.663  13.429 -1.2262 -1.2051  1.7324
 6730TIP3   OH241604   2.343   0.847   4.596  0.2604 -0.1728  0.8550
 6730TIP3    H141605   2.364   0.754   4.602  0.8231 -0.0282  1.2300
 6730TIP3    H241606   2.348   0.868   4.503  1.5788 -0.1960  0.9093
 6731TIP3   OH241607   5.622   2.026   0.597  0.2785  0.2125  0.1156
 6731TIP3    H141608   5.643   1.951   0.654  1.8005  0.5074 -0.0171
 6731TIP3    H241609   5.705   2.074   0.591 -0.4226  1.3353 -0.6515
 6732TIP3   OH241610   2.562   1.543  15.977  0.6174  0.5828  0.4815
 6732TIP3    H141611   2.551   1.559  16.070  0.1172  0.1126  0.5035
 6732TIP3    H241612   2.499   1.474  15.956  0.1133  1.2757 -0.3689
 6733TIP3   OH241613   6.437   6.318  13.604 -0.3390 -0.0206  0.0368
 6733TIP3    H141614   6.366   6.282  13.657 -0.3852  0.3549  0.2305
 6733TIP3    H241615   6.415   6.293  13.514 -1.7619  1.7686 -0.1371
 6734TIP3   OH241616   6.453   5.090   4.908 -0.1595  0.4693 -0.2069
 6734TIP3    H141617   6.546   5.066   4.907 -0.5630 -1.1437 -0.4548
 6734TIP3    H241618   6.412   5.030   4.845 -1.5141  0.5656  0.5705
 6735TIP3   OH241619   4.418   3.206   2.912 -0.1303 -0.0172  0.8654
 6735TIP3    H141620   4.367   3.152   2.852  0.9766 -0.5264  0.3528
 6735TIP3    H241621   4.366   3.210   2.992 -0.8053 -0.8083  0.4750
 6736TIP3   OH241622   5.413   5.979   5.488  0.1540 -0.2226 -0.5389
 6736TIP3    H141623   5.442   5.971   5.579  1.1315  1.6781 -0.6575
 6736TIP3    H241624   5.363   6.060   5.486 -2.4250 -1.7996 -1.0698
 6737TIP3   OH241625   0.980   3.003  14.079 -0.4202  0.1218  1.1982
 6737TIP3    H141626   0.970   2.940  14.007 -0.6021  0.2963  1.0729
 6737TIP3    H241627   0.923   2.970  14.148  0.5671 -0.6495  1.6780
 6738TIP3   OH241628   1.325   6.111   3.274  0.5303  0.6209 -0.3793
 6738TIP3    H141629   1.418   6.104   3.297  0.9667  0.2946 -2.1197
 6738TIP3    H241630   1.291   6.022   3.282  0.6228  0.5530 -0.7043
 6739TIP3   OH241631   3.108   6.163  10.657 -0.0141 -0.8557 -0.4582
 6739TIP3    H141632   3.048   6.092  10.633 -0.8913 -0.5978  0.9521
 6739TIP3    H241633   3.066   6.207  10.731  1.5635 -0.2230  0.0862
 6740TIP3   OH241634   5.913   2.421  12.180  0.6867 -0.5250 -0.2044
 6740TIP3    H141635   5.942   2.399  12.268 -0.8465  1.1905  0.7947
 6740TIP3    H241636   5.954   2.505  12.162 -0.3118 -0.0693 -0.4238
 6741TIP3   OH241637   6.043   5.104  12.881  0.2890  1.1371  0.5310
 6741TIP3    H141638   6.039   5.017  12.922  0.3105  1.2822  0.8425
 6741TIP3    H241639   5.980   5.100  12.809 -0.8511  1.3647  1.5103
 6742TIP3   OH241640   5.013   5.586  15.001 -0.1435 -0.0480  0.2006
 6742TIP3    H141641   5.105   5.566  15.013 -0.3688 -0.6316  0.9739
 6742TIP3    H241642   5.007   5.681  15.017  0.3470  0.0261 -0.0416
 6743TIP3   OH241643   4.335   4.650  12.645 -0.3828 -0.2869 -0.5986
 6743TIP3    H141644   4.259   4.596  12.663 -1.3706  1.0650 -0.6026
 6743TIP3    H241645   4.377   4.663  12.730  0.4986 -1.9590 -0.7586
 6744TIP3   OH241646   0.580   0.039  12.122  0.0120  0.0185  0.0685
 6744TIP3    H141647   0.500   0.063  12.168  0.2912  0.8105  0.1508
 6744TIP3    H241648   0.552   0.015  12.034 -0.3833 -0.3054  0.2809
 6745TIP3   OH241649   3.350   5.139   1.389  0.1763  0.5110  0.1844
 6745TIP3    H141650   3.308   5.189   1.320 -0.5195  1.8887  1.5745
 6745TIP3    H241651   3.377   5.204   1.453 -1.8492 -0.9149  2.6206
 6746TIP3   OH241652   2.408   2.036   6.711 -0.5247 -0.1415 -0.4428
 6746TIP3    H141653   2.493   2.074   6.735 -1.2351  0.5439  1.0775
 6746TIP3    H241654   2.430   1.957   6.662  1.0021 -0.3508  0.5415
 6747TIP3   OH241655   5.513   6.088   1.587  0.3151  0.0800 -0.9641
 6747TIP3    H141656   5.601   6.114   1.611  0.1238  0.0723 -0.2561
 6747TIP3    H241657   5.474   6.167   1.550  0.7200 -0.0035 -1.5844
 6748TIP3   OH241658   3.979   2.187   4.017  0.6552 -0.6362 -0.0793
 6748TIP3    H141659   3.928   2.167   4.096  1.7674 -0.3820  0.7137
 6748TIP3    H241660   3.916   2.178   3.945 -0.1679 -1.7168  0.7513
 6749TIP3   OH241661   1.558   6.627   6.195 -0.2681 -0.1552  0.1110
 6749TIP3    H141662   1.606   6.619   6.113  2.7651  2.4870  1.5184
 6749TIP3    H241663   1.604   6.567   6.255 -0.4996  0.2637  0.7116
 6750TIP3   OH241664   2.822   4.340  15.130 -0.5462  0.1544 -0.0083
 6750TIP3    H141665   2.834   4.435  15.126 -0.2778  0.1970  1.5565
 6750TIP3    H241666   2.728   4.327  15.116 -0.5519  0.6387 -0.4156
 6751TIP3   OH241667   4.865   1.321   4.288 -0.1761 -0.2068  0.3741
 6751TIP3    H141668   4.889   1.250   4.347 -0.0592 -1.0223 -0.6399
 6751TIP3    H241669   4.838   1.277   4.208  0.5992  0.9086 -0.5190
 6752TIP3   OH241670   5.339   1.280   2.184 -0.2026 -0.2094 -0.7123
 6752TIP3    H141671   5.396   1.356   2.169  0.1593 -0.6244 -1.4570
 6752TIP3    H241672   5.372   1.240   2.264  0.9329 -0.7869 -1.4596
 6753TIP3   OH241673   0.884   6.495   3.587 -0.1444 -0.2180  0.2515
 6753TIP3    H141674   0.977   6.495   3.610 -0.2955  0.1034  0.8929
 6753TIP3    H241675   0.840   6.521   3.668 -0.7348  0.4096 -0.2681
 6754TIP3   OH241676   6.518   2.740   1.603  0.3979  0.8431  0.5997
 6754TIP3    H141677   6.567   2.808   1.557  0.3939  2.0195  2.2626
 6754TIP3    H241678   6.437   2.784   1.630 -0.4383 -0.3592  0.0969
 6755TIP3   OH241679   5.139   5.839   4.458 -0.6546 -0.4066  0.0809
 6755TIP3    H141680   5.143   5.917   4.402  0.9971  1.1761  2.3088
 6755TIP3    H241681   5.179   5.770   4.405 -1.5659  0.3863 -1.7030
 6756TIP3   OH241682   4.411   4.351  16.571  0.3530 -0.1451  0.3652
 6756TIP3    H141683   4.449   4.360  16.483  0.3905  0.4246  0.4394
 6756TIP3    H241684   4.379   4.438  16.592  0.8102 -0.1653  1.1422
 6757TIP3   OH241685   5.531   5.208  16.475  0.0108  0.2522  0.0383
 6757TIP3    H141686   5.565   5.121  16.498  2.0019  1.0675  0.2780
 6757TIP3    H241687   5.440   5.207  16.505  0.4390 -1.2538  1.3640
 6758TIP3   OH241688   1.455   5.046   1.216  0.3897 -0.0240 -0.0988
 6758TIP3    H141689   1.530   5.020   1.163  2.1036  2.7449  0.8082
 6758TIP3    H241690   1.459   5.142   1.217 -1.0172  0.0723  2.9447
 6759TIP3   OH241691   1.581   6.698  12.603 -0.2072  0.1866 -0.0646
 6759TIP3    H141692   1.610   6.628  12.661  0.0443  0.4297  0.1072
 6759TIP3    H241693   1.500   6.730  12.641  0.7005  1.3217  0.9842
 6760TIP3   OH241694   1.999   1.742   5.952  0.6028  0.2779  0.5797
 6760TIP3    H141695   1.963   1.653   5.951  2.2876 -0.4223 -0.7792
 6760TIP3    H241696   2.056   1.744   6.028  0.6327  0.1637  0.5605
 6761TIP3   OH241697   1.466   6.217  11.487 -0.3895  0.5260  0.3263
 6761TIP3    H141698   1.399   6.250  11.426 -0.1656  0.4645  0.0444
 6761TIP3    H241699   1.432   6.237  11.574 -1.3182 -0.5598  0.2131
 6762TIP3   OH241700   1.783   4.866   5.694 -0.1645  0.3624  0.2027
 6762TIP3    H141701   1.702   4.867   5.745 -1.2567  2.2830 -1.4795
 6762TIP3    H241702   1.844   4.918   5.746  0.2804 -1.7380  1.8588
 6763TIP3   OH241703   4.737   1.338  15.824 -0.0697 -0.1037 -0.1761
 6763TIP3    H141704   4.751   1.356  15.731 -2.3110  1.0581 -0.3255
 6763TIP3    H241705   4.651   1.298  15.828 -0.2343  0.3776  1.4565
 6764TIP3   OH241706   1.075   3.370   2.534 -0.0073  0.2814 -0.0206
 6764TIP3    H141707   1.110   3.290   2.495 -1.0426  0.2442 -0.8898
 6764TIP3    H241708   1.100   3.364   2.626  0.8812 -0.5079 -0.3006
 6765TIP3   OH241709   0.367   4.837   3.980  0.1722 -0.0476  0.2931
 6765TIP3    H141710   0.428   4.782   4.030 -0.8793  1.2590  3.1310
 6765TIP3    H241711   0.400   4.926   3.991 -1.6353  0.5514  0.9836
 6766TIP3   OH241712   3.986   0.977   0.659  0.1679 -0.1113  0.1155
 6766TIP3    H141713   3.950   0.890   0.644 -0.4550  0.3005 -0.8291
 6766TIP3    H241714   3.910   1.031   0.681  0.5938  0.1192  1.0311
 6767TIP3   OH241715   0.981   4.508   2.912  0.2098  0.8041 -0.3223
 6767TIP3    H141716   0.992   4.567   2.837  0.5147 -1.1170 -1.8386
 6767TIP3    H241717   0.951   4.425   2.873  0.0486 -0.1342  1.7185
 6768TIP3   OH241718   1.717   0.263  13.862 -0.0695  0.0498  0.0342
 6768TIP3    H141719   1.653   0.227  13.800 -1.3440 -0.5516  1.6643
 6768TIP3    H241720   1.797   0.214  13.845 -0.3798 -0.0550 -1.1780
 6769TIP3   OH241721   1.819   0.881   3.705 -0.0965  0.2599 -0.0167
 6769TIP3    H141722   1.814   0.915   3.795  0.2860 -2.5506  1.1273
 6769TIP3    H241723   1.789   0.954   3.650  0.3739  2.2903  2.3143
 6770TIP3   OH241724   0.757   5.168  11.843  0.0953 -0.5120  0.0011
 6770TIP3    H141725   0.779   5.193  11.932 -1.0550 -0.1743  0.2028
 6770TIP3    H241726   0.666   5.136  11.849  0.3764 -1.5165 -0.8475
 6771TIP3   OH241727   4.925   4.210  16.243 -0.1583 -0.6073 -0.0206
 6771TIP3    H141728   4.977   4.255  16.176  0.2093 -1.6669 -0.4510
 6771TIP3    H241729   4.860   4.159  16.193  0.5113 -1.8894  0.3956
 6772TIP3   OH241730   1.996   5.576   0.559  0.2543 -0.1729  0.4163
 6772TIP3    H141731   2.027   5.499   0.512  1.8341  0.1141  0.9873
 6772TIP3    H241732   1.993   5.550   0.651 -1.1614 -0.1781  0.3871
 6773TIP3   OH241733   4.157   3.525   2.119 -0.1300 -0.7639 -0.1924
 6773TIP3    H141734   4.223   3.580   2.161  0.0923 -0.0581 -1.4739
 6773TIP3    H241735   4.085   3.585   2.100  1.6543  0.0279 -5.1946
 6774TIP3   OH241736   5.647   3.321  13.461 -0.1637 -0.0050 -0.0157
 6774TIP3    H141737   5.633   3.415  13.475  0.5944 -0.0893  1.3786
 6774TIP3    H241738   5.592   3.300  13.386 -0.1519  1.6100 -0.5050
 6775TIP3   OH241739   1.437   3.632   4.413 -0.0878 -0.0210  0.2903
 6775TIP3    H141740   1.463   3.689   4.340 -2.0436  0.8579  0.2526
 6775TIP3    H241741   1.520   3.602   4.450  0.9796  1.8397 -0.5005
 6776TIP3   OH241742   1.583   3.492  11.145 -0.8035  0.0712  0.7749
 6776TIP3    H141743   1.523   3.458  11.079  2.2712  0.9520 -2.6378
 6776TIP3    H241744   1.575   3.587  11.138  1.8044  0.2501 -0.6658
 6777TIP3   OH241745   4.686   6.071   6.240  0.8239  0.2069 -0.3453
 6777TIP3    H141746   4.621   6.022   6.291  0.8933 -0.3886 -0.8192
 6777TIP3    H241747   4.644   6.156   6.224 -0.7906 -0.9264 -2.5101
 6778TIP3   OH241748   5.578   4.479   0.061  0.9174 -1.3649 -0.0085
 6778TIP3    H141749   5.496   4.515   0.093  0.6092 -1.5910 -0.5215
 6778TIP3    H241750   5.635   4.555   0.046  0.6903 -1.1855  0.0475
 6779TIP3   OH241751   5.374   3.518  13.364 -0.4070 -0.2382 -0.1037
 6779TIP3    H141752   5.288   3.559  13.375  0.1319  1.1231 -0.9010
 6779TIP3    H241753   5.357   3.440  13.310 -0.8938  0.9402 -1.6819
 6780TIP3   OH241754   5.915   0.140  11.668  0.8821  0.1796 -0.0514
 6780TIP3    H141755   5.846   0.119  11.730  1.9181  0.3230  1.1618
 6780TIP3    H241756   5.946   0.055  11.636  1.7014  0.0257  1.1301
 6781TIP3   OH241757   5.508   4.800   0.878  0.3387 -0.3342 -0.2736
 6781TIP3    H141758   5.505   4.706   0.862 -0.4742 -0.2629 -0.5440
 6781TIP3    H241759   5.418   4.824   0.902  0.3246  0.5469 -1.1906
 6782TIP3   OH241760   0.232   6.712   1.679 -0.1596 -0.0159 -0.4626
 6782TIP3    H141761   0.308   6.661   1.702 -0.1767 -0.6285 -1.7054
 6782TIP3    H241762   0.241   6.794   1.728  0.3129 -0.8507  0.8413
 6783TIP3   OH241763   4.862   1.280   0.214  0.3606  0.2969 -0.2693
 6783TIP3    H141764   4.784   1.328   0.184  0.3222  1.1985  1.1955
 6783TIP3    H241765   4.904   1.251   0.133 -0.6882  1.1091 -1.1406
 6784TIP3   OH241766   5.277   4.570   4.617 -0.3394 -0.5255 -0.0455
 6784TIP3    H141767   5.282   4.662   4.641 -0.6558  0.1129 -2.3439
 6784TIP3    H241768   5.222   4.530   4.684  1.2753  0.5725  1.9955
 6785TIP3   OH241769   0.174   6.546   3.097 -0.3910 -0.1725  0.3057
 6785TIP3    H141770   0.161   6.488   3.172 -0.9829  2.8931  2.6603
 6785TIP3    H241771   0.086   6.575   3.073  0.0848  1.7890  0.8426
 6786TIP3   OH241772   5.039   2.509   4.215  0.3934 -0.2733 -0.0014
 6786TIP3    H141773   5.031   2.419   4.182 -2.4258  0.4049 -1.3480
 6786TIP3    H241774   5.109   2.547   4.162  1.5456 -1.6346  0.5128
 6787TIP3   OH241775   5.875   2.223   3.418 -0.7160 -0.3735  0.0930
 6787TIP3    H141776   5.813   2.289   3.448  0.5845  0.4363  1.0705
 6787TIP3    H241777   5.931   2.206   3.495  0.8743 -0.3680 -1.0442
 6788TIP3   OH241778   0.110   6.107   1.708  0.0704  0.4888 -0.3306
 6788TIP3    H141779   0.039   6.105   1.643 -0.9530  0.8208  0.7563
 6788TIP3    H241780   0.122   6.200   1.728  0.1336  0.3595  0.2289
 6789TIP3   OH241781   0.148   4.984  13.547 -0.5468  0.3048  0.3432
 6789TIP3    H141782   0.179   4.945  13.465 -0.1709 -1.5173  1.3247
 6789TIP3    H241783   0.146   4.911  13.609 -1.6170  1.4965  1.7441
 6790TIP3   OH241784   3.050   0.183   0.148 -0.5565 -0.2873 -0.0131
 6790TIP3    H141785   3.051   0.222   0.061  0.1533  0.8708  0.5049
 6790TIP3    H241786   2.987   0.235   0.197 -1.2160 -1.1549  0.0819
 6791TIP3   OH241787   6.093   1.915   0.227  0.2894 -0.5435 -0.3933
 6791TIP3    H141788   6.110   1.885   0.137  0.2453  0.1027 -0.6185
 6791TIP3    H241789   6.166   1.975   0.246  0.3590 -0.7609  0.0442
 6792TIP3   OH241790   0.960   6.646   5.101 -0.8107 -0.1727 -0.5745
 6792TIP3    H141791   0.936   6.574   5.043 -0.7233 -0.5054 -0.2010
 6792TIP3    H241792   0.931   6.618   5.188  1.2304 -0.7648 -0.0360
 6793TIP3   OH241793   5.993   4.023   3.647 -0.2374 -0.0898 -0.1527
 6793TIP3    H141794   6.067   4.020   3.586  1.3733 -2.5682  1.8247
 6793TIP3    H241795   5.950   3.938   3.637 -1.8351  0.6732 -0.0196
 6794TIP3   OH241796   2.023   2.315   2.716 -0.8981  0.0587 -0.0096
 6794TIP3    H141797   2.044   2.301   2.808  0.4005  0.7664 -0.1813
 6794TIP3    H241798   1.957   2.384   2.716 -0.8783  0.0780  0.3856
 6795TIP3   OH241799   2.120   6.684   0.513  0.2487 -0.3548  0.3541
 6795TIP3    H141800   2.164   6.705   0.430 -0.2271 -0.7894 -0.0079
 6795TIP3    H241801   2.027   6.699   0.496  0.2547  0.7019  1.1631
 6796TIP3   OH241802   6.635   2.395   3.935  0.1160 -0.0797 -0.2444
 6796TIP3    H141803   6.650   2.432   4.022 -0.5208  1.7295 -0.8697
 6796TIP3    H241804   6.688   2.315   3.933 -0.1431 -0.3300  1.9148
 6797TIP3   OH241805   2.384   1.842   2.487  0.2584  0.8820 -0.2954
 6797TIP3    H141806   2.465   1.817   2.531  0.9711  0.7376 -1.6760
 6797TIP3    H241807   2.369   1.933   2.513  0.6743  0.8031  0.2230
 6798TIP3   OH241808   2.551   5.906   6.255  0.0080 -0.0969  0.8256
 6798TIP3    H141809   2.474   5.962   6.265 -1.6453 -2.0511 -0.7160
 6798TIP3    H241810   2.536   5.833   6.315  1.7661  0.6164  2.1935
 6799TIP3   OH241811   1.850   0.493  13.780  0.0686  0.5461  0.5212
 6799TIP3    H141812   1.833   0.407  13.818 -0.8221  0.9052  0.9475
 6799TIP3    H241813   1.805   0.491  13.695 -0.8197  0.9590  0.9843
 6800TIP3   OH241814   0.739   2.935   2.782  0.0414 -0.5131 -0.3496
 6800TIP3    H141815   0.788   2.874   2.838 -1.3634 -0.7719  0.6497
 6800TIP3    H241816   0.802   2.965   2.718  1.7704 -0.0757  1.4928
 6801TIP3   OH241817   0.944   4.678   2.678  0.1849  0.0746 -0.2593
 6801TIP3    H141818   0.891   4.682   2.599  0.1936  1.9416 -0.2014
 6801TIP3    H241819   1.029   4.712   2.652  0.3678  0.1395  0.4086
 6802TIP3   OH241820   4.455   5.269  15.436 -0.3426 -0.6866 -0.4431
 6802TIP3    H141821   4.411   5.333  15.380  0.8933  0.1509 -0.4918
 6802TIP3    H241822   4.447   5.304  15.524  0.0273 -0.6347 -0.4278
 6803TIP3   OH241823   5.584   6.210  13.866 -0.6441  0.0961  0.3054
 6803TIP3    H141824   5.556   6.236  13.954 -1.3559  0.4565 -0.0280
 6803TIP3    H241825   5.504   6.185  13.821  0.1348 -4.2571  1.0867
 6804TIP3   OH241826   6.159   2.535   1.062 -0.0585  0.2003 -0.5542
 6804TIP3    H141827   6.127   2.483   0.989  1.0652 -1.1552 -0.1050
 6804TIP3    H241828   6.253   2.541   1.048  0.0240  0.8246  0.2168
 6805TIP3   OH241829   5.228   0.226  15.011  0.7387 -0.4080 -0.1934
 6805TIP3    H141830   5.192   0.273  15.086 -1.8136 -0.1151 -1.5254
 6805TIP3    H241831   5.243   0.137  15.043 -2.9966 -1.0644 -0.0011
 6806TIP3   OH241832   6.465   0.058   2.939 -0.6683 -0.4702 -0.4930
 6806TIP3    H141833   6.465   0.141   2.891  1.7059 -0.0076  0.2481
 6806TIP3    H241834   6.428   0.080   3.025  1.0806  0.0930  0.1251
 6807TIP3   OH241835   5.828   4.025  12.389 -0.4210  0.0326  0.3556
 6807TIP3    H141836   5.747   4.070  12.366  0.1090 -0.6594 -3.0421
 6807TIP3    H241837   5.897   4.088  12.372  0.0408 -0.7271 -0.6003
 6808TIP3   OH241838   0.668   0.686   5.878  0.2491  0.1361 -0.6688
 6808TIP3    H141839   0.753   0.698   5.835  0.3604 -0.0049 -0.4875
 6808TIP3    H241840   0.664   0.755   5.943 -0.8027  1.6431 -2.2827
 6809TIP3   OH241841   0.700   4.207  15.108 -0.3455 -0.0284  0.1692
 6809TIP3    H141842   0.640   4.281  15.103  2.9387  2.7733 -0.0121
 6809TIP3    H241843   0.663   4.150  15.175 -2.0001  2.7391  1.6899
 6810TIP3   OH241844   1.976   6.729   3.183  0.0226  0.4543  0.7673
 6810TIP3    H141845   2.042   6.791   3.213 -1.2121  2.1033  0.1923
 6810TIP3    H241846   1.954   6.759   3.095 -0.3131 -1.0537  0.3264
 6811TIP3   OH241847   3.376   0.389   0.983 -0.1652  0.2934  0.0608
 6811TIP3    H141848   3.464   0.412   1.011 -0.9022  1.1813  1.7076
 6811TIP3    H241849   3.379   0.294   0.971  0.8059  0.2176  0.8601
 6812TIP3   OH241850   0.731   0.574  11.336 -0.3340  0.0236 -0.3325
 6812TIP3    H141851   0.642   0.551  11.360 -0.4867 -0.5293 -1.3709
 6812TIP3    H241852   0.783   0.555  11.414 -0.8048 -1.6698 -0.4043
 6813TIP3   OH241853   4.843   4.732   3.082  0.4915 -0.2585 -0.6385
 6813TIP3    H141854   4.869   4.727   2.990  1.5017 -0.0195 -0.3718
 6813TIP3    H241855   4.786   4.809   3.087  2.1876  1.0138 -0.6558
 6814TIP3   OH241856   0.727   6.630  14.535 -0.5770 -0.7565 -0.3922
 6814TIP3    H141857   0.823   6.627  14.535 -0.5397 -0.2388 -2.5648
 6814TIP3    H241858   0.706   6.721  14.513 -1.5868 -0.9795 -0.3914
 6815TIP3   OH241859   2.892   0.532  17.110  0.2291 -0.1321  0.3294
 6815TIP3    H141860   2.859   0.470  17.045  0.4745  0.4782 -0.3830
 6815TIP3    H241861   2.987   0.530  17.098  0.5021 -1.8345  2.3206
 6816TIP3   OH241862   5.276   0.480   0.717  0.1723  0.4028 -0.3686
 6816TIP3    H141863   5.312   0.568   0.709 -0.1095  0.6133  0.5777
 6816TIP3    H241864   5.199   0.480   0.660 -1.1878  1.5265  1.4006
 6817TIP3   OH241865   0.295   0.447   3.745  0.1314 -0.2325 -0.7033
 6817TIP3    H141866   0.223   0.446   3.807 -1.3095 -2.1266 -2.3449
 6817TIP3    H241867   0.256   0.480   3.664  1.4821  0.2566 -1.1651
 6818TIP3   OH241868   6.032   1.780   4.256 -0.2061 -0.2239  0.0824
 6818TIP3    H141869   6.095   1.852   4.267 -0.1902  0.0507 -1.5533
 6818TIP3    H241870   5.956   1.821   4.215 -0.3696 -1.0426 -0.4546
 6819TIP3   OH241871   4.437   2.629  14.867 -0.6262 -0.0137 -0.1833
 6819TIP3    H141872   4.468   2.657  14.953 -0.0230  0.2523 -0.4817
 6819TIP3    H241873   4.342   2.624  14.876 -0.7795  2.3996 -0.1733
 6820TIP3   OH241874   0.266   6.662  11.511  0.2833  0.1407 -0.2805
 6820TIP3    H141875   0.275   6.567  11.507  0.8486  0.1998 -0.5154
 6820TIP3    H241876   0.293   6.692  11.424  1.8129  0.6331  0.3333
 6821TIP3   OH241877   2.016   0.029  11.269  0.3513 -0.3825 -0.8019
 6821TIP3    H141878   2.031   0.063  11.180  0.4620  0.7154 -0.3774
 6821TIP3    H241879   1.947  -0.036  11.258  1.6428 -1.5811 -1.9617
 6822TIP3   OH241880   2.335   0.923   3.867  0.1870 -0.2924  0.2902
 6822TIP3    H141881   2.251   0.966   3.845  0.0425 -0.5307  0.3776
 6822TIP3    H241882   2.398   0.965   3.809 -0.1000 -0.5385 -0.2033
 6823TIP3   OH241883   3.193   4.431  17.183 -0.0146 -0.1993 -0.0791
 6823TIP3    H141884   3.230   4.360  17.234 -0.8490  0.3547  1.3143
 6823TIP3    H241885   3.131   4.389  17.123 -1.1289 -0.5665  1.3164
 6824TIP3   OH241886   0.192   2.042  16.816 -0.1797  0.6153  0.1852
 6824TIP3    H141887   0.137   2.078  16.885  0.7337  1.9807  0.2073
 6824TIP3    H241888   0.279   2.036  16.855  0.2734  1.1140 -0.7364
 6825TIP3   OH241889   3.217   6.055  13.350 -0.2932  0.2386 -0.4116
 6825TIP3    H141890   3.283   5.985  13.346  1.5904  1.9932 -0.6839
 6825TIP3    H241891   3.202   6.080  13.259  0.6407  1.6582 -0.1804
 6826TIP3   OH241892   0.628   4.325   5.572 -0.0034  0.2974  0.0385
 6826TIP3    H141893   0.661   4.392   5.632 -0.1770 -0.9652  1.5859
 6826TIP3    H241894   0.658   4.353   5.486  1.3397  1.4894  0.8645
 6827TIP3   OH241895   0.911   5.858  16.280  0.3838  0.1380  0.0053
 6827TIP3    H141896   0.992   5.855  16.332 -0.0167 -0.2901  0.6182
 6827TIP3    H241897   0.867   5.774  16.299 -0.9986  1.0533  1.0011
 6828TIP3   OH241898   0.349   0.695  10.709 -0.0869 -0.5447 -0.4096
 6828TIP3    H141899   0.338   0.601  10.721 -2.1979 -0.4813 -1.6630
 6828TIP3    H241900   0.278   0.734  10.760  1.6305  0.4524  1.2684
 6829TIP3   OH241901   3.956   5.047  16.099  0.1147 -0.5053 -0.6454
 6829TIP3    H141902   4.052   5.051  16.095  0.0655  0.2440 -1.0479
 6829TIP3    H241903   3.937   4.953  16.094  0.8415 -0.6880 -0.1863
 6830TIP3   OH241904   2.434   4.349   6.736  0.3154 -0.0534  0.3952
 6830TIP3    H141905   2.513   4.364   6.684  0.3387  2.5277  1.0900
 6830TIP3    H241906   2.378   4.424   6.716 -2.2704 -2.1987 -0.5990
 6831TIP3   OH241907   3.995   5.054   1.378  0.6056  0.6202  0.0481
 6831TIP3    H141908   4.019   5.043   1.470 -1.9081  0.9290  0.7697
 6831TIP3    H241909   4.035   5.138   1.353  3.0479 -0.4550  0.2290
 6832TIP3   OH241910   2.612   0.307  17.085  0.2003  0.1440 -0.3148
 6832TIP3    H141911   2.666   0.314  17.006  0.1129  0.9120 -0.3125
 6832TIP3    H241912   2.675   0.299  17.157  0.3577  2.2424 -0.1851
 6833TIP3   OH241913   1.563   4.581  12.668 -0.3293 -0.8139 -0.0853
 6833TIP3    H141914   1.475   4.544  12.665 -1.3656  1.5064  0.2045
 6833TIP3    H241915   1.582   4.593  12.761  0.4254 -1.5803 -0.1320
 6834TIP3   OH241916   3.520   2.706   2.415 -0.0266 -0.4565 -0.6967
 6834TIP3    H141917   3.427   2.684   2.419 -0.2075  0.4825  0.4721
 6834TIP3    H241918   3.561   2.629   2.375 -1.1504 -1.3136 -0.2279
 6835TIP3   OH241919   0.217   5.000  11.954 -0.1281  0.2198 -0.2859
 6835TIP3    H141920   0.222   5.076  12.012 -0.9165  2.5219 -3.1128
 6835TIP3    H241921   0.125   4.995  11.929 -0.2073 -2.1223  0.4006
 6836TIP3   OH241922   2.884   4.092  13.938 -0.5733 -0.2039  0.0215
 6836TIP3    H141923   2.871   4.110  14.031 -2.8939 -2.3716  0.1680
 6836TIP3    H241924   2.942   4.017  13.936  1.2582  1.1975 -0.3604
 6837TIP3   OH241925   3.402   5.425   1.419 -0.3944  0.0096  0.1751
 6837TIP3    H141926   3.358   5.391   1.341 -1.2415 -1.1664  1.1645
 6837TIP3    H241927   3.332   5.448   1.479  0.2894 -0.7575  1.2888
 6838TIP3   OH241928   1.854   4.343   4.810 -0.0870 -1.0041 -0.9842
 6838TIP3    H141929   1.780   4.389   4.850  0.1866  0.3941 -2.0602
 6838TIP3    H241930   1.813   4.278   4.753 -0.5205  0.5092 -2.4408
 6839TIP3   OH241931   5.208   5.579   2.057  0.3859 -0.0648 -0.1210
 6839TIP3    H141932   5.175   5.496   2.024  0.0923  0.4463 -1.1180
 6839TIP3    H241933   5.300   5.563   2.077  0.8589 -0.0753 -2.2486
 6840TIP3   OH241934   5.245   2.835  17.062 -0.2816  0.5205 -0.6311
 6840TIP3    H141935   5.191   2.764  17.095  0.4543  0.3495  0.2378
 6840TIP3    H241936   5.335   2.808  17.081 -0.0146  1.9142  0.2111
 6841TIP3   OH241937   2.290   6.195   5.622  0.1419  0.1276 -0.5117
 6841TIP3    H141938   2.328   6.281   5.637  0.1794 -0.2511  1.9092
 6841TIP3    H241939   2.238   6.178   5.701  0.6602 -2.3071 -0.6478
 6842TIP3   OH241940   0.690   2.393  15.985 -0.6348 -0.3781 -0.2239
 6842TIP3    H141941   0.630   2.429  15.919  0.5065 -0.6045 -1.3915
 6842TIP3    H241942   0.755   2.345  15.935 -0.1880 -1.2068  1.1278
 6843TIP3   OH241943   3.163   0.050  16.596 -0.4992  0.5020 -0.1084
 6843TIP3    H141944   3.187   0.126  16.544 -0.3011 -0.2858 -1.1768
 6843TIP3    H241945   3.079   0.021  16.562  0.3114 -0.8933 -0.9969
 6844TIP3   OH241946   3.490   6.633   1.033 -0.4314 -0.5532 -0.1864
 6844TIP3    H141947   3.442   6.652   1.114 -1.8293  1.0358 -1.3379
 6844TIP3    H241948   3.422   6.611   0.969  0.5572 -0.6103 -1.2379
 6845TIP3   OH241949   2.332   1.232  17.027 -0.5159 -0.0233  0.4290
 6845TIP3    H141950   2.288   1.153  16.995  0.0925  0.0745 -0.6636
 6845TIP3    H241951   2.420   1.203  17.049 -0.8681 -0.0483  1.8812
 6846TIP3   OH241952   5.681   5.648  13.664  0.6870  0.2485  0.1465
 6846TIP3    H141953   5.653   5.568  13.620  1.0980  0.0921  0.1767
 6846TIP3    H241954   5.776   5.647  13.659  0.7320  0.2807  0.9643
 6847TIP3   OH241955   5.834   2.794   2.726  0.5288  0.1415  0.1230
 6847TIP3    H141956   5.904   2.786   2.661  0.4168  0.4189 -0.0325
 6847TIP3    H241957   5.767   2.732   2.696  0.2881  0.5915 -0.2709
 6848TIP3   OH241958   4.007   5.208  15.290  0.0402 -0.0639  0.4310
 6848TIP3    H141959   4.025   5.158  15.210  2.5806  2.3496 -0.6107
 6848TIP3    H241960   4.022   5.145  15.361 -0.1514 -1.6736 -0.9113
 6849TIP3   OH241961   4.421   0.714  12.773 -0.0061 -0.0855  0.0248
 6849TIP3    H141962   4.414   0.619  12.782  2.4428 -0.2853  0.3726
 6849TIP3    H241963   4.395   0.748  12.859 -3.9081 -0.1876 -1.0243
 6850TIP3   OH241964   6.356   2.455  16.601 -0.9750  0.4119 -0.0484
 6850TIP3    H141965   6.421   2.398  16.560  1.4140  3.3358 -0.5809
 6850TIP3    H241966   6.275   2.440  16.551  0.3793 -0.3235 -2.0838
 6851TIP3   OH241967   2.621   2.813  16.547  0.4745 -0.2470 -0.1831
 6851TIP3    H141968   2.550   2.845  16.491  0.1457  1.1642  1.0211
 6851TIP3    H241969   2.585   2.814  16.635  1.4746 -1.0431  0.2481
 6852TIP3   OH241970   0.607   0.863   0.029  0.2299 -0.2930 -0.0613
 6852TIP3    H141971   0.539   0.795   0.023  0.5876 -0.6781  0.2350
 6852TIP3    H241972   0.668   0.842  -0.042  1.1741 -1.2049  1.0154
 6853TIP3   OH241973   0.362   1.106  15.064  0.5738 -0.1448  0.1099
 6853TIP3    H141974   0.430   1.169  15.041  1.2962 -0.4164  1.4572
 6853TIP3    H241975   0.407   1.041  15.117 -1.2102  1.0681  3.2637
 6854TIP3   OH241976   3.899   3.935  13.060 -0.2125  0.0506 -0.2339
 6854TIP3    H141977   3.974   3.886  13.028  0.2731 -0.3618  1.4713
 6854TIP3    H241978   3.936   3.998  13.122 -0.9274  1.9883 -1.7204
 6855TIP3   OH241979   4.969   6.535  11.154  0.5317  0.2221 -0.5742
 6855TIP3    H141980   4.903   6.487  11.204  0.5697  1.3305  0.5677
 6855TIP3    H241981   4.920   6.602  11.107  0.7391  0.4800 -0.4257
 6856TIP3   OH241982   4.735   2.910   3.740  0.2735 -0.1983 -0.1025
 6856TIP3    H141983   4.736   2.892   3.834  1.2295 -1.9722 -0.4339
 6856TIP3    H241984   4.712   2.827   3.700 -1.7695  0.9453 -1.3898
 6857TIP3   OH241985   2.824   5.063   4.768 -0.3859 -0.1685  0.4699
 6857TIP3    H141986   2.836   5.032   4.679 -1.7092 -0.2382  0.3084
 6857TIP3    H241987   2.864   5.150   4.769  2.6618 -1.5126  0.7238
 6858TIP3   OH241988   6.467   2.941   5.407 -0.6199 -0.6574 -0.4878
 6858TIP3    H141989   6.385   2.914   5.447 -1.1900 -0.6342 -1.6245
 6858TIP3    H241990   6.533   2.926   5.475 -1.3215 -2.2310 -0.1286
 6859TIP3   OH241991   6.344   0.424  11.183  0.2520 -0.0553  0.4972
 6859TIP3    H141992   6.420   0.434  11.241  1.1408  0.2463 -0.7017
 6859TIP3    H241993   6.283   0.370  11.233  1.2851 -0.3574  1.4521
 6860TIP3   OH241994   6.260   6.655  14.242 -0.1983  0.1188 -0.4601
 6860TIP3    H141995   6.330   6.604  14.202 -0.4819 -0.2444 -0.5044
 6860TIP3    H241996   6.180   6.607  14.218 -0.3158 -0.5308  1.2120
 6861TIP3   OH241997   2.917   4.461   5.539  0.2920 -0.1865  0.4488
 6861TIP3    H141998   2.955   4.426   5.619  0.0674  0.9623  1.0801
 6861TIP3    H241999   2.865   4.389   5.503  0.0474 -0.5809  1.5730
 6862TIP3   OH242000   1.122   5.451  15.902  0.1334 -0.2485 -0.2300
 6862TIP3    H142001   1.151   5.428  15.814 -0.2088  2.1787 -1.0053
 6862TIP3    H242002   1.199   5.434  15.957  1.2300  0.7909 -1.4172
 6863TIP3   OH242003   6.080   1.366  16.268 -0.3735  0.2185 -0.1489
 6863TIP3    H142004   6.050   1.311  16.340  1.8995 -0.1688  0.5480
 6863TIP3    H242005   6.043   1.453  16.286 -1.6358 -0.3939  0.2644
 6864TIP3   OH242006   4.478   6.297  14.848  0.1659 -0.6113 -0.4319
 6864TIP3    H142007   4.401   6.250  14.881 -0.2491 -0.2747 -0.9172
 6864TIP3    H242008   4.466   6.386  14.880  0.6139 -0.6762 -0.0817
 6865TIP3   OH242009   0.810   4.568  16.585  0.2259 -0.3071 -0.0530
 6865TIP3    H142010   0.784   4.659  16.600 -1.7232 -0.6578 -1.1488
 6865TIP3    H242011   0.883   4.574  16.524 -0.0153  0.5289 -0.2653
 6866TIP3   OH242012   3.386   4.797  16.090 -0.7650  0.6311 -0.3503
 6866TIP3    H142013   3.295   4.810  16.116 -0.5296 -0.3249  0.9823
 6866TIP3    H242014   3.437   4.844  16.156 -0.1350 -2.4910  1.5086
 6867TIP3   OH242015   4.765   3.457   3.071 -0.0131 -0.1089  0.5506
 6867TIP3    H142016   4.825   3.482   3.001 -1.3391  1.6044  0.0039
 6867TIP3    H242017   4.771   3.361   3.074  4.2166  0.0958  1.8738
 6868TIP3   OH242018   1.120   6.511  12.373 -0.0011 -0.1390 -0.1356
 6868TIP3    H142019   1.122   6.518  12.468 -0.0061  2.8393 -0.3070
 6868TIP3    H242020   1.057   6.577  12.345  1.2551  0.2099 -2.2787
 6869TIP3   OH242021   2.397   1.869  15.142  0.6044  0.2305 -0.0690
 6869TIP3    H142022   2.407   1.780  15.177  0.3859 -0.2280 -1.1602
 6869TIP3    H242023   2.306   1.892  15.163  0.4242 -0.1057 -0.4688
 6870TIP3   OH242024   5.692   1.880   3.410  0.7378  0.1966 -0.5368
 6870TIP3    H142025   5.694   1.959   3.463 -2.4352 -0.0617  0.0408
 6870TIP3    H242026   5.748   1.818   3.457 -1.1992  0.3047  1.9637
 6871TIP3   OH242027   3.938   2.306   4.486 -0.2031 -0.2940  0.3812
 6871TIP3    H142028   3.980   2.387   4.456 -1.9569  1.2889  2.0395
 6871TIP3    H242029   4.007   2.259   4.533  0.2020  1.4228  1.5462
 6872TIP3   OH242030   0.208   6.773   4.314 -0.2219 -0.0454  1.1806
 6872TIP3    H142031   0.213   6.713   4.388  2.6566 -0.2804  0.8537
 6872TIP3    H242032   0.275   6.839   4.332  0.4960 -0.0897 -1.1719
 6873TIP3   OH242033   0.435   6.778  11.868 -0.3301 -0.1665  0.0696
 6873TIP3    H142034   0.394   6.725  11.800 -2.7676 -0.9793  2.0864
 6873TIP3    H242035   0.362   6.818  11.916  1.4085  3.7111 -0.3196
 6874TIP3   OH242036   3.959   6.072   3.072 -0.3010  0.5049 -0.4638
 6874TIP3    H142037   4.033   6.132   3.061  0.2071 -0.5754 -3.1623
 6874TIP3    H242038   3.988   6.010   3.139  0.6729  0.9536 -0.4662
 6875TIP3   OH242039   5.864   2.007  13.849  0.6606  0.2237  0.4494
 6875TIP3    H142040   5.824   2.063  13.782  1.1204  0.4609  0.3734
 6875TIP3    H242041   5.835   2.044  13.932 -0.7660 -0.6949  0.3710
 6876TIP3   OH242042   1.217   5.960  14.398  0.0100  0.1977  0.1325
 6876TIP3    H142043   1.177   6.042  14.430 -0.7921 -0.5251  1.0215
 6876TIP3    H242044   1.253   5.983  14.312 -0.2534  1.4742  0.3486
 6877TIP3   OH242045   5.394   0.664  14.604  0.3124 -0.2562  0.6018
 6877TIP3    H142046   5.404   0.706  14.519  1.9678 -1.7085  0.0315
 6877TIP3    H242047   5.318   0.607  14.593  0.1666  0.0010  0.2674
 6878TIP3   OH242048   0.969   4.295   0.902 -0.0873 -0.4424  0.2873
 6878TIP3    H142049   1.052   4.249   0.892  0.2369  0.1039  0.4216
 6878TIP3    H242050   0.940   4.311   0.812  0.4329  0.2146  0.2335
 6879TIP3   OH242051   3.850   4.278  13.150 -0.0580  0.3691  0.6942
 6879TIP3    H142052   3.823   4.300  13.061  0.8007  1.0618  0.6071
 6879TIP3    H242053   3.900   4.354  13.180  0.6950 -0.3629  1.3215
 6880TIP3   OH242054   6.512   2.022   1.136 -0.5604 -0.1195 -0.1886
 6880TIP3    H142055   6.597   2.009   1.095 -0.4789  0.0796 -0.0878
 6880TIP3    H242056   6.512   2.115   1.162 -0.9822 -0.0060 -0.5841
 6881TIP3   OH242057   6.571   5.467   5.125  0.0278  0.2887  0.2296
 6881TIP3    H142058   6.640   5.400   5.127 -0.3780 -0.1299  0.1138
 6881TIP3    H242059   6.619   5.549   5.118  0.4863 -0.0837 -1.2196
 6882TIP3   OH242060   3.973   0.897  15.578  0.2206  0.4391  0.5479
 6882TIP3    H142061   4.064   0.921  15.593  0.4162 -0.2261  0.4309
 6882TIP3    H242062   3.968   0.874  15.486  0.0439 -0.0015  0.6643
 6883TIP3   OH242063   0.633   4.857   1.626 -0.4810  0.0580  0.1088
 6883TIP3    H142064   0.706   4.809   1.587 -1.0718  0.7806 -1.9285
 6883TIP3    H242065   0.635   4.832   1.718  1.3871 -1.1306 -0.2232
 6884TIP3   OH242066   6.345   6.569  12.921 -0.4123 -0.3232  0.2069
 6884TIP3    H142067   6.400   6.549  12.997 -0.1038  0.4766  0.1946
 6884TIP3    H242068   6.389   6.642  12.878 -0.8237 -0.4882 -0.5004
 6885TIP3   OH242069   6.071   0.040   2.933 -0.2473  0.2086  0.0956
 6885TIP3    H142070   6.049  -0.034   2.876  0.9215 -0.5879  0.6768
 6885TIP3    H242071   6.130   0.094   2.881  2.8249 -1.7836  1.3619
 6886TIP3   OH242072   1.249   3.138  15.776  0.5396 -0.4170  0.3037
 6886TIP3    H142073   1.221   3.071  15.714 -0.0287 -0.5076  0.6532
 6886TIP3    H242074   1.265   3.090  15.858  1.5547 -0.3417  0.1601
 6887TIP3   OH242075   0.237   2.099   0.013 -0.0620 -0.1840 -0.1509
 6887TIP3    H142076   0.218   2.104  -0.080 -0.3100 -1.6836 -0.1889
 6887TIP3    H242077   0.206   2.012   0.040  1.9867 -0.6463  0.8639
 6888TIP3   OH242078   1.108   6.574  13.121 -0.1946  0.4567 -0.4461
 6888TIP3    H142079   1.013   6.584  13.128 -0.2153  0.9624 -1.3325
 6888TIP3    H242080   1.120   6.504  13.057  0.0403  1.1072 -1.1140
 6889TIP3   OH242081   6.588   5.088  14.960 -0.0503 -0.1213 -0.4888
 6889TIP3    H142082   6.597   5.084  15.055 -0.3165  4.5015 -0.1655
 6889TIP3    H242083   6.500   5.056  14.942  0.0692 -1.1965  0.7962
 6890TIP3   OH242084   6.529   4.065   6.041 -0.1243  0.5428 -0.0440
 6890TIP3    H142085   6.608   4.119   6.046  0.8021 -0.6225 -1.7537
 6890TIP3    H242086   6.515   4.036   6.131  2.2091 -0.3744  0.0620
 6891TIP3   OH242087   2.018   3.921  11.159  0.0397  0.6274 -0.6733
 6891TIP3    H142088   1.931   3.946  11.126 -2.0133 -0.3332  3.6388
 6891TIP3    H242089   2.039   3.840  11.113 -1.6753  0.4944 -1.2615
 6892TIP3   OH242090   2.002   4.855   2.862  0.3916 -0.4738  0.1954
 6892TIP3    H142091   2.031   4.764   2.876  1.4875 -0.4908 -1.9862
 6892TIP3    H242092   1.983   4.860   2.768 -2.3283  0.8301  0.7412
 6893TIP3   OH242093   6.718   6.516   4.384  1.1049 -0.5172 -0.0755
 6893TIP3    H142094   6.630   6.553   4.390  0.7578 -0.8105 -2.9639
 6893TIP3    H242095   6.758   6.537   4.469 -1.0837  1.2405  0.5734
 6894TIP3   OH242096   6.539   5.909  12.133  0.4107  0.1129  0.1445
 6894TIP3    H142097   6.489   5.829  12.114 -1.1263  1.0870 -0.0596
 6894TIP3    H242098   6.627   5.891  12.101 -0.2740 -0.9990 -1.2013
 6895TIP3   OH242099   6.779   1.801  15.783  0.4599 -0.2234  0.6549
 6895TIP3    H142100   6.854   1.757  15.743 -1.2446 -1.7182 -0.9671
 6895TIP3    H242101   6.786   1.779  15.876  1.0668 -1.8399  0.2543
 6896TIP3   OH242102   6.323   2.844   1.752  0.1520 -0.2926 -0.0235
 6896TIP3    H142103   6.273   2.925   1.752  0.4817 -0.0735  1.5578
 6896TIP3    H242104   6.310   2.808   1.840 -0.1983 -2.0762 -0.7789
 6897TIP3   OH242105   5.089   2.878  13.890  0.0582  0.1126  0.2164
 6897TIP3    H142106   5.087   2.865  13.985 -0.1736  0.0470  0.2021
 6897TIP3    H242107   5.182   2.886  13.869  0.0734  0.8709  0.5503
 6898TIP3   OH242108   3.231   3.388   5.817 -0.3685 -0.1955  0.6452
 6898TIP3    H142109   3.150   3.414   5.774 -0.5835 -0.0765  1.1112
 6898TIP3    H242110   3.202   3.327   5.886 -0.0361 -0.3582  0.6421
 6899TIP3   OH242111   5.442   1.527  12.213  0.3439  0.4734  0.5305
 6899TIP3    H142112   5.369   1.589  12.205 -0.2393 -0.5000 -2.3395
 6899TIP3    H242113   5.420   1.475  12.290 -0.2477  2.3770  1.7016
 6900TIP3   OH242114   1.661   4.233   1.360  0.7153 -0.2731  0.0822
 6900TIP3    H142115   1.616   4.149   1.349  0.8169 -0.4803  1.1954
 6900TIP3    H242116   1.696   4.252   1.273  0.8443 -1.4665 -0.1463
 6901TIP3   OH242117   6.438   2.192  11.975 -0.6552 -0.2853  0.6743
 6901TIP3    H142118   6.366   2.252  11.992 -1.4318 -0.9922 -0.0567
 6901TIP3    H242119   6.459   2.203  11.883  1.4994  1.3218  1.3056
 6902TIP3   OH242120   0.258   0.364  12.175 -0.2735 -0.0170 -0.0650
 6902TIP3    H142121   0.197   0.392  12.106 -1.3063  1.8574  1.5333
 6902TIP3    H242122   0.340   0.409  12.155  0.1195 -1.2849 -1.3339
 6903TIP3   OH242123   5.001   6.760  14.153  0.0394 -0.3528 -0.2719
 6903TIP3    H142124   4.961   6.818  14.217  0.0687 -2.5847  1.8583
 6903TIP3    H242125   5.095   6.775  14.161  0.0497 -0.7314  0.3283
 6904TIP3   OH242126   0.583   1.583  17.124  0.2314  0.0358 -0.0969
 6904TIP3    H142127   0.560   1.598  17.216  0.4183 -1.2652  0.1676
 6904TIP3    H242128   0.559   1.492  17.108  1.1235 -0.0388 -1.0666
 6905TIP3   OH242129   5.992   1.015  14.734  0.2235 -0.0234 -0.3976
 6905TIP3    H142130   6.042   1.070  14.674 -0.2273 -0.9040 -1.6085
 6905TIP3    H242131   5.967   1.074  14.806  0.9766  0.9884 -0.9521
 6906TIP3   OH242132   1.724   3.175  11.508  0.0905 -0.5628 -0.0452
 6906TIP3    H142133   1.705   3.086  11.540 -1.0457 -0.8528 -1.4562
 6906TIP3    H242134   1.682   3.178  11.422 -3.1066  2.5878  1.5177
 6907TIP3   OH242135   0.994   4.016  15.365  0.3804 -0.3574  0.1753
 6907TIP3    H142136   1.065   3.992  15.306 -1.8190  0.0610 -2.7043
 6907TIP3    H242137   0.964   3.933  15.402  0.5843 -0.8184 -0.6840
 6908TIP3   OH242138   3.665   0.525  16.896 -0.2655  0.5168  0.3870
 6908TIP3    H142139   3.755   0.557  16.892 -0.2149  0.2430 -0.9595
 6908TIP3    H242140   3.612   0.594  16.857 -0.5364  0.3239  0.4072
 6909TIP3   OH242141   6.511   3.717   2.040 -0.2574  0.0484  0.3894
 6909TIP3    H142142   6.432   3.753   2.000 -1.2689 -1.2597  1.1718
 6909TIP3    H242143   6.543   3.652   1.977  0.7776  1.2813 -0.3830
 6910TIP3   OH242144   4.257   4.203   0.334 -0.2306 -0.4036 -0.2377
 6910TIP3    H142145   4.322   4.170   0.272  1.9320  0.0352  1.7043
 6910TIP3    H242146   4.242   4.131   0.395 -1.1119 -0.2869 -0.3040
 6911TIP3   OH242147   4.460   6.491  16.633  0.0614 -0.5779  0.3079
 6911TIP3    H142148   4.512   6.567  16.608 -0.9674 -0.0011 -0.1175
 6911TIP3    H242149   4.523   6.431  16.673  0.7427  0.8327  1.4193
 6912TIP3   OH242150   3.971   2.026   2.455  0.1769 -0.4520  0.3274
 6912TIP3    H142151   4.000   2.104   2.406 -0.5236 -0.5841 -0.3074
 6912TIP3    H242152   3.890   1.999   2.412 -0.6341 -0.3851  1.7828
 6913TIP3   OH242153   2.885   2.304   4.425 -0.1377 -0.1205 -0.1135
 6913TIP3    H142154   2.814   2.259   4.470  0.6339  0.4352  1.6683
 6913TIP3    H242155   2.842   2.375   4.377 -1.1138 -1.5381 -1.3630
 6914TIP3   OH242156   4.251   0.153   0.759 -0.0214 -0.3603 -0.1762
 6914TIP3    H142157   4.253   0.157   0.664 -0.2711 -2.1275 -0.2782
 6914TIP3    H242158   4.188   0.083   0.779 -0.2795  0.2632  1.2926
 6915TIP3   OH242159   6.704   2.594  11.299  0.3671 -0.0355 -0.0030
 6915TIP3    H142160   6.783   2.544  11.278  1.0911  0.2069  2.0150
 6915TIP3    H242161   6.700   2.662  11.232  4.0429  2.3299  2.0231
 6916TIP3   OH242162   5.902   6.638   1.022 -0.0965 -0.1549  0.0677
 6916TIP3    H142163   5.813   6.665   1.042  1.0387  1.5040  3.1640
 6916TIP3    H242164   5.916   6.667   0.931 -2.6213 -0.3230 -0.4102
 6917TIP3   OH242165   6.012   0.390   4.725  0.4486  0.1635  0.2425
 6917TIP3    H142166   5.977   0.470   4.763 -1.1086 -0.4159  0.0862
 6917TIP3    H242167   5.934   0.340   4.699  1.4188 -0.8393 -0.8071
 6918TIP3   OH242168   1.697   4.032   4.915 -0.0695  0.0556  0.4989
 6918TIP3    H142169   1.681   3.959   4.976  1.1744  0.7584  1.6970
 6918TIP3    H242170   1.667   4.110   4.963  0.5712  0.5699  0.0667
 6919TIP3   OH242171   3.478   2.008  10.980  0.6241  0.6434  0.0308
 6919TIP3    H142172   3.526   2.040  10.904  0.2514 -1.6622 -1.2234
 6919TIP3    H242173   3.389   1.992  10.947  0.4465 -0.3244  0.9540
 6920TIP3   OH242174   5.618   0.426   3.543  0.8092 -0.3571 -0.5267
 6920TIP3    H142175   5.586   0.445   3.631 -1.2249  1.4739 -1.5958
 6920TIP3    H242176   5.703   0.471   3.538  1.3527 -1.2127  0.7642
 6921TIP3   OH242177   3.003   2.176  12.766 -0.3008  0.3922 -0.0712
 6921TIP3    H142178   3.047   2.175  12.681 -1.8618  2.5482 -0.9482
 6921TIP3    H242179   3.054   2.236  12.820  1.3821 -1.8800  0.9585
 6922TIP3   OH242180   0.339   4.194   0.610  0.1157 -0.2370  0.3128
 6922TIP3    H142181   0.291   4.132   0.555 -0.5749  1.5420 -1.1269
 6922TIP3    H242182   0.290   4.275   0.603  1.6206  0.7854  1.3122
 6923TIP3   OH242183   1.047   6.672  12.075 -0.1237  0.2988  0.1233
 6923TIP3    H142184   0.981   6.604  12.088  1.8216 -1.5219  0.8303
 6923TIP3    H242185   1.074   6.660  11.984  0.5267 -0.1904  0.3742
 6924TIP3   OH242186   5.772   3.515   2.924  0.5094 -0.1652 -0.1474
 6924TIP3    H142187   5.774   3.503   2.829  0.1477  1.1399 -0.3296
 6924TIP3    H242188   5.857   3.554   2.945 -0.0166  1.0015 -0.1515
 6925TIP3   OH242189   3.004   5.411   5.581 -0.1152  0.0052 -0.0787
 6925TIP3    H142190   2.966   5.329   5.613  0.2520 -0.0174  0.3090
 6925TIP3    H242191   3.098   5.394   5.578  0.0478  0.6819  0.8237
 6926TIP3   OH242192   3.926   4.680   0.008  0.0078  0.3458  0.4366
 6926TIP3    H142193   3.936   4.713   0.098  2.5625 -0.8190  0.6234
 6926TIP3    H242194   4.016   4.663  -0.021 -1.0303 -3.3063 -0.8238
 6927TIP3   OH242195   1.338   2.925  13.939 -0.5903  0.1856 -0.0820
 6927TIP3    H142196   1.284   2.853  13.909 -0.9090 -0.5497  2.1293
 6927TIP3    H242197   1.308   2.942  14.029  1.4156  1.1422  0.4513
 6928TIP3   OH242198   6.496   5.741  15.851  0.0329  0.1608  0.3758
 6928TIP3    H142199   6.559   5.769  15.784  0.9794 -0.7452  0.8840
 6928TIP3    H242200   6.431   5.812  15.853  0.1152  0.3145 -1.3363
 6929TIP3   OH242201   2.221   2.175  16.628 -0.4630 -0.1891 -0.0501
 6929TIP3    H142202   2.208   2.085  16.598 -1.1058 -0.3421  0.6708
 6929TIP3    H242203   2.269   2.218  16.557  0.3988 -1.2710 -0.1226
 6930TIP3   OH242204   1.978   3.631  15.629 -0.0394  0.5192  0.0641
 6930TIP3    H142205   1.963   3.673  15.714  2.2860  0.8554  0.3425
 6930TIP3    H242206   1.989   3.704  15.568  4.4780  0.4853  0.6309
 6931TIP3   OH242207   0.130   6.330  12.669 -0.2189  0.2181 -0.8614
 6931TIP3    H142208   0.058   6.267  12.667  0.3821 -0.5108 -0.0037
 6931TIP3    H242209   0.176   6.317  12.586  1.1289 -1.9516  0.1852
 6932TIP3   OH242210   3.553   2.917  13.201  0.1123  0.6215  0.4104
 6932TIP3    H142211   3.545   2.876  13.115  0.6687 -1.5381  1.3538
 6932TIP3    H242212   3.463   2.941  13.224 -0.2768 -0.3604 -0.0296
 6933TIP3   OH242213   0.777   1.881   4.479 -0.1625  0.4742 -0.1536
 6933TIP3    H142214   0.684   1.905   4.478 -0.1789  0.4181 -1.3634
 6933TIP3    H242215   0.817   1.939   4.414  0.7753  0.9627  0.8543
 6934TIP3   OH242216   5.228   3.991   3.994 -0.4405 -0.1182  0.1927
 6934TIP3    H142217   5.190   3.907   3.967 -0.0123 -0.0217 -0.7378
 6934TIP3    H242218   5.225   4.044   3.915  1.6820 -0.1245  0.0857
 6935TIP3   OH242219   5.101   5.121   0.342 -0.0049  0.4199  0.1799
 6935TIP3    H142220   5.095   5.112   0.247 -0.4901  0.4388  0.2085
 6935TIP3    H242221   5.108   5.031   0.374 -1.7856  0.2910  0.2539
 6936TIP3   OH242222   3.375   3.569  16.560  0.0426 -0.3107  0.1028
 6936TIP3    H142223   3.384   3.520  16.642  0.2044  0.1636  0.3732
 6936TIP3    H242224   3.438   3.529  16.500  1.4121  0.6583  0.8580
 6937TIP3   OH242225   1.217   3.998  13.652  0.3970  0.1765  0.1861
 6937TIP3    H142226   1.295   3.973  13.603  0.2965 -0.7137  0.4797
 6937TIP3    H242227   1.157   3.924  13.643 -0.1136  0.5305  0.6080
 6938TIP3   OH242228   1.334   2.713   0.946  0.1939 -0.3868  0.6148
 6938TIP3    H142229   1.349   2.646   1.012  1.7100 -0.8789 -0.2070
 6938TIP3    H242230   1.418   2.758   0.937  0.3200 -0.9981 -1.6932
 6939TIP3   OH242231   6.615   5.806   4.204  0.1271 -0.5854 -0.6370
 6939TIP3    H142232   6.686   5.756   4.243 -0.2284 -0.8373 -0.3095
 6939TIP3    H242233   6.657   5.857   4.134  0.6198 -0.7521 -0.4640
 6940TIP3   OH242234   6.753   3.788   2.178 -0.3931 -0.1968 -0.7156
 6940TIP3    H142235   6.736   3.823   2.265  0.2714 -0.8240 -0.3295
 6940TIP3    H242236   6.666   3.765   2.144 -0.8050  1.4894 -0.8429
 6941TIP3   OH242237   1.853   6.781   4.468  0.1727 -0.3029  0.6018
 6941TIP3    H142238   1.947   6.781   4.450  0.4220 -0.0414  1.8907
 6941TIP3    H242239   1.836   6.865   4.509 -0.8309  0.0998 -0.6007
 6942TIP3   OH242240   1.749   6.339   4.309 -0.3308  0.5924  0.3078
 6942TIP3    H142241   1.733   6.412   4.369 -3.3026 -2.0873  2.9611
 6942TIP3    H242242   1.680   6.346   4.243 -0.4689  0.3349  0.4240
 6943TIP3   OH242243   5.936   0.813  10.544 -0.3948  0.1690  0.1543
 6943TIP3    H142244   6.015   0.792  10.594 -0.5312 -4.0371 -1.2639
 6943TIP3    H242245   5.871   0.751  10.575 -1.8217  0.5986 -1.9088
 6944TIP3   OH242246   4.662   0.332  15.151 -0.2974 -0.3552 -0.5449
 6944TIP3    H142247   4.750   0.295  15.159  0.4470  1.8308  2.5205
 6944TIP3    H242248   4.660   0.370  15.063  1.2770 -1.7621 -1.2146
 6945TIP3   OH242249   5.494   4.979   2.208 -0.0317 -0.1575 -0.2271
 6945TIP3    H142250   5.541   5.004   2.288  0.0853  1.0183 -0.6523
 6945TIP3    H242251   5.559   4.934   2.155 -0.3475 -1.7686  0.7217
 6946TIP3   OH242252   2.815   0.855  13.619  0.1625 -0.6035 -0.1984
 6946TIP3    H142253   2.760   0.856  13.541  0.7714 -0.8259 -0.6324
 6946TIP3    H242254   2.894   0.808  13.593  1.4258  1.4289 -0.1774
 6947TIP3   OH242255   4.585   1.673  16.034  0.4081  0.5112 -0.3221
 6947TIP3    H142256   4.565   1.587  16.071  0.7788  0.5142 -0.1080
 6947TIP3    H242257   4.579   1.661  15.939  0.9991  0.1103 -0.3101
 6948TIP3   OH242258   6.086   2.370  12.384  0.1526  0.1158  0.3834
 6948TIP3    H142259   6.167   2.322  12.401  0.5101  0.7583  0.5184
 6948TIP3    H242260   6.087   2.442  12.448 -1.0804 -0.5310  1.1567
 6949TIP3   OH242261   3.452   5.777   1.018  0.0637 -0.2464 -0.4737
 6949TIP3    H142262   3.469   5.852   1.074 -1.6230 -0.5309  0.4663
 6949TIP3    H242263   3.443   5.703   1.078  1.6468 -1.2210 -1.3807
 6950TIP3   OH242264   0.841   3.983   0.476  0.2758 -0.0338  0.2541
 6950TIP3    H142265   0.754   3.950   0.501  0.4573  0.6462  1.8589
 6950TIP3    H242266   0.830   4.015   0.386 -0.9013 -0.7881  0.1182
 6951TIP3   OH242267   2.257   5.231   0.191  0.2413 -0.3122  0.6094
 6951TIP3    H142268   2.281   5.143   0.161  0.5001 -0.5643  1.5556
 6951TIP3    H242269   2.217   5.272   0.114  0.1687 -1.2352  0.1484
 6952TIP3   OH242270   4.904   5.133  17.128  0.0682 -0.0822  0.1481
 6952TIP3    H142271   4.965   5.153  17.058 -1.0965  0.5076 -0.7160
 6952TIP3    H242272   4.841   5.073  17.089  0.1318 -0.7542  1.0508
 6953TIP3   OH242273   6.440   3.677  14.612 -0.4292  0.1228  0.3925
 6953TIP3    H142274   6.380   3.726  14.668 -2.1283 -1.6891  0.2101
 6953TIP3    H242275   6.500   3.633  14.672 -0.5335  0.3233  0.6427
 6954TIP3   OH242276   2.080   1.772  15.798 -0.0651  0.4236  0.2932
 6954TIP3    H142277   2.095   1.855  15.755 -0.1492  1.1220  1.5840
 6954TIP3    H242278   2.160   1.756  15.849 -0.0683 -0.2572  0.0975
 6955TIP3   OH242279   0.585   5.814   5.712 -0.3523 -0.4652  0.0755
 6955TIP3    H142280   0.580   5.888   5.651 -1.7074 -0.3321  0.3433
 6955TIP3    H242281   0.497   5.777   5.712 -0.4452 -0.3059  2.1486
 6956TIP3   OH242282   1.345   4.259  10.599 -0.2837  0.2367 -0.4223
 6956TIP3    H142283   1.284   4.267  10.673  1.3037 -2.1431  1.2182
 6956TIP3    H242284   1.316   4.182  10.552  0.3386  0.1784 -0.7143
 6957TIP3   OH242285   3.278   1.282  15.207 -0.6845 -0.3020 -0.0010
 6957TIP3    H142286   3.332   1.323  15.274  1.0888 -0.0525 -1.5491
 6957TIP3    H242287   3.340   1.245  15.145 -2.2471  1.5957 -2.8354
 6958TIP3   OH242288   6.091   6.481   5.881 -0.6130 -0.3667  0.0498
 6958TIP3    H142289   6.184   6.459   5.888 -0.6027 -0.5445 -0.6246
 6958TIP3    H242290   6.089   6.576   5.879 -0.6424 -0.2626  2.8035
 6959TIP3   OH242291   5.244   2.369   4.748 -0.2524  0.3126 -0.2821
 6959TIP3    H142292   5.196   2.354   4.667 -0.1502 -1.4767 -0.0193
 6959TIP3    H242293   5.182   2.415   4.804  0.1512  2.9658 -1.8636
 6960TIP3   OH242294   4.578   6.172   4.500  0.0450  0.1536  0.0208
 6960TIP3    H142295   4.537   6.204   4.581 -0.9278 -0.5262 -0.1925
 6960TIP3    H242296   4.616   6.088   4.524  0.1426  0.1590 -0.1182
 6961TIP3   OH242297   2.012   6.436   4.215  1.1742  0.4705  0.9071
 6961TIP3    H142298   1.996   6.529   4.199  2.6139  0.3993 -1.1600
 6961TIP3    H242299   1.925   6.399   4.232  0.2121  1.6858 -1.1673
 6962TIP3   OH242300   3.940   3.633   6.299  0.3081 -0.3485  0.2294
 6962TIP3    H142301   3.876   3.565   6.320 -1.7642  1.4096 -0.1145
 6962TIP3    H242302   4.021   3.586   6.280 -1.5615 -2.8352 -1.9376
 6963TIP3   OH242303   3.097   1.505   0.851 -0.2998  0.8666  0.3330
 6963TIP3    H142304   3.098   1.411   0.833 -0.6183  0.7315  1.0065
 6963TIP3    H242305   3.018   1.537   0.807  0.8340  1.1629 -1.5494
 6964TIP3   OH242306   6.614   1.071   3.891  0.1136 -0.5666 -0.3899
 6964TIP3    H142307   6.567   0.991   3.867  0.8345 -1.6104  1.5297
 6964TIP3    H242308   6.704   1.054   3.863  0.3358 -0.5741  0.3219
 6965TIP3   OH242309   2.444   2.988   3.627  0.1325  0.1687  0.5745
 6965TIP3    H142310   2.503   3.055   3.660 -0.0645  1.1495 -1.0130
 6965TIP3    H242311   2.500   2.910   3.617  0.6223  0.4235  1.3126
 6966TIP3   OH242312   3.307   3.392   2.921 -0.3856 -0.8195  0.1536
 6966TIP3    H142313   3.391   3.347   2.936 -0.6757 -1.4872 -0.1734
 6966TIP3    H242314   3.332   3.478   2.887  0.1731 -1.1631 -0.3341
 6967TIP3   OH242315   3.424   5.508  17.095 -1.1520 -0.0423  0.3334
 6967TIP3    H142316   3.515   5.491  17.073 -1.6926 -0.8095 -1.4330
 6967TIP3    H242317   3.419   5.603  17.108 -0.4017  0.1842 -1.0087
 6968TIP3   OH242318   0.659   5.347   1.277 -0.3798 -0.4377 -0.3953
 6968TIP3    H142319   0.690   5.260   1.300  1.2695  0.1323 -0.3773
 6968TIP3    H242320   0.566   5.336   1.257 -0.1826 -2.1800 -0.3577
 6969TIP3   OH242321   4.036   5.776   2.692 -0.0244 -0.5227  0.7902
 6969TIP3    H142322   4.003   5.688   2.709  2.2571 -2.1001 -2.4319
 6969TIP3    H242323   4.128   5.773   2.717  0.4421  0.4744 -0.7164
 6970TIP3   OH242324   3.353   2.910  12.236  0.1121 -0.0660  0.1984
 6970TIP3    H142325   3.350   2.951  12.149  0.1775 -0.4120  0.0314
 6970TIP3    H242326   3.365   2.816  12.218  0.4624 -0.0980  0.5899
 6971TIP3   OH242327   2.870   5.497  14.968 -0.0292 -0.1488 -0.2684
 6971TIP3    H142328   2.776   5.504  14.984 -0.1411  1.4477 -1.5280
 6971TIP3    H242329   2.893   5.577  14.921  1.8768 -0.7430 -0.4085
 6972TIP3   OH242330   0.856   1.480  12.207  0.2781  1.1068 -0.4578
 6972TIP3    H142331   0.845   1.528  12.125  2.1399  3.4743  0.6305
 6972TIP3    H242332   0.950   1.477  12.221  0.3640 -3.7739 -0.9228
 6973TIP3   OH242333   0.075   6.188   4.612 -0.1454 -0.6093  0.7421
 6973TIP3    H142334   0.151   6.208   4.557 -0.1050 -0.4548  0.8546
 6973TIP3    H242335   0.019   6.133   4.556 -0.3594 -0.0068  0.3612
 6974TIP3   OH242336   5.316   4.217   4.386  0.0638  0.4353  0.5022
 6974TIP3    H142337   5.293   4.306   4.358  1.0948  0.2268 -1.0876
 6974TIP3    H242338   5.281   4.210   4.474  2.4981  3.4580  1.8170
 6975TIP3   OH242339   1.384   6.160   3.670 -0.3361  0.0623  0.0309
 6975TIP3    H142340   1.330   6.173   3.592 -0.4978  1.2979  0.3414
 6975TIP3    H242341   1.327   6.185   3.743  0.4833  0.9249  0.3923
 6976TIP3   OH242342   5.489   0.011   3.321  0.5152  0.2119  0.1708
 6976TIP3    H142343   5.434   0.073   3.273  0.9384 -0.2349 -0.9067
 6976TIP3    H242344   5.481  -0.071   3.272  1.3625 -0.1193  0.5742
 6977TIP3   OH242345   1.457   5.932   0.342  0.4098  0.3430 -0.0251
 6977TIP3    H142346   1.497   5.854   0.304  2.6590  2.0439 -1.2552
 6977TIP3    H242347   1.503   5.944   0.425 -0.1024  0.2271  0.2760
 6978TIP3   OH242348   5.384   1.134   0.227 -0.4767  0.1718  0.3539
 6978TIP3    H142349   5.359   1.209   0.173 -1.0946  0.6075  1.2367
 6978TIP3    H242350   5.316   1.128   0.294  0.3655 -0.2535  1.1889
 6979TIP3   OH242351   5.493   6.716  13.685 -0.0048 -0.3475  0.3246
 6979TIP3    H142352   5.415   6.739  13.735  0.6720  0.6862  0.9013
 6979TIP3    H242353   5.492   6.620  13.683 -2.0323 -0.3564 -0.8536
 6980TIP3   OH242354   3.591   4.559   0.299 -0.2617 -0.1743  0.2343
 6980TIP3    H142355   3.609   4.483   0.243 -0.4483 -1.2704  1.6474
 6980TIP3    H242356   3.497   4.555   0.316 -0.0041 -0.5202  1.5934
 6981TIP3   OH242357   1.895   1.879  15.575  0.0572  0.3005 -0.0892
 6981TIP3    H142358   1.930   1.806  15.524 -1.2366  1.3777 -2.6155
 6981TIP3    H242359   1.874   1.841  15.660  3.5710 -1.2246  0.1624
 6982TIP3   OH242360   3.267   5.296   1.189 -0.2739  0.0425  0.0039
 6982TIP3    H142361   3.177   5.312   1.161 -0.2459  1.3762  0.6461
 6982TIP3    H242362   3.317   5.292   1.107 -0.8782 -0.4985 -0.3465
 6983TIP3   OH242363   1.432   0.746  15.338  0.2853 -0.7725 -0.2786
 6983TIP3    H142364   1.360   0.810  15.341 -1.5355 -2.8211  1.1710
 6983TIP3    H242365   1.424   0.705  15.252  1.2366  0.6779 -1.0702
 6984TIP3   OH242366   5.757   4.212  10.806  0.4026  0.1509  0.2062
 6984TIP3    H142367   5.723   4.301  10.819  1.3987  1.2001 -3.6129
 6984TIP3    H242368   5.683   4.163  10.769 -0.0523 -0.5575  2.0137
 6985TIP3   OH242369   1.317   0.501  15.996 -0.0833  0.6132  0.0914
 6985TIP3    H142370   1.264   0.421  15.999 -0.3869  0.7796 -0.6372
 6985TIP3    H242371   1.335   0.514  15.903  1.3108  0.5232  0.3375
 6986TIP3   OH242372   4.466   0.350   1.516  0.1189  0.0536  0.4764
 6986TIP3    H142373   4.409   0.320   1.445  0.0833  0.2782  0.4118
 6986TIP3    H242374   4.409   0.401   1.573 -0.2440 -1.5314  1.5732
 6987TIP3   OH242375   2.287   2.578  13.209  0.4393  0.5933  0.2652
 6987TIP3    H142376   2.211   2.520  13.202 -0.4484  1.6838  0.7208
 6987TIP3    H242377   2.342   2.536  13.275 -1.4682  1.6053  2.5966
 6988TIP3   OH242378   3.549   2.482   0.214  0.1427 -0.5372  0.5782
 6988TIP3    H142379   3.458   2.462   0.234 -0.0532 -1.2654 -0.9799
 6988TIP3    H242380   3.546   2.537   0.136  0.9497  1.3653  1.8463
 6989TIP3   OH242381   2.212   1.680  12.988  0.5294 -0.2555  0.1171
 6989TIP3    H142382   2.151   1.683  12.914  1.2606  0.9248 -0.4608
 6989TIP3    H242383   2.297   1.662  12.948  1.4590  3.3084  0.2638
 6990TIP3   OH242384   5.115   3.824  12.244  0.3545 -0.4235 -0.1807
 6990TIP3    H142385   5.092   3.832  12.336  1.4556 -0.5009  0.1062
 6990TIP3    H242386   5.033   3.842  12.197 -0.3095 -0.8127  0.8150
 6991TIP3   OH242387   0.630   4.470   2.108  0.7197  0.0621 -0.6129
 6991TIP3    H142388   0.554   4.517   2.075  0.9588  0.7666 -0.1688
 6991TIP3    H242389   0.607   4.378   2.100 -0.4700  0.2772  0.1776
 6992TIP3   OH242390   1.957   5.178   2.809 -0.4836 -0.6684  0.1633
 6992TIP3    H142391   1.888   5.120   2.839 -0.6210 -0.5341  0.1118
 6992TIP3    H242392   2.031   5.120   2.790 -0.4286 -0.7583  0.6687
 6993TIP3   OH242393   6.538   3.497   1.862 -0.0887  0.0547 -0.1477
 6993TIP3    H142394   6.556   3.448   1.782 -0.0983 -1.9136  1.0204
 6993TIP3    H242395   6.443   3.495   1.871 -0.0297 -0.5410  0.3958
 6994TIP3   OH242396   0.991   3.184   1.418  0.2547 -0.3761 -0.2295
 6994TIP3    H142397   0.971   3.179   1.325  0.4792 -0.0878 -0.2929
 6994TIP3    H242398   0.950   3.106   1.456 -0.1082 -0.3258 -0.5186
 6995TIP3   OH242399   5.801   5.858  13.908  0.4101 -0.2662 -0.1472
 6995TIP3    H142400   5.866   5.855  13.839  1.7981 -0.9809  1.1664
 6995TIP3    H242401   5.820   5.781  13.963  0.0441  0.8978  1.6606
 6996TIP3   OH242402   6.402   1.282   5.601 -0.2297  0.1182 -0.4098
 6996TIP3    H142403   6.447   1.288   5.685  2.5464  2.3766 -1.9531
 6996TIP3    H242404   6.473   1.276   5.536 -2.2385  0.5379 -2.7289
 6997TIP3   OH242405   1.589   2.141  16.340  0.3587  0.5823 -0.0564
 6997TIP3    H142406   1.669   2.157  16.389  0.2121 -1.5505  0.9081
 6997TIP3    H242407   1.519   2.145  16.405 -0.0830  0.0624 -0.4939
 6998TIP3   OH242408   5.305   4.674   1.190  0.0445  0.3328 -0.3926
 6998TIP3    H142409   5.231   4.614   1.185 -1.0888  1.5229  1.6001
 6998TIP3    H242410   5.381   4.618   1.203 -1.1865 -0.6183  3.0763
 6999TIP3   OH242411   4.024   0.758   4.179 -0.7458 -0.2985  0.1641
 6999TIP3    H142412   3.954   0.731   4.120  0.2979 -2.7223  0.0114
 6999TIP3    H242413   4.079   0.681   4.189  2.3266  1.7578 -0.2516
 7000TIP3   OH242414   3.109   3.889  13.566 -0.2954  0.1676  0.2408
 7000TIP3    H142415   3.128   3.916  13.476  0.5346 -1.1083  0.0243
 7000TIP3    H242416   3.195   3.877  13.606 -0.6270 -1.6533  0.4685
 7001TIP3   OH242417   5.946   5.227   4.423 -0.0536  0.3018  0.1859
 7001TIP3    H142418   5.972   5.319   4.422 -0.0961  0.4212  3.9513
 7001TIP3    H242419   5.851   5.228   4.425 -0.0424  0.2818  2.0308
 7002TIP3   OH242420   0.177   0.912  16.775  0.3076  0.4771  0.0318
 7002TIP3    H142421   0.096   0.951  16.806  0.7415  0.4606  1.1839
 7002TIP3    H242422   0.156   0.881  16.687 -1.6229 -1.6849  1.1963
 7003TIP3   OH242423   1.346   3.831   2.012 -0.0804  0.0281  0.9264
 7003TIP3    H142424   1.272   3.863   2.063 -0.5047  2.1877 -0.9461
 7003TIP3    H242425   1.421   3.839   2.071 -0.8570  0.6892  1.8353
 7004TIP3   OH242426   3.361   2.688  15.493 -0.5719  0.3538 -0.6665
 7004TIP3    H142427   3.419   2.614  15.476 -1.9731 -0.6569 -1.2231
 7004TIP3    H242428   3.350   2.688  15.588 -1.0679 -0.5640 -0.7172
 7005TIP3   OH242429   4.899   1.456   1.881  0.5074 -0.5092 -0.5862
 7005TIP3    H142430   4.875   1.364   1.886 -0.6929 -0.0953  1.8747
 7005TIP3    H242431   4.818   1.500   1.855  0.2908  0.1656  1.1868
 7006TIP3   OH242432   6.752   0.170  12.342 -0.2230  0.2183 -0.1940
 7006TIP3    H142433   6.735   0.120  12.262  1.4251 -0.3112 -0.2330
 7006TIP3    H242434   6.847   0.183  12.342 -0.0304 -0.9432  2.3610
 7007TIP3   OH242435   0.784   0.507   0.438  0.6591 -0.2349 -0.5998
 7007TIP3    H142436   0.857   0.453   0.467  0.6160 -0.0380 -0.1131
 7007TIP3    H242437   0.729   0.517   0.516  1.3821  1.6582 -0.3108
 7008TIP3   OH242438   3.824   2.761  11.160  0.2129  0.2194  0.2235
 7008TIP3    H142439   3.753   2.710  11.121  0.7484 -0.8635  0.6413
 7008TIP3    H242440   3.808   2.851  11.131 -0.7770 -0.1762 -0.4780
 7009TIP3   OH242441   0.274   4.338   6.292 -0.6037  0.0170  0.0579
 7009TIP3    H142442   0.326   4.397   6.238 -0.0601  0.8511  1.4843
 7009TIP3    H242443   0.184   4.367   6.278 -0.2190  2.4182  2.1523
 7010TIP3   OH242444   3.077   3.596  14.685 -0.0606  0.6471  0.0055
 7010TIP3    H142445   3.166   3.565  14.702  0.4545  2.2261  0.2503
 7010TIP3    H242446   3.021   3.533  14.732  0.8568 -0.8798 -0.8960
 7011TIP3   OH242447   3.741   1.079  12.227  0.2186 -0.0906 -0.4425
 7011TIP3    H142448   3.768   0.988  12.219 -0.3797 -0.3786  0.7374
 7011TIP3    H242449   3.746   1.114  12.138  0.3809 -1.2841 -0.9042
 7012TIP3   OH242450   5.904   1.707  11.663 -0.1326  0.5788  0.0261
 7012TIP3    H142451   5.875   1.798  11.677  1.2042  1.0531 -0.1577
 7012TIP3    H242452   5.986   1.716  11.614 -0.3248 -0.7608 -0.5579
 7013TIP3   OH242453   0.797   6.740   0.202 -0.0643 -0.4094 -0.9411
 7013TIP3    H142454   0.734   6.812   0.195  0.0248 -0.1845  0.3322
 7013TIP3    H242455   0.746   6.661   0.182 -0.3494 -0.0716 -1.5709
 7014TIP3   OH242456   6.403   6.208   2.542 -0.4217  0.1851  0.2892
 7014TIP3    H142457   6.383   6.244   2.628 -1.5254  0.3420 -0.0245
 7014TIP3    H242458   6.323   6.160   2.517  0.5440 -1.4102  0.1509
 7015TIP3   OH242459   5.444   5.749  11.316  0.4626  0.4328  0.4470
 7015TIP3    H142460   5.417   5.658  11.303  2.4718 -0.1583  0.1588
 7015TIP3    H242461   5.511   5.744  11.384  2.3612  1.3395 -1.2889
 7016TIP3   OH242462   1.262   2.283   1.560 -0.3841 -0.0372  0.1364
 7016TIP3    H142463   1.315   2.207   1.537  0.8063  0.5565  0.8883
 7016TIP3    H242464   1.190   2.281   1.497  1.7553  0.4291 -2.4333
 7017TIP3   OH242465   5.503   2.588  15.480 -0.0781  0.0326  0.0311
 7017TIP3    H142466   5.441   2.594  15.407 -0.8730  0.5406  0.7316
 7017TIP3    H242467   5.583   2.629  15.447  0.4377 -2.1267 -1.4523
 7018TIP3   OH242468   1.360   4.388  15.370  0.3147  0.2581  0.1605
 7018TIP3    H142469   1.365   4.471  15.324 -0.1988  0.5445  0.6118
 7018TIP3    H242470   1.289   4.341  15.327 -0.8141  0.9172  1.2655
 7019TIP3   OH242471   0.350   4.593  14.429 -0.2903 -0.0616 -0.2236
 7019TIP3    H142472   0.332   4.591  14.523 -0.9569  1.3749 -0.3092
 7019TIP3    H242473   0.440   4.623  14.422 -0.1388 -0.4617 -0.0471
 7020TIP3   OH242474   0.498   0.215   3.243 -0.1935  0.5367  0.4538
 7020TIP3    H142475   0.431   0.230   3.310  0.1655  1.8972  0.5043
 7020TIP3    H242476   0.574   0.264   3.273  1.3515 -2.2155  1.1625
 7021TIP3   OH242477   3.064   5.876   4.806  0.3536 -0.0152 -0.4801
 7021TIP3    H142478   3.042   5.796   4.853  0.4003  0.0915 -0.2767
 7021TIP3    H242479   3.149   5.902   4.841 -0.6985  1.3787  1.1239
 7022TIP3   OH242480   3.003   2.074  15.856 -0.0770 -0.2895 -0.5236
 7022TIP3    H142481   2.998   2.024  15.774  1.0290 -0.7929 -0.2930
 7022TIP3    H242482   2.933   2.037  15.910 -0.4188 -0.3703 -1.0076
 7023TIP3   OH242483   5.401   1.099  16.593  0.1800  1.0574 -0.2737
 7023TIP3    H142484   5.427   1.183  16.630  1.7773 -0.2826  1.7972
 7023TIP3    H242485   5.340   1.063  16.657 -0.1166  0.4375 -0.8962
 7024TIP3   OH242486   1.795   5.493  16.099 -0.0242 -0.4113 -0.2474
 7024TIP3    H142487   1.756   5.573  16.065  0.8104  0.5498  1.0076
 7024TIP3    H242488   1.812   5.512  16.191  1.6219 -1.4892 -0.3063
 7025TIP3   OH242489   1.608   1.636   4.563  0.0792 -0.1717 -0.0774
 7025TIP3    H142490   1.657   1.559   4.592  1.0443  0.0214 -1.1547
 7025TIP3    H242491   1.524   1.601   4.535 -0.8222 -0.3857  2.7237
 7026TIP3   OH242492   5.149   2.706   0.887  0.9188 -0.0104 -0.0890
 7026TIP3    H142493   5.059   2.700   0.918  1.5029 -1.0127  1.4888
 7026TIP3    H242494   5.142   2.717   0.793 -0.8420 -0.2899  0.0029
 7027TIP3   OH242495   5.439   3.934   4.566  0.2598 -0.0728  0.0937
 7027TIP3    H142496   5.433   3.889   4.650 -0.4619 -0.1501  0.0041
 7027TIP3    H242497   5.422   3.866   4.501 -0.0573  0.1634 -0.0737
 7028TIP3   OH242498   6.592   2.420  15.925 -0.6372  0.3099 -0.2321
 7028TIP3    H142499   6.621   2.512  15.930  4.2949 -0.9840 -1.7134
 7028TIP3    H242500   6.611   2.394  15.835  1.8188 -3.1735  1.1554
 7029TIP3   OH242501   4.729   1.396  12.215 -0.1300 -0.0039  0.3429
 7029TIP3    H142502   4.752   1.305  12.197  0.8067  0.4421 -0.7557
 7029TIP3    H242503   4.810   1.445  12.200 -0.0451  0.7648  2.9886
 7030TIP3   OH242504   6.449   0.619   4.217 -0.0743 -0.3361 -0.0614
 7030TIP3    H142505   6.518   0.662   4.166  0.1634  0.6498  1.0583
 7030TIP3    H242506   6.373   0.618   4.158  0.5033 -0.1844 -0.8172
 7031TIP3   OH242507   2.465   5.844   4.397 -0.4070  0.5957 -0.0184
 7031TIP3    H142508   2.497   5.836   4.487  1.4229 -1.2328 -0.7880
 7031TIP3    H242509   2.435   5.757   4.374 -0.4078  0.9360 -1.3576
 7032TIP3   OH242510   2.674   2.885   4.258  0.6498 -0.4711  0.1151
 7032TIP3    H142511   2.621   2.952   4.301  2.9833  0.7089  1.2424
 7032TIP3    H242512   2.681   2.815   4.323 -1.3142 -1.5858 -0.8511
 7033TIP3   OH242513   6.385   0.460  11.498  0.2478 -0.1162 -0.0442
 7033TIP3    H142514   6.475   0.486  11.477  0.3909  1.1774  1.9706
 7033TIP3    H242515   6.341   0.543  11.517 -1.2935 -0.7722 -0.7535
 7034TIP3   OH242516   6.324   4.014   2.728 -0.0893 -0.3391  0.4662
 7034TIP3    H142517   6.405   4.060   2.708 -0.5874  0.1119 -0.5427
 7034TIP3    H242518   6.271   4.079   2.775  1.0508 -1.3693  3.3197
 7035TIP3   OH242519   5.021   5.241  14.294  0.0418 -0.4986  0.4103
 7035TIP3    H142520   5.093   5.206  14.243 -0.1296  0.0410 -0.2163
 7035TIP3    H242521   5.048   5.330  14.316 -1.0684  0.2726 -1.1689
 7036TIP3   OH242522   6.442   1.881  16.111 -1.0412  0.1323  0.3691
 7036TIP3    H142523   6.517   1.827  16.136 -1.9425 -0.9404  0.7750
 7036TIP3    H242524   6.368   1.821  16.112 -1.8514  1.1045 -0.3926
 7037TIP3   OH242525   5.066   5.394   4.056 -0.2918  0.3005  0.3399
 7037TIP3    H142526   5.061   5.484   4.086 -0.3744  0.0716  1.0088
 7037TIP3    H242527   5.103   5.400   3.968  1.2282  0.8590  1.0181
 7038TIP3   OH242528   5.030   4.258  14.437  0.2897 -1.0046 -0.1929
 7038TIP3    H142529   4.956   4.209  14.472  1.2128 -1.2418  1.4639
 7038TIP3    H242530   5.101   4.194  14.432  0.2611 -0.9004 -2.2494
 7039TIP3   OH242531   0.800   4.899   3.876 -0.0595  0.1545 -0.3992
 7039TIP3    H142532   0.816   4.869   3.965  1.7342  1.6363 -0.1813
 7039TIP3    H242533   0.751   4.981   3.886  1.0533  0.8670 -0.7284
 7040TIP3   OH242534   6.179   0.567   5.899  0.5832 -0.4321  0.3635
 7040TIP3    H142535   6.104   0.519   5.934 -0.1135  0.0061 -0.4978
 7040TIP3    H242536   6.214   0.615   5.974 -0.7709  0.3393  0.5257
 7041TIP3   OH242537   3.891   2.362   5.545  0.4069 -0.4991  0.7844
 7041TIP3    H142538   3.874   2.325   5.458 -1.1681 -1.3679  1.4513
 7041TIP3    H242539   3.819   2.330   5.600 -0.0304  2.1206  1.8102
 7042TIP3   OH242540   3.441   5.675   5.187 -0.0129 -0.2476 -0.5107
 7042TIP3    H142541   3.368   5.722   5.226  0.9566  2.3401 -1.7271
 7042TIP3    H242542   3.513   5.686   5.250  0.3417  0.3027 -1.0074
 7043TIP3   OH242543   4.405   4.713  15.222 -0.1100 -0.4936 -0.4683
 7043TIP3    H142544   4.318   4.753  15.213 -0.8960 -1.1443  3.5632
 7043TIP3    H242545   4.465   4.780  15.191 -1.9246  0.4943 -1.9936
 7044TIP3   OH242546   6.472   5.269  16.058 -0.3835  0.2232 -0.3687
 7044TIP3    H142547   6.427   5.325  15.995 -0.1428 -0.0874 -0.8141
 7044TIP3    H242548   6.402   5.223  16.104 -0.5314  0.0023 -0.8190
 7045TIP3   OH242549   5.618   4.452  14.262  0.2344  0.1372  0.0519
 7045TIP3    H142550   5.604   4.518  14.329  1.4127  0.3345  0.1197
 7045TIP3    H242551   5.710   4.427  14.272  0.3970  0.0949 -1.4051
 7046TIP3   OH242552   0.666   3.300   5.600 -0.2919 -0.1109  0.4272
 7046TIP3    H142553   0.672   3.319   5.506 -1.7609  0.9957  0.5267
 7046TIP3    H242554   0.600   3.231   5.607 -0.3208 -0.0621  0.6574
 7047TIP3   OH242555   1.346   4.950  13.929 -0.1259 -0.1962  0.0551
 7047TIP3    H142556   1.284   4.877  13.931 -1.4484  0.8944 -0.2022
 7047TIP3    H242557   1.375   4.955  13.838 -0.3317 -0.1473 -0.0071
 7048TIP3   OH242558   5.116   3.471   2.011  0.0862  0.1855  0.3046
 7048TIP3    H142559   5.126   3.563   1.988 -0.2836 -0.2321 -1.6340
 7048TIP3    H242560   5.053   3.471   2.083 -2.1558  1.2576 -1.5797
 7049TIP3   OH242561   4.332   0.084   2.499 -0.3454  0.0497  0.1863
 7049TIP3    H142562   4.279   0.133   2.435 -0.5879  1.6969  1.6367
 7049TIP3    H242563   4.271   0.065   2.570 -0.0425 -1.7045  0.0079
 7050TIP3   OH242564   1.348   6.205   4.181  0.2140  0.4965  0.5043
 7050TIP3    H142565   1.384   6.293   4.190  3.0038 -0.3632 -1.3009
 7050TIP3    H242566   1.363   6.164   4.266 -1.0055  1.7305  1.3177
 7051TIP3   OH242567   5.951   5.277   3.077 -0.7239 -0.1262 -0.1462
 7051TIP3    H142568   5.896   5.207   3.111 -0.7280 -0.6328 -1.1824
 7051TIP3    H242569   5.896   5.323   3.014  0.0161 -0.6121 -1.1676
 7052TIP3   OH242570   3.626   6.197  10.323  0.0370  0.4034  0.6188
 7052TIP3    H142571   3.595   6.114  10.288  0.6403  0.3851  0.1313
 7052TIP3    H242572   3.567   6.215  10.396  0.9772 -1.3134  1.8367
 7053TIP3   OH242573   4.270   1.906  11.236 -0.5226 -0.0581 -0.2123
 7053TIP3    H142574   4.199   1.921  11.173 -0.6883  0.0136 -0.0131
 7053TIP3    H242575   4.231   1.847  11.301 -0.5661  0.3994  0.1809
 7054TIP3   OH242576   6.626   1.849  13.112 -0.2119  0.0114 -0.2625
 7054TIP3    H142577   6.542   1.818  13.146  0.3265 -0.5971  0.5070
 7054TIP3    H242578   6.649   1.922  13.171 -0.2477  0.2472 -0.5386
 7055TIP3   OH242579   5.535   3.458   3.078  0.1800 -0.5174 -0.3621
 7055TIP3    H142580   5.584   3.498   3.150 -2.8473  1.2415  0.7968
 7055TIP3    H242581   5.595   3.462   3.004  1.7938  1.6193  0.9818
 7056TIP3   OH242582   5.036   1.496  16.762 -0.1353 -0.4473 -1.0926
 7056TIP3    H142583   5.052   1.567  16.825 -0.3012 -0.1676 -1.3672
 7056TIP3    H242584   4.963   1.447  16.799  0.7090 -1.1562 -0.3238
 7057TIP3   OH242585   4.329   5.833  12.430 -0.2506 -0.3936 -0.0146
 7057TIP3    H142586   4.250   5.792  12.394  1.2206 -2.8208 -0.5962
 7057TIP3    H242587   4.300   5.873  12.512 -2.3741  0.0048 -0.9400
 7058TIP3   OH242588   3.392   4.864  13.396 -0.3216 -0.5480  0.4614
 7058TIP3    H142589   3.391   4.775  13.433  2.5145 -0.4896  0.7360
 7058TIP3    H242590   3.439   4.916  13.461 -0.8297  0.9030 -0.3316
 7059TIP3   OH242591   5.693   4.500   4.193  0.0196 -0.8130 -0.3445
 7059TIP3    H142592   5.768   4.559   4.180 -0.0230 -1.1533 -2.4081
 7059TIP3    H242593   5.638   4.515   4.116 -1.4062 -1.4995  0.5238
 7060TIP3   OH242594   5.466   5.923  14.566 -0.4882  0.1793 -0.2407
 7060TIP3    H142595   5.449   6.007  14.608 -0.4228 -0.1139  0.3837
 7060TIP3    H242596   5.561   5.919  14.557 -0.3131 -0.6872  1.5854
 7061TIP3   OH242597   2.289   1.734   5.700 -0.7809 -0.4589  0.2981
 7061TIP3    H142598   2.257   1.824   5.707 -0.9089 -0.4228 -0.6487
 7061TIP3    H242599   2.384   1.741   5.708 -0.7732 -0.2042  0.0053
 7062TIP3   OH242600   4.893   0.928  12.880  0.0381  0.5217 -0.3582
 7062TIP3    H142601   4.898   0.989  12.806  0.0831  0.7084 -0.2013
 7062TIP3    H242602   4.967   0.868  12.867 -0.8808 -0.4206 -1.3280
 7063TIP3   OH242603   6.077   6.024   2.098  1.3600  0.0479 -0.3726
 7063TIP3    H142604   6.144   6.090   2.114  0.0208  1.9780 -2.4715
 7063TIP3    H242605   6.112   5.973   2.024  0.8978  0.5134 -0.9113
 7064TIP3   OH242606   5.880   5.739   4.429  0.4146 -0.3507 -0.2726
 7064TIP3    H142607   5.922   5.790   4.360  0.9717  1.9655  1.7055
 7064TIP3    H242608   5.789   5.768   4.428  1.4513  3.5216  3.1847
 7065TIP3   OH242609   5.874   4.158  13.643  0.2511  0.3031 -0.4454
 7065TIP3    H142610   5.883   4.064  13.654  2.8171  0.5152 -0.3521
 7065TIP3    H242611   5.819   4.168  13.565 -0.2984 -1.2630 -0.2763
 7066TIP3   OH242612   6.178   5.856   1.896 -0.0212  0.3968  0.1788
 7066TIP3    H142613   6.260   5.807   1.893 -0.4100 -0.2959  0.6321
 7066TIP3    H242614   6.110   5.790   1.886 -0.5742  0.7309  1.5225
 7067TIP3   OH242615   2.388   5.153   4.807 -0.0750 -0.2776 -0.1120
 7067TIP3    H142616   2.385   5.233   4.755 -1.5867  0.2177  0.6984
 7067TIP3    H242617   2.380   5.184   4.898  1.4205 -1.2026  0.3521
 7068TIP3   OH242618   4.883   1.191  13.059  0.1425  0.0862  0.0819
 7068TIP3    H142619   4.881   1.106  13.014  0.7922  0.5347 -0.8066
 7068TIP3    H242620   4.958   1.184  13.119  0.7307  0.3423 -0.6186
 7069TIP3   OH242621   3.961   5.559  16.185  0.2863  0.5637 -0.0202
 7069TIP3    H142622   4.047   5.583  16.222  0.2309  2.2554 -0.9689
 7069TIP3    H242623   3.969   5.579  16.092 -0.7505 -0.4150 -0.3207
 7070TIP3   OH242624   2.866   4.987  16.557  0.7979 -0.1886 -0.0326
 7070TIP3    H142625   2.826   5.052  16.498  0.2080 -2.0710 -1.7430
 7070TIP3    H242626   2.959   5.011  16.559  0.3563  1.5561  0.4677
 7071TIP3   OH242627   4.516   5.279   5.109  0.3706  0.2108  0.0975
 7071TIP3    H142628   4.586   5.321   5.159  0.4396  0.5325 -0.2683
 7071TIP3    H242629   4.443   5.275   5.171  1.3170 -1.9308  1.1117
 7072TIP3   OH242630   1.573   2.480  13.426  0.8127 -0.3510 -0.4200
 7072TIP3    H142631   1.499   2.482  13.486 -1.2294  4.8330 -2.7383
 7072TIP3    H242632   1.638   2.537  13.467  0.5858  0.8435 -1.6822
 7073TIP3   OH242633   4.476   6.244  12.180  0.0430  0.4085 -0.2265
 7073TIP3    H142634   4.507   6.289  12.101 -0.8987  0.3683 -0.6318
 7073TIP3    H242635   4.499   6.152  12.166  0.1742  0.4534 -0.3084
 7074TIP3   OH242636   1.623   2.783  12.075  0.0534 -0.5298  0.7614
 7074TIP3    H142637   1.546   2.764  12.129  0.2331  0.3666  1.3442
 7074TIP3    H242638   1.596   2.759  11.987 -0.9598 -0.0875  0.9364
 7075TIP3   OH242639   5.221   1.118   1.957  0.2630 -0.0093  0.3387
 7075TIP3    H142640   5.256   1.158   2.037  1.3191 -3.3123  1.6130
 7075TIP3    H242641   5.129   1.101   1.978  0.2127  0.2901  0.3689
 7076TIP3   OH242642   2.328   4.921   4.149 -0.2058 -0.0867 -0.0590
 7076TIP3    H142643   2.258   4.868   4.186 -0.5623  0.2771 -0.2171
 7076TIP3    H242644   2.304   4.933   4.057  0.3241 -0.4003 -0.2435
 7077TIP3   OH242645   6.187   0.762  13.829  0.5154 -0.5239 -0.5758
 7077TIP3    H142646   6.134   0.704  13.884 -0.4704  0.6512 -0.2896
 7077TIP3    H242647   6.251   0.703  13.788 -2.0175 -2.2174 -2.2291
 7078TIP3   OH242648   2.050   3.963  13.755 -0.5909  0.1847 -0.0175
 7078TIP3    H142649   2.137   3.998  13.735 -0.8742  2.3882  2.3313
 7078TIP3    H242650   1.993   3.999  13.688 -0.3906  2.1636  0.8251
 7079TIP3   OH242651   6.427   0.298   5.524  0.1101  0.1434  0.0799
 7079TIP3    H142652   6.447   0.234   5.457  2.6946 -0.9035  1.7691
 7079TIP3    H242653   6.450   0.382   5.485 -0.1799 -0.2708 -0.9806
 7080TIP3   OH242654   1.588   5.287   4.086  0.1750  0.0397  0.2069
 7080TIP3    H142655   1.646   5.345   4.036  0.4519 -0.1977  0.2534
 7080TIP3    H242656   1.546   5.345   4.149  0.7694  0.1190  0.5375
 7081TIP3   OH242657   6.407   1.496   5.340  0.1804  0.0748  0.0572
 7081TIP3    H142658   6.480   1.505   5.278 -0.2454 -2.0945 -0.7928
 7081TIP3    H242659   6.425   1.562   5.407  2.0261  0.7140 -1.0183
 7082TIP3   OH242660   1.804   6.505  15.182 -0.3057 -0.3112  0.1600
 7082TIP3    H142661   1.824   6.555  15.103 -0.9503 -0.7316 -0.2664
 7082TIP3    H242662   1.724   6.458  15.162 -1.4403  0.9108  1.6515
 7083TIP3   OH242663   2.099   0.758  14.741 -0.0424  0.7186 -0.1528
 7083TIP3    H142664   2.020   0.714  14.712  0.1908  0.0304  0.2438
 7083TIP3    H242665   2.107   0.735  14.834  1.4191 -0.4280 -0.5403
 7084TIP3   OH242666   5.481   3.396  16.162 -0.1316 -0.0344 -1.1373
 7084TIP3    H142667   5.395   3.423  16.131 -1.0984 -1.9001 -0.1544
 7084TIP3    H242668   5.535   3.475  16.155 -1.6563  0.9104 -2.6611
 7085TIP3   OH242669   0.439   1.568   4.986 -0.0864  0.5522  0.0295
 7085TIP3    H142670   0.477   1.656   4.986  1.1236  0.0294  0.2463
 7085TIP3    H242671   0.457   1.534   4.898  2.1256 -0.6188  0.8956
 7086TIP3   OH242672   4.960   2.667   1.389  0.5509  0.1219 -0.7004
 7086TIP3    H142673   4.900   2.640   1.458  0.0783 -1.2173 -1.6289
 7086TIP3    H242674   5.030   2.714   1.435  0.7697 -1.6332  0.8012
 7087TIP3   OH242675   6.721   1.733   5.044 -0.2815  0.2531 -0.0223
 7087TIP3    H142676   6.768   1.690   4.973  0.8231 -0.5033  1.1559
 7087TIP3    H242677   6.664   1.796   5.000 -1.3680 -1.8462 -1.7160
 7088TIP3   OH242678   4.648   3.997  11.870 -0.4671 -0.0360  0.4829
 7088TIP3    H142679   4.613   3.908  11.872 -2.6164  0.7998  2.4110
 7088TIP3    H242680   4.724   3.995  11.928  0.3068 -0.9124 -0.5492
 7089TIP3   OH242681   3.362   6.075   3.499 -0.6493 -0.1225  0.0145
 7089TIP3    H142682   3.351   5.998   3.554  1.4879  0.3849  1.2305
 7089TIP3    H242683   3.450   6.066   3.462 -1.2169  0.6544 -1.5749
 7090TIP3   OH242684   6.084   6.099   1.545  0.3466 -0.2956  0.1171
 7090TIP3    H142685   6.129   6.141   1.471  0.7420  0.7383  0.9344
 7090TIP3    H242686   6.151   6.091   1.612 -0.8799  2.0748  1.6800
 7091TIP3   OH242687   6.068   1.266  12.649  0.1241  0.3401  0.3555
 7091TIP3    H142688   5.990   1.288  12.699 -0.7023  1.2700 -1.2807
 7091TIP3    H242689   6.119   1.347  12.648  1.4699 -0.4549  2.0060
 7092TIP3   OH242690   4.365   4.131  11.075 -0.1636  0.1878  0.1411
 7092TIP3    H142691   4.293   4.150  11.016  0.4960  0.3993 -0.6144
 7092TIP3    H242692   4.333   4.155  11.162 -0.7969  0.8179 -0.2646
 7093TIP3   OH242693   4.861   6.110  14.573 -0.3085  0.7927  0.3124
 7093TIP3    H142694   4.871   6.154  14.489  2.2322 -1.0767 -0.4149
 7093TIP3    H242695   4.806   6.034  14.554  0.3317  0.3259  0.3137
 7094TIP3   OH242696   0.071   0.720  14.264  0.0210  0.6915 -0.0642
 7094TIP3    H142697   0.022   0.642  14.240  2.1809 -0.5458 -0.5993
 7094TIP3    H242698   0.006   0.780  14.300 -1.5196 -1.7088  1.2208
 7095TIP3   OH242699   0.904   6.479  15.682  0.4649 -0.1003  0.1097
 7095TIP3    H142700   0.888   6.565  15.643  0.1089 -0.1897  0.0561
 7095TIP3    H242701   0.943   6.428  15.612  0.8204  0.0620  0.1865
 7096TIP3   OH242702   4.849   1.490  11.241  0.3809 -0.2249  0.0830
 7096TIP3    H142703   4.820   1.572  11.200  1.4125  0.9421  1.6228
 7096TIP3    H242704   4.945   1.495  11.238  0.4581 -1.7589 -0.5102
 7097TIP3   OH242705   1.523   5.402   0.265 -0.7185 -0.3569  0.7793
 7097TIP3    H142706   1.533   5.335   0.197 -1.2251  0.3118  0.0340
 7097TIP3    H242707   1.578   5.371   0.337  2.5276  0.5366 -1.1637
 7098TIP3   OH242708   1.204   1.204  17.180 -0.1094 -0.2856  0.6196
 7098TIP3    H142709   1.231   1.132  17.123 -1.0496  1.0299 -1.5606
 7098TIP3    H242710   1.121   1.175  17.218 -0.2107 -0.5909  0.1670
 7099TIP3   OH242711   5.271   3.638  16.989  0.3092 -0.5090  0.4767
 7099TIP3    H142712   5.353   3.680  16.963 -0.1533 -0.5708 -1.1295
 7099TIP3    H242713   5.295   3.546  17.003  0.3783 -0.6821 -0.7274
 7100TIP3   OH242714   6.582   4.166  10.874  0.2774  0.5639  0.3494
 7100TIP3    H142715   6.546   4.232  10.814 -1.2632 -0.5874 -0.0140
 7100TIP3    H242716   6.673   4.193  10.887  0.5305  1.0498 -2.1903
 7101TIP3   OH242717   5.686   4.526  15.504  0.2085 -0.0309 -0.2014
 7101TIP3    H142718   5.610   4.479  15.539 -0.0981 -0.5802 -1.5544
 7101TIP3    H242719   5.648   4.595  15.449  0.6763  0.0837 -0.3856
 7102TIP3   OH242720   1.032   2.946  11.929 -0.1312  0.6742  0.2063
 7102TIP3    H142721   1.113   2.951  11.878  0.4911 -0.1184  1.0897
 7102TIP3    H242722   1.042   3.014  11.996 -0.4377  0.9524 -0.0358
 7103TIP3   OH242723   2.384   3.435  11.748 -0.5074  0.1422  0.1913
 7103TIP3    H142724   2.326   3.364  11.719 -1.0934  0.0373  1.6014
 7103TIP3    H242725   2.463   3.391  11.779 -0.6741  0.1295  0.6023
 7104TIP3   OH242726   3.052   5.196   3.523 -0.1117 -0.9268  0.0078
 7104TIP3    H142727   3.096   5.143   3.457 -0.4488  0.7746 -1.6451
 7104TIP3    H242728   3.079   5.159   3.607  2.3894 -1.5360 -1.0258
 7105TIP3   OH242729   0.761   1.194  12.266 -0.0278  0.2170  0.2321
 7105TIP3    H142730   0.723   1.128  12.208  0.9716  0.4355 -0.6870
 7105TIP3    H242731   0.764   1.274  12.214 -1.5304  1.0874  1.4485
 7106TIP3   OH242732   5.887   5.846  13.173  0.1734  0.1918 -0.5007
 7106TIP3    H142733   5.914   5.787  13.103 -1.1758 -0.0243 -0.8526
 7106TIP3    H242734   5.839   5.916  13.128 -0.1216  0.4027  0.1323
 7107TIP3   OH242735   4.288   5.421   3.132 -0.4079  0.3876 -0.3480
 7107TIP3    H142736   4.332   5.470   3.201 -1.6953  1.9234 -0.6060
 7107TIP3    H242737   4.258   5.341   3.175  1.2157  0.0460  0.2039
 7108TIP3   OH242738   6.314   6.303   5.858 -1.0171 -0.1325 -0.1318
 7108TIP3    H142739   6.347   6.292   5.947 -0.6615  2.5697  0.1253
 7108TIP3    H242740   6.389   6.285   5.802 -0.7160  0.0474  0.2106
 7109TIP3   OH242741   0.868   5.156   6.129  0.0035 -0.4204 -0.9444
 7109TIP3    H142742   0.876   5.081   6.071 -2.0592 -0.8270 -0.7416
 7109TIP3    H242743   0.779   5.151   6.163  0.2984  1.3250  0.1681
 7110TIP3   OH242744   2.511   3.048  14.468  0.0541 -0.6509  0.2710
 7110TIP3    H142745   2.510   2.968  14.415 -1.8892 -1.1307  1.0108
 7110TIP3    H242746   2.420   3.074  14.476  0.7236  2.1720 -0.6895
 7111TIP3   OH242747   5.589   3.504  15.085 -0.7971  0.3891  0.1524
 7111TIP3    H142748   5.613   3.597  15.078 -0.2508  0.3598  1.5921
 7111TIP3    H242749   5.510   3.504  15.139 -0.8317  0.0162  0.1030
 7112TIP3   OH242750   6.170   2.981   2.108  0.2166  0.3959 -0.8659
 7112TIP3    H142751   6.093   2.968   2.165  0.4599  2.3586 -0.0718
 7112TIP3    H242752   6.147   3.056   2.053  1.8208  1.4068 -0.1767
 7113TIP3   OH242753   0.770   6.457  14.785 -0.0970  0.3447  0.3880
 7113TIP3    H142754   0.734   6.533  14.739 -1.2998 -0.4663 -0.0263
 7113TIP3    H242755   0.709   6.442  14.857 -0.5029 -0.9303 -0.2087
 7114TIP3   OH242756   5.124   1.806   4.092  0.4372 -0.2100 -0.3760
 7114TIP3    H142757   5.203   1.850   4.122  0.7468 -0.9857 -0.0409
 7114TIP3    H242758   5.146   1.773   4.005  0.3143  0.0027 -0.4889
 7115TIP3   OH242759   4.821   1.690  13.261 -0.5784  0.1856  0.4684
 7115TIP3    H142760   4.834   1.667  13.353  0.8827  0.6833  0.4082
 7115TIP3    H242761   4.768   1.619  13.226  0.1962 -0.8429  1.3271
 7116TIP3   OH242762   2.746   2.327  12.491  0.3687 -0.5024  0.7185
 7116TIP3    H142763   2.670   2.380  12.467 -0.1887 -1.3016  0.6999
 7116TIP3    H242764   2.773   2.361  12.576  1.1432  1.0258 -0.1205
 7117TIP3   OH242765   2.899   3.616  16.654  0.2693 -0.0634  0.2855
 7117TIP3    H142766   2.956   3.683  16.617  0.7886 -0.0646  1.0675
 7117TIP3    H242767   2.861   3.572  16.578  0.5665  0.5704 -0.2343
 7118TIP3   OH242768   3.093   0.069  10.890  0.0269  0.6079  0.0155
 7118TIP3    H142769   3.005   0.032  10.902  0.4546 -0.6308 -0.5500
 7118TIP3    H242770   3.121   0.036  10.805  1.9638 -0.9286  1.1953
 7119TIP3   OH242771   5.088   2.880   5.187 -0.7672  0.0402  0.0251
 7119TIP3    H142772   5.144   2.940   5.137 -0.6039  0.4178  0.6457
 7119TIP3    H242773   5.003   2.924   5.189 -0.8719 -0.1521 -0.2388
 7120TIP3   OH242774   5.405   4.857  12.421  0.0784  0.5612 -0.3233
 7120TIP3    H142775   5.410   4.864  12.517 -0.0223  1.8444 -0.4055
 7120TIP3    H242776   5.323   4.901  12.398 -0.8369 -1.3712 -0.8570
 7121TIP3   OH242777   2.656   2.731  16.269  0.3685 -0.1648 -0.2140
 7121TIP3    H142778   2.639   2.784  16.347  2.8668  0.6636 -0.1887
 7121TIP3    H242779   2.598   2.767  16.203 -1.0759 -0.2445  0.9758
 7122TIP3   OH242780   4.738   2.625   2.875 -0.0900  0.2445 -0.1674
 7122TIP3    H142781   4.812   2.578   2.914 -0.2820  0.2365  0.1900
 7122TIP3    H242782   4.777   2.673   2.801  0.2951  0.3218  0.0799
 7123TIP3   OH242783   1.694   2.199  12.962 -0.1203  0.3077  0.1787
 7123TIP3    H142784   1.690   2.109  12.993 -0.5090  0.0626 -0.5731
 7123TIP3    H242785   1.605   2.233  12.976  0.8273  1.6092  3.4961
 7124TIP3   OH242786   4.808   2.139   6.701 -0.3030  0.1506 -0.6720
 7124TIP3    H142787   4.823   2.220   6.652 -2.5983  0.9676 -0.0875
 7124TIP3    H242788   4.889   2.125   6.750 -0.2399  2.6873  0.0361
 7125TIP3   OH242789   1.609   1.991   3.712 -0.7919 -0.3289 -0.3099
 7125TIP3    H142790   1.542   1.957   3.772 -1.6328  1.0812 -0.4393
 7125TIP3    H242791   1.672   1.919   3.704 -0.5573 -0.4883  2.4184
 7126TIP3   OH242792   5.166   5.476  16.786 -0.2478 -0.2038  0.2774
 7126TIP3    H142793   5.103   5.476  16.858 -0.6432  0.6490 -0.0652
 7126TIP3    H242794   5.113   5.476  16.707  0.1539 -4.3626 -0.0928
 7127TIP3   OH242795   4.589   2.926  11.818  0.4317  0.3370  0.1329
 7127TIP3    H142796   4.533   2.993  11.779  0.1502 -0.6955 -1.2648
 7127TIP3    H242797   4.670   2.928  11.767  0.2024 -0.7701 -0.3024
 7128TIP3   OH242798   5.988   1.445  16.791 -0.7698 -0.5365 -0.3029
 7128TIP3    H142799   5.909   1.392  16.784 -0.7452 -0.5248 -0.7501
 7128TIP3    H242800   5.963   1.519  16.846 -0.8438 -0.9367  0.2010
 7129TIP3   OH242801   2.744   2.112   4.700  0.5763 -0.1305 -0.3184
 7129TIP3    H142802   2.721   2.059   4.624  1.1748  0.2870 -0.8032
 7129TIP3    H242803   2.835   2.089   4.718 -0.1388 -1.6298  1.4549
 7130TIP3   OH242804   6.775   1.317   0.331 -0.1571  0.0757  0.2195
 7130TIP3    H142805   6.773   1.227   0.299 -0.0580 -0.0353  0.5224
 7130TIP3    H242806   6.865   1.330   0.360  0.1483  0.6686 -0.9410
 7131TIP3   OH242807   5.713   6.483   4.931 -0.1384  0.3581  1.0379
 7131TIP3    H142808   5.707   6.474   5.026 -1.6685 -2.3089  0.7602
 7131TIP3    H242809   5.696   6.394   4.898 -1.0278  1.5079 -1.7653
 7132TIP3   OH242810   4.780   5.762  12.496 -0.6427 -0.0488 -0.3030
 7132TIP3    H142811   4.728   5.714  12.432 -1.6200 -1.4849  1.4956
 7132TIP3    H242812   4.719   5.778  12.569  1.0614 -0.6821  1.3213
 7133TIP3   OH242813   2.609   5.157  16.373 -0.3170 -0.4800  0.5449
 7133TIP3    H142814   2.539   5.155  16.308  0.1795  0.2886 -0.0235
 7133TIP3    H242815   2.564   5.173  16.456 -0.7320  0.9289  0.0533
 7134TIP3   OH242816   2.564   3.958  15.737  0.6489 -0.5622  0.6195
 7134TIP3    H142817   2.644   4.009  15.722  1.6174 -2.5766 -1.3972
 7134TIP3    H242818   2.555   3.954  15.832  1.5917  1.7016  0.8485
 7135TIP3   OH242819   5.596   3.334   6.028 -0.2871 -0.4321  0.4495
 7135TIP3    H142820   5.640   3.413   6.058 -1.1829 -0.4199  1.7911
 7135TIP3    H242821   5.637   3.263   6.079 -0.1797 -0.7072 -0.0158
 7136TIP3   OH242822   2.715   0.437  12.828 -0.3861 -0.2642 -0.2324
 7136TIP3    H142823   2.792   0.469  12.781  0.6501 -1.6920  0.4701
 7136TIP3    H242824   2.649   0.423  12.760  1.1202 -2.3628 -1.3239
 7137TIP3   OH242825   3.437   1.473   0.175 -0.1779  0.0281 -0.3165
 7137TIP3    H142826   3.342   1.466   0.186 -0.1679 -0.3903 -0.4726
 7137TIP3    H242827   3.466   1.383   0.163  0.3560  0.0584  0.6575
 7138TIP3   OH242828   6.738   0.857  11.762  0.5392 -0.6088  0.1325
 7138TIP3    H142829   6.664   0.797  11.772  0.0272  0.3259  2.0806
 7138TIP3    H242830   6.800   0.830  11.830  0.9848  0.0736 -0.0015
 7139TIP3   OH242831   5.250   0.884   4.979  0.4237 -0.1746 -0.1348
 7139TIP3    H142832   5.317   0.946   5.006  1.1708 -1.4134  0.9072
 7139TIP3    H242833   5.208   0.925   4.903  2.5045  0.5202 -0.9412
 7140TIP3   OH242834   6.312   4.031  12.045 -0.5840  0.2722  0.1355
 7140TIP3    H142835   6.254   4.062  12.115 -1.0948 -0.6336  0.1369
 7140TIP3    H242836   6.257   3.970  11.995  0.0020  0.3528 -0.6073
 7141TIP3   OH242837   3.421   0.051   2.413 -0.6205 -0.2883 -0.0042
 7141TIP3    H142838   3.448  -0.039   2.398 -0.2247 -0.4341  1.5862
 7141TIP3    H242839   3.472   0.080   2.489 -1.7599  0.8235  0.3509
 7142TIP3   OH242840   1.356   3.103   4.871  0.5441  0.2869  0.2341
 7142TIP3    H142841   1.297   3.098   4.947 -0.9026  0.6432 -0.8605
 7142TIP3    H242842   1.432   3.050   4.897 -1.5913 -2.7803  0.4757
 7143TIP3   OH242843   4.232   0.748  12.364  0.0109 -0.0464 -0.2364
 7143TIP3    H142844   4.228   0.720  12.455 -2.3049 -1.2116 -0.6605
 7143TIP3    H242845   4.214   0.669  12.314 -2.0670  1.2202 -1.5878
 7144TIP3   OH242846   2.453   2.063   3.528 -0.0340 -0.1494  0.1370
 7144TIP3    H142847   2.479   1.971   3.536 -1.7212 -1.0037 -3.4368
 7144TIP3    H242848   2.485   2.090   3.442 -1.0103  2.1467  0.4537
 7145TIP3   OH242849   0.666   3.683   2.793  0.4923 -0.5205 -0.0766
 7145TIP3    H142850   0.605   3.751   2.822  0.5580 -0.1378 -0.8112
 7145TIP3    H242851   0.749   3.705   2.835  0.6100  0.0795 -0.6133
 7146TIP3   OH242852   3.107   3.242  12.689 -0.0525  0.0132  0.4825
 7146TIP3    H142853   3.033   3.251  12.749 -0.0186  1.1903  0.3743
 7146TIP3    H242854   3.084   3.300  12.616  0.6602 -0.1512  0.1292
 7147TIP3   OH242855   1.589   4.566   1.622 -0.0706  0.0988  0.4479
 7147TIP3    H142856   1.638   4.592   1.545  0.2423  4.0577  1.8501
 7147TIP3    H242857   1.630   4.485   1.651  1.2001 -0.2627 -2.2750
 7148TIP3   OH242858   0.267   6.591   5.997  0.4413  0.1303  0.6486
 7148TIP3    H142859   0.198   6.654   6.020 -0.1182 -0.5168  0.7614
 7148TIP3    H242860   0.338   6.645   5.962  0.0573  0.8455  0.9545
 7149TIP3   OH242861   1.409   2.939   3.673  0.6332 -0.1498 -0.6321
 7149TIP3    H142862   1.355   2.862   3.661  0.2111 -0.5251  3.0019
 7149TIP3    H242863   1.356   3.012   3.642 -1.4036 -0.6917  1.4613
 7150TIP3   OH242864   6.559   6.156  13.828  0.2480  0.0366  0.6916
 7150TIP3    H142865   6.511   6.235  13.802 -1.4108 -0.7175  1.3974
 7150TIP3    H242866   6.624   6.187  13.891 -1.5570  0.6246  2.3254
 7151TIP3   OH242867   0.584   1.828   5.052  0.0451  0.0306  0.4663
 7151TIP3    H142868   0.540   1.877   5.121  1.7313  1.4827  0.5505
 7151TIP3    H242869   0.540   1.856   4.971 -0.8744 -0.4652  0.7967
 7152TIP3   OH242870   2.351   1.416   3.272 -0.0089  0.6763 -0.6070
 7152TIP3    H142871   2.329   1.367   3.193  1.4143  2.8270 -2.3748
 7152TIP3    H242872   2.293   1.492   3.271  0.8200  1.3327 -0.2351
 7153TIP3   OH242873   1.249   0.434  13.857 -0.7616 -0.0315  0.1750
 7153TIP3    H142874   1.229   0.497  13.927 -0.4777 -0.4346  0.6187
 7153TIP3    H242875   1.336   0.460  13.826 -0.3013 -0.6756  0.8911
 7154TIP3   OH242876   6.630   1.006  12.801 -0.2441 -0.2761  0.1979
 7154TIP3    H142877   6.563   1.008  12.869  2.0949 -0.0432  2.5805
 7154TIP3    H242878   6.712   1.026  12.847  1.3712  0.2279 -2.7488
 7155TIP3   OH242879   1.350   0.054   0.168  0.1818  0.4225  0.4087
 7155TIP3    H142880   1.269   0.029   0.124 -1.4890  0.7015  3.2159
 7155TIP3    H242881   1.379   0.132   0.120 -0.6098 -0.2912 -1.2928
 7156TIP3   OH242882   4.509   2.468   1.743  0.0820 -0.2326 -0.0595
 7156TIP3    H142883   4.437   2.488   1.803  2.1422  2.1306  1.7225
 7156TIP3    H242884   4.489   2.518   1.663 -0.9117 -0.6369 -0.0620
 7157TIP3   OH242885   6.579   2.754   5.149 -0.4571  0.3720 -0.1338
 7157TIP3    H142886   6.533   2.838   5.150 -3.0144 -0.9367 -1.6453
 7157TIP3    H242887   6.656   2.769   5.094 -0.4585  1.9190  0.2672
 7158TIP3   OH242888   0.230   4.817  13.955 -0.5783  0.1290  0.1391
 7158TIP3    H142889   0.190   4.760  14.020  0.3581  0.3310  0.9063
 7158TIP3    H242890   0.213   4.906  13.989  1.3165  0.1910  0.9638
 7159TIP3   OH242891   0.191   0.843   4.431 -0.6731  0.8628 -0.2620
 7159TIP3    H142892   0.279   0.879   4.434  1.1358 -3.2057 -0.6407
 7159TIP3    H242893   0.158   0.851   4.520  1.9227 -1.6559  1.0007
 7160TIP3   OH242894   0.108   5.782   1.861  0.0433 -0.5733 -0.5422
 7160TIP3    H142895   0.160   5.854   1.897 -0.2716 -1.1671  1.1168
 7160TIP3    H242896   0.173   5.724   1.822  0.2640  0.8479 -2.4012
 7161TIP3   OH242897   6.371   0.928   3.706 -0.5391 -0.3338  0.1261
 7161TIP3    H142898   6.406   0.980   3.634 -0.3001 -1.1009 -0.3198
 7161TIP3    H242899   6.303   0.984   3.745 -1.8604 -0.5735 -1.7671
 7162TIP3   OH242900   1.651   4.617  12.937  0.6424  0.2583 -0.4555
 7162TIP3    H142901   1.731   4.605  12.989  0.3232 -0.2001 -0.0644
 7162TIP3    H242902   1.581   4.620  13.001 -0.0402 -2.7798 -0.9461
 7163TIP3   OH242903   5.897   4.874   1.927  0.0945  0.0765  0.5242
 7163TIP3    H142904   5.826   4.930   1.958  1.1952  1.0619  1.2965
 7163TIP3    H242905   5.886   4.793   1.976 -2.4797 -1.0544 -1.7671
 7164TIP3   OH242906   2.593   6.564   4.080 -0.2600  0.2372 -0.3017
 7164TIP3    H142907   2.623   6.523   4.161  1.4086  0.9587 -0.5501
 7164TIP3    H242908   2.663   6.624   4.055 -1.2505  0.8549 -1.6877
 7165TIP3   OH242909   6.420   0.486  16.528  0.4271  0.1718 -0.1344
 7165TIP3    H142910   6.342   0.446  16.490  1.9140 -1.4880 -1.4819
 7165TIP3    H242911   6.492   0.429  16.501  1.8804  0.5759  2.7427
 7166TIP3   OH242912   6.172   4.927   5.337 -0.0909  0.4675 -0.2409
 7166TIP3    H142913   6.146   4.896   5.250  1.4273  0.7298 -0.8027
 7166TIP3    H242914   6.117   5.004   5.352 -0.6554  0.1773 -0.7895
 7167TIP3   OH242915   4.698   5.013  12.735 -0.4727 -0.2118 -0.3499
 7167TIP3    H142916   4.685   4.994  12.828 -0.2818  0.7678 -0.1187
 7167TIP3    H242917   4.633   4.959  12.690 -0.0024 -1.3264  0.2962
 7168TIP3   OH242918   6.707   0.666   0.716  0.3377  0.1049 -0.2774
 7168TIP3    H142919   6.613   0.675   0.700  0.1215 -1.0593  0.3069
 7168TIP3    H242920   6.718   0.685   0.809  1.0397  2.7518 -0.8555
 7169TIP3   OH242921   0.402   3.765   5.283  0.4609  0.0933 -0.2431
 7169TIP3    H142922   0.347   3.827   5.235  0.0965  0.5259  0.7189
 7169TIP3    H242923   0.436   3.816   5.357  2.2236 -0.1489 -0.8738
 7170TIP3   OH242924   1.545   4.830  13.260  0.4673 -0.8182  0.0472
 7170TIP3    H142925   1.497   4.832  13.342 -0.1134  1.0312 -0.3162
 7170TIP3    H242926   1.499   4.764  13.207  1.0931 -2.3138  1.3192
 7171TIP3   OH242927   0.139   4.019   4.231 -0.3061  0.0616  0.0077
 7171TIP3    H142928   0.206   4.041   4.296  0.4708 -1.0825 -0.3896
 7171TIP3    H242929   0.077   3.964   4.278  1.2059 -2.2601 -0.6476
 7172TIP3   OH242930   2.133   2.303   0.948 -0.0211  0.3143  0.3591
 7172TIP3    H142931   2.108   2.297   0.856  0.5295  1.8937  0.0806
 7172TIP3    H242932   2.086   2.232   0.991  2.3659 -2.6149 -1.6963
 7173TIP3   OH242933   1.166   2.826   0.540  0.1361 -0.5021 -0.1180
 7173TIP3    H142934   1.249   2.812   0.585  0.4362  0.4696 -0.3429
 7173TIP3    H242935   1.170   2.917   0.511 -0.7525 -0.6278 -0.6602
 7174TIP3   OH242936   0.968   3.890  12.063 -0.0462  0.3176  0.2577
 7174TIP3    H142937   0.905   3.838  12.113  0.6535  1.3716  2.2976
 7174TIP3    H242938   0.931   3.895  11.975 -2.5789  0.4921  1.2942
 7175TIP3   OH242939   5.301   0.797  16.913 -0.1028 -0.2377 -0.1329
 7175TIP3    H142940   5.393   0.819  16.894 -0.6135 -0.0277 -2.5498
 7175TIP3    H242941   5.269   0.871  16.964  1.0707 -0.2930  0.6974
 7176TIP3   OH242942   5.955   3.594  11.262  0.6301 -0.2352 -0.5589
 7176TIP3    H142943   5.928   3.557  11.178 -1.0276 -2.5722  0.9565
 7176TIP3    H242944   6.050   3.600  11.256  0.5630 -0.6880 -2.4704
 7177TIP3   OH242945   0.164   2.756  16.788 -0.3134 -0.5645  0.5054
 7177TIP3    H142946   0.151   2.800  16.704  0.7613 -0.1108  0.5693
 7177TIP3    H242947   0.092   2.788  16.843 -1.4258 -1.3967 -0.4428
 7178TIP3   OH242948   6.499   2.979  14.754 -0.3823  0.4683  0.0505
 7178TIP3    H142949   6.476   2.940  14.839 -3.7519 -1.2058 -1.5415
 7178TIP3    H242950   6.545   2.909  14.708  0.7236  1.1111  0.1683
 7179TIP3   OH242951   2.189   5.038   2.857 -0.1857  0.3631 -0.1678
 7179TIP3    H142952   2.274   4.995   2.851 -0.0616  0.2645  1.8160
 7179TIP3    H242953   2.126   4.966   2.850 -0.1340  0.4718 -1.9618
 7180TIP3   OH242954   3.438   2.462   2.322 -0.1816 -0.1088  0.4733
 7180TIP3    H142955   3.485   2.400   2.266 -1.7997  0.9987 -2.2030
 7180TIP3    H242956   3.405   2.408   2.395  0.6236 -1.8848 -0.4534
 7181TIP3   OH242957   5.035   3.518  16.719  0.0093  0.4572 -0.3898
 7181TIP3    H142958   5.087   3.575  16.775 -0.4571 -0.8126  1.3754
 7181TIP3    H242959   5.012   3.573  16.644  2.8351  1.4097 -0.6207
 7182TIP3   OH242960   0.756   5.554   2.270 -0.0212  0.5883 -0.1362
 7182TIP3    H142961   0.706   5.605   2.333 -0.9495 -1.2524  0.6761
 7182TIP3    H242962   0.838   5.534   2.315 -0.9677 -1.3240  0.8262
 7183TIP3   OH242963   2.447   3.551   2.823  0.0784 -0.3325 -0.0033
 7183TIP3    H142964   2.505   3.559   2.747 -0.9616  0.7752 -0.6904
 7183TIP3    H242965   2.458   3.633   2.870 -1.1193 -0.0183 -0.2724
 7184TIP3   OH242966   3.655   2.276   1.632  0.1238  0.1277  0.2930
 7184TIP3    H142967   3.630   2.253   1.543 -1.2565 -0.1510  0.7435
 7184TIP3    H242968   3.738   2.229   1.646 -0.8436 -1.7562 -0.0448
 7185TIP3   OH242969   3.790   0.863  16.913  0.4054  0.1466 -0.0557
 7185TIP3    H142970   3.855   0.806  16.873 -0.4367 -0.2093 -0.9582
 7185TIP3    H242971   3.776   0.933  16.849 -0.3914 -0.0075 -0.0662
 7186TIP3   OH242972   1.294   1.697  15.185  0.1943 -0.2258  0.1136
 7186TIP3    H142973   1.319   1.661  15.099 -0.8415  0.9630 -0.7029
 7186TIP3    H242974   1.288   1.620  15.242 -0.3566 -1.1746 -1.1910
 7187TIP3   OH242975   6.276   5.437   4.546  0.1404 -0.0521  0.2940
 7187TIP3    H142976   6.239   5.405   4.628  1.9336 -3.6728 -0.1714
 7187TIP3    H242977   6.199   5.462   4.493 -1.2618 -1.3145  1.6723
 7188TIP3   OH242978   6.020   1.333   4.228 -0.0121 -0.1211  0.2329
 7188TIP3    H142979   6.072   1.266   4.273 -1.5500 -0.8386  1.0103
 7188TIP3    H242980   5.998   1.396   4.297  3.0059  2.2263 -0.8803
 7189TIP3   OH242981   6.231   0.557   4.847 -0.3814  0.7086  0.2115
 7189TIP3    H142982   6.254   0.650   4.858  1.2538  0.2740  0.5058
 7189TIP3    H242983   6.144   0.559   4.807 -0.4382  2.3720  0.3799
 7190TIP3   OH242984   4.897   5.317  16.394  0.2998  0.2958  0.5660
 7190TIP3    H142985   4.825   5.257  16.417  0.9080 -0.5240  0.3663
 7190TIP3    H242986   4.971   5.259  16.377  0.8649  1.1111  0.2409
 7191TIP3   OH242987   2.700   0.955  15.161 -0.6608 -0.0752  0.1853
 7191TIP3    H142988   2.764   0.944  15.231  0.3885 -0.6441 -0.8625
 7191TIP3    H242989   2.700   0.871  15.115 -1.2315  0.3524 -0.5980
 7192TIP3   OH242990   3.615   4.551   3.033  0.0229  0.2531  0.2277
 7192TIP3    H142991   3.541   4.493   3.048  0.9732 -0.9805  0.2287
 7192TIP3    H242992   3.681   4.524   3.097  0.8621  0.6451 -0.4520
 7193TIP3   OH242993   5.808   3.157  15.759 -0.1116 -0.8093 -0.1348
 7193TIP3    H142994   5.803   3.069  15.723 -0.8764 -1.5141  1.6556
 7193TIP3    H242995   5.774   3.149  15.848  0.6894  1.1115  0.3755
 7194TIP3   OH242996   0.280   2.270   4.822  0.5126 -0.0466  0.3266
 7194TIP3    H142997   0.318   2.352   4.791  0.0711 -0.8466 -2.4514
 7194TIP3    H242998   0.214   2.297   4.886  0.2381  1.7730 -0.7003
 7195TIP3   OH242999   3.373   4.278   0.851 -0.3469  0.0419  0.0282
 7195TIP3    H143000   3.341   4.201   0.897  0.7416 -2.2544 -2.9062
 7195TIP3    H243001   3.372   4.253   0.758  0.9359  3.2202 -0.9077
 7196TIP3   OH243002   2.532   4.246  15.657  0.1170 -0.5624  0.0463
 7196TIP3    H143003   2.503   4.171  15.708  0.0914  0.2651  1.2751
 7196TIP3    H243004   2.625   4.255  15.678  0.3115 -0.7249 -0.7183
 7197TIP3   OH243005   5.671   6.624  12.264  0.7020 -0.6765 -0.6551
 7197TIP3    H143006   5.641   6.682  12.334 -0.4242 -0.7611 -1.0559
 7197TIP3    H243007   5.686   6.540  12.308  0.1183 -0.6966 -0.4921
 7198TIP3   OH243008   1.574   2.088  14.492  0.2164 -0.2845  0.1213
 7198TIP3    H143009   1.560   2.001  14.531  1.7843 -0.2651  0.7477
 7198TIP3    H243010   1.547   2.149  14.561 -0.5133 -0.2648 -0.1768
 7199TIP3   OH243011   1.329   4.698   4.274 -0.2205 -0.3258  0.1381
 7199TIP3    H143012   1.366   4.707   4.186  0.5640  1.1276  0.6071
 7199TIP3    H243013   1.401   4.716   4.333 -1.1597  0.4084  1.0792
 7200TIP3   OH243014   6.277   4.562  12.287 -0.0070  0.2227  0.0344
 7200TIP3    H143015   6.318   4.486  12.243  1.0259 -0.4116  2.0441
 7200TIP3    H243016   6.244   4.615  12.215  0.6241 -1.3719 -1.4913
 7201TIP3   OH243017   4.672   1.075  11.223  0.5825  0.2038  0.1115
 7201TIP3    H143018   4.730   1.131  11.172  0.1054  0.5059 -0.1093
 7201TIP3    H243019   4.722   1.053  11.302  0.5512  1.4540  0.4925
 7202TIP3   OH243020   3.927   4.995  11.510 -0.0242 -0.1072  0.2545
 7202TIP3    H143021   3.852   4.936  11.521  1.4602 -1.6841  2.1076
 7202TIP3    H243022   3.984   4.950  11.448  0.7541 -0.2977  1.0926
 7203TIP3   OH243023   2.015   1.272   5.690 -0.3796 -0.2127  0.1292
 7203TIP3    H143024   1.945   1.325   5.730 -0.5294 -0.3702  0.0745
 7203TIP3    H243025   2.092   1.290   5.743 -0.2432  0.6707 -0.3537
 7204TIP3   OH243026   2.747   2.794  12.062 -0.0344  0.0131  0.3808
 7204TIP3    H143027   2.800   2.871  12.081  1.3403 -1.2354  1.7112
 7204TIP3    H243028   2.799   2.744  12.000 -0.4901 -0.3138  0.2606
 7205TIP3   OH243029   4.092   5.525  11.270 -0.7050 -0.2897 -0.3015
 7205TIP3    H143030   4.114   5.559  11.357  0.2912 -1.7363  0.0238
 7205TIP3    H243031   4.082   5.431  11.283 -1.7860 -0.3540 -1.5212
 7206TIP3   OH243032   5.771   2.866  14.265 -0.7586 -0.4002  0.2277
 7206TIP3    H143033   5.727   2.865  14.350 -0.1216 -2.0314  0.5677
 7206TIP3    H243034   5.858   2.902  14.283 -0.4861 -1.1064  0.3566
 7207TIP3   OH243035   1.004   4.582   0.934  0.2068  0.3016 -0.2622
 7207TIP3    H143036   1.054   4.614   1.008  0.4985  0.9077 -0.7230
 7207TIP3    H243037   0.999   4.487   0.948 -0.5919  0.5164  1.0539
 7208TIP3   OH243038   3.252   3.278  10.728  0.1500  0.3150  0.4195
 7208TIP3    H143039   3.220   3.361  10.693 -3.1210 -0.3940  1.5930
 7208TIP3    H243040   3.244   3.216  10.655 -0.7526  0.2502  0.5676
 7209TIP3   OH243041   5.878   2.848   1.691 -0.4436  0.3239  0.0073
 7209TIP3    H143042   5.959   2.839   1.641 -0.9178 -1.9227 -0.4331
 7209TIP3    H243043   5.903   2.825   1.780 -0.1826  1.6220  0.2771
 7210TIP3   OH243044   1.448   1.344   4.173  0.0420 -0.3937  0.3169
 7210TIP3    H143045   1.379   1.410   4.178 -0.7979 -1.2622  0.4887
 7210TIP3    H243046   1.528   1.390   4.199 -0.6046  0.4409  0.8427
 7211TIP3   OH243047   5.415   5.919  15.513  0.0234 -0.1026 -0.1966
 7211TIP3    H143048   5.401   5.851  15.579 -0.2623  0.5455  0.4187
 7211TIP3    H243049   5.411   5.873  15.429  1.0032 -1.0427  0.2573
 7212TIP3   OH243050   1.851   4.403   5.876 -0.0501  0.6626 -0.3084
 7212TIP3    H143051   1.821   4.392   5.786  2.3445 -1.2907 -0.9087
 7212TIP3    H243052   1.897   4.487   5.876  0.0672  0.6016 -0.9559
 7213TIP3   OH243053   1.795   4.269  16.823 -0.4962 -0.0316  0.8309
 7213TIP3    H143054   1.754   4.250  16.738 -0.5648  0.0581  0.8457
 7213TIP3    H243055   1.848   4.347  16.807 -2.0763  1.1750  1.3595
 7214TIP3   OH243056   5.360   0.506   5.271  0.4072 -0.8600 -0.7623
 7214TIP3    H143057   5.439   0.470   5.233  0.7691 -0.9926  0.1119
 7214TIP3    H243058   5.373   0.601   5.268  0.8350 -0.8996 -0.1092
 7215TIP3   OH243059   5.190   5.199  16.292 -0.0544 -0.3649 -0.2074
 7215TIP3    H143060   5.238   5.213  16.374 -2.7389  0.6033  1.2759
 7215TIP3    H243061   5.170   5.288  16.261 -0.2920 -0.7406 -1.1439
 7216TIP3   OH243062   4.876   3.147   3.771  0.6525 -0.8204 -0.1776
 7216TIP3    H143063   4.844   3.057   3.762 -1.9618  0.0376  0.1171
 7216TIP3    H243064   4.865   3.167   3.864 -1.6220  0.7731 -0.7454
 7217TIP3   OH243065   2.290   0.517   4.258 -0.3042 -0.4672  0.0967
 7217TIP3    H143066   2.229   0.553   4.193  0.2540 -0.1383 -0.2496
 7217TIP3    H243067   2.328   0.441   4.214  0.6939  0.2444 -0.2792
 7218TIP3   OH243068   0.428   1.625  12.208 -0.1668  0.6386  1.1128
 7218TIP3    H143069   0.360   1.692  12.203  0.8738  1.5983 -1.0600
 7218TIP3    H243070   0.449   1.618  12.301 -1.5519  2.0412  1.5385
 7219TIP3   OH243071   1.590   0.125  12.392 -0.1112  0.3165 -0.2190
 7219TIP3    H143072   1.603   0.055  12.457  1.4890 -0.7385 -1.6436
 7219TIP3    H243073   1.518   0.094  12.338 -2.2273  1.7202  1.6994
 7220TIP3   OH243074   6.323   6.243   1.126  0.5442  0.2357  0.0037
 7220TIP3    H143075   6.375   6.286   1.057  1.6727  0.1888  0.8079
 7220TIP3    H243076   6.296   6.161   1.086 -0.8716  1.2607 -1.2333
 7221TIP3   OH243077   6.513   3.235  11.965 -0.5025  0.3701 -0.2456
 7221TIP3    H143078   6.521   3.241  11.870  1.8537  1.3776 -0.0055
 7221TIP3    H243079   6.426   3.270  11.984 -1.5967 -1.2168 -2.1262
 7222TIP3   OH243080   3.066   1.591  14.840  0.1129  0.3530  1.0235
 7222TIP3    H143081   3.094   1.555  14.924  0.5014 -0.1119  0.6975
 7222TIP3    H243082   3.147   1.605  14.791 -0.0429  1.6679  1.1382
 7223TIP3   OH243083   1.992   1.358   5.052 -0.4018 -0.5783 -0.3809
 7223TIP3    H143084   1.965   1.394   5.137 -1.4620 -0.9895 -0.5500
 7223TIP3    H243085   2.035   1.431   5.008 -0.0576 -0.2939  0.4126
 7224TIP3   OH243086   3.548   0.320  15.013  0.0218 -0.2238  0.0624
 7224TIP3    H143087   3.623   0.359  15.056 -0.9336  2.8313 -0.9398
 7224TIP3    H243088   3.535   0.372  14.934 -0.3569 -3.5592 -2.1979
 7225TIP3   OH243089   0.004   1.416  17.166  0.4141 -0.0559  0.3138
 7225TIP3    H143090   0.009   1.411  17.071  0.6373 -2.0207  0.4108
 7225TIP3    H243091   0.058   1.343  17.197 -1.4048 -0.7566  1.9089
 7226TIP3   OH243092   3.275   3.881  12.791  0.1051 -0.0541 -0.2947
 7226TIP3    H143093   3.334   3.807  12.780  3.0560  2.0718  0.4858
 7226TIP3    H243094   3.294   3.937  12.715 -1.5810  0.2495 -0.5104
 7227TIP3   OH243095   1.334   3.610  15.009 -0.0801 -0.0968  0.1142
 7227TIP3    H143096   1.261   3.600  15.070 -0.9940  1.1882 -0.7601
 7227TIP3    H243097   1.307   3.678  14.948  2.2163  1.0593  0.3181
 7228TIP3   OH243098   4.132   3.784   5.483  0.3323 -0.6856  0.5993
 7228TIP3    H143099   4.160   3.695   5.503  0.4963 -0.9832 -0.9450
 7228TIP3    H243100   4.184   3.839   5.542  0.8116 -1.5447  0.9873
 7229TIP3   OH243101   1.119   2.645   0.330  0.4096 -0.0837 -0.2467
 7229TIP3    H143102   1.096   2.680   0.416 -2.2230  0.1311 -1.0088
 7229TIP3    H243103   1.213   2.664   0.321  0.4249  1.0735  2.0067
 7230TIP3   OH243104   6.214   2.833  11.953 -0.2622 -0.3920  0.0129
 7230TIP3    H143105   6.187   2.741  11.955 -1.0751 -0.1329  0.9890
 7230TIP3    H243106   6.308   2.830  11.933 -0.4666 -1.3917 -0.8669
 7231TIP3   OH243107   0.396   3.162  16.351  1.0864 -0.6476 -0.6979
 7231TIP3    H143108   0.411   3.102  16.277 -1.4925 -2.1163 -0.0864
 7231TIP3    H243109   0.365   3.106  16.421  0.5270  1.1790  0.5396
 7232TIP3   OH243110   5.365   0.207   6.436  0.1732 -0.0158  0.1002
 7232TIP3    H143111   5.390   0.119   6.465 -0.8610 -0.3840 -0.1108
 7232TIP3    H243112   5.416   0.266   6.491  0.3535 -0.7398  0.7149
 7233TIP3   OH243113   1.118   1.333   0.208 -0.1000 -0.2764 -0.2617
 7233TIP3    H143114   1.205   1.307   0.180  0.1109  0.3537 -0.1998
 7233TIP3    H243115   1.120   1.325   0.304 -0.7571 -2.2341 -0.3951
 7234TIP3   OH243116   4.796   5.274   1.939 -0.0035 -0.0321 -0.1156
 7234TIP3    H143117   4.817   5.216   1.865  0.8104  1.3943 -1.0267
 7234TIP3    H243118   4.881   5.309   1.967 -0.7693  3.4418 -1.8703
 7235TIP3   OH243119   4.891   0.633  13.844 -0.2630 -0.2246  0.2375
 7235TIP3    H143120   4.984   0.638  13.822 -0.7355 -1.3220 -2.1546
 7235TIP3    H243121   4.886   0.572  13.917  0.9319  0.2749  0.7494
 7236TIP3   OH243122   2.860   2.914   5.563 -0.0647 -0.4115  0.4413
 7236TIP3    H143123   2.944   2.928   5.608 -1.1925  1.2475  2.0730
 7236TIP3    H243124   2.818   2.843   5.611  0.4557 -1.3719 -0.4923
 7237TIP3   OH243125   0.048   4.557  14.394  0.1085  0.3750 -0.3131
 7237TIP3    H143126   0.048   4.528  14.485  0.1781  1.4435  0.0387
 7237TIP3    H243127  -0.011   4.496  14.350 -1.2706  0.8855  0.7872
 7238TIP3   OH243128   5.867   3.625  16.427 -0.2502 -0.2318 -0.2150
 7238TIP3    H143129   5.797   3.682  16.459  0.4677  0.3373  0.3893
 7238TIP3    H243130   5.890   3.571  16.503 -1.1018 -1.5181 -0.8517
 7239TIP3   OH243131   2.419   4.937   2.745 -0.2119 -0.5844  0.4462
 7239TIP3    H143132   2.463   5.013   2.783  0.1755 -0.7617  0.3443
 7239TIP3    H243133   2.489   4.879   2.718 -0.3171  0.9537 -3.5454
 7240TIP3   OH243134   4.403   4.745  12.878  0.4458 -0.4047 -0.1675
 7240TIP3    H143135   4.357   4.707  12.952  0.5207 -1.1928 -0.5126
 7240TIP3    H243136   4.492   4.710  12.884 -0.3929 -3.2333 -2.4859
 7241TIP3   OH243137   3.072   6.424   2.338 -0.4611 -0.6272 -0.8924
 7241TIP3    H143138   3.117   6.474   2.406  0.8132 -0.1705 -2.0441
 7241TIP3    H243139   2.999   6.382   2.383  0.5788 -0.6292  0.8401
 7242TIP3   OH243140   0.171   0.476   4.597 -0.5592 -0.2974  0.6282
 7242TIP3    H143141   0.150   0.482   4.504  0.7382  0.2653  0.3552
 7242TIP3    H243142   0.124   0.399   4.628 -0.3597 -0.9463 -0.6695
 7243TIP3   OH243143   1.805   1.948   0.188  0.1872  0.1060  0.4859
 7243TIP3    H143144   1.805   1.875   0.126  2.0970  0.8229 -0.4038
 7243TIP3    H243145   1.746   2.012   0.148 -0.2881 -0.3281  0.4913
 7244TIP3   OH243146   4.273   0.340   2.867 -0.3509 -0.0926 -0.2304
 7244TIP3    H143147   4.305   0.423   2.902 -1.3608 -0.2874  1.1984
 7244TIP3    H243148   4.223   0.365   2.788  1.8234  0.3568 -1.5089
 7245TIP3   OH243149   5.848   2.492   1.902  0.0098 -0.1852 -0.2083
 7245TIP3    H143150   5.793   2.568   1.919  0.1672  0.2748 -1.7450
 7245TIP3    H243151   5.824   2.463   1.815  0.7961 -1.1839 -0.1096
 7246TIP3   OH243152   6.153   0.908   5.762 -0.3112  0.6234 -0.7932
 7246TIP3    H143153   6.076   0.857   5.787 -1.0941  1.4710 -1.4214
 7246TIP3    H243154   6.176   0.957   5.842  0.4506 -0.6972 -0.1891
 7247TIP3   OH243155   5.112   4.771   5.702 -0.9781  0.0510  0.1606
 7247TIP3    H143156   5.137   4.862   5.715 -1.6942  0.0703  1.4953
 7247TIP3    H243157   5.170   4.740   5.632  0.7498  0.9123  1.1612
 7248TIP3   OH243158   4.511   5.072   4.062 -0.2702  0.0149 -0.1169
 7248TIP3    H143159   4.422   5.035   4.061 -0.1200 -0.4743  1.6418
 7248TIP3    H243160   4.513   5.127   4.140  1.0445 -0.1733  0.0010
 7249TIP3   OH243161   3.326   2.652  14.849 -0.0109  0.2056 -0.0339
 7249TIP3    H143162   3.370   2.585  14.901  3.0394  2.7305  0.7683
 7249TIP3    H243163   3.340   2.626  14.758  0.4209 -0.6439  0.2686
 7250TIP3   OH243164   2.496   2.184   2.039 -0.2413  0.4364 -0.5896
 7250TIP3    H143165   2.407   2.151   2.048 -1.0321  2.1581 -1.7975
 7250TIP3    H243166   2.530   2.186   2.128 -2.0471  1.4244  0.1144
 7251TIP3   OH243167   6.505   3.942  13.482  0.4406  0.4775  0.3586
 7251TIP3    H143168   6.554   3.865  13.512  1.5488  1.0363 -0.0032
 7251TIP3    H243169   6.498   3.931  13.387 -0.4038  0.2581  0.4365
 7252TIP3   OH243170   1.512   4.891   5.756 -0.2730 -0.2442 -0.4679
 7252TIP3    H143171   1.504   4.939   5.674 -0.6142 -0.1112 -0.3545
 7252TIP3    H243172   1.558   4.951   5.815 -3.7890  1.3527  0.8057
 7253TIP3   OH243173   4.016   0.915   6.021 -0.5852  0.0272  0.3740
 7253TIP3    H143174   4.056   0.833   6.051  0.0574 -0.2880 -1.2693
 7253TIP3    H243175   3.925   0.892   6.002 -0.4022 -0.3115 -0.0957
 7254TIP3   OH243176   2.302   6.307  11.835 -0.6515  1.0255  0.4555
 7254TIP3    H143177   2.307   6.298  11.740  0.7007  0.6826  0.5363
 7254TIP3    H243178   2.234   6.246  11.861 -0.0546  0.0621 -0.1819
 7255TIP3   OH243179   5.775   4.315  16.070  0.5938 -0.0484  0.1417
 7255TIP3    H143180   5.712   4.342  16.137 -1.4518 -0.4894 -1.5410
 7255TIP3    H243181   5.854   4.294  16.119 -0.5591  0.4875  2.3288
 7256TIP3   OH243182   4.649   4.929  13.020 -0.0946  0.6423 -0.1509
 7256TIP3    H143183   4.735   4.934  13.062  0.2937  0.5661 -0.9347
 7256TIP3    H243184   4.625   4.837  13.025  0.0025  0.6144 -0.1884
 7257TIP3   OH243185   3.588   3.262   3.246 -0.3132 -0.4685 -0.2573
 7257TIP3    H143186   3.551   3.282   3.331  0.5677  0.0072  0.0172
 7257TIP3    H243187   3.547   3.179   3.221 -0.6670 -0.5434  0.5637
 7258TIP3   OH243188   4.542   0.815   6.255  0.1196  0.1339  0.4372
 7258TIP3    H143189   4.575   0.890   6.207 -0.6924  0.4355  0.3382
 7258TIP3    H243190   4.581   0.739   6.212  1.3527  0.5205  0.8647
 7259TIP3   OH243191   3.371   5.687   3.046  0.7627  0.2029 -0.1073
 7259TIP3    H143192   3.303   5.723   2.988 -0.6327 -1.7683  0.2443
 7259TIP3    H243193   3.333   5.694   3.134  2.0430  1.3237  0.3748
 7260TIP3   OH243194   6.505   2.058   2.199  0.1364  0.4588  0.0476
 7260TIP3    H143195   6.487   2.120   2.128 -0.1679  0.4238  0.0961
 7260TIP3    H243196   6.590   2.020   2.176  0.2065  0.7078 -0.1138
 7261TIP3   OH243197   6.322   2.434   1.941 -0.2346  0.3912 -0.1484
 7261TIP3    H143198   6.273   2.501   1.894  0.5267  1.4886  0.5871
 7261TIP3    H243199   6.411   2.468   1.947 -0.0488 -0.2512  1.0524
 7262TIP3   OH243200   0.227   3.510   5.346 -0.1142  0.2501 -0.1998
 7262TIP3    H143201   0.277   3.542   5.422  1.1315  0.6343 -1.1451
 7262TIP3    H243202   0.145   3.558   5.350 -0.7389 -0.9263  1.8083
 7263TIP3   OH243203   5.592   2.685   2.440 -0.3429 -0.2936 -0.5082
 7263TIP3    H143204   5.511   2.701   2.488 -0.6120 -0.3983 -0.9226
 7263TIP3    H243205   5.631   2.609   2.481  0.6284  1.0298  1.0833
 7264TIP3   OH243206   3.054   0.299  17.136 -0.1371  0.6728 -0.1274
 7264TIP3    H143207   3.141   0.327  17.165 -0.5804 -1.3877  3.5069
 7264TIP3    H243208   3.070   0.257  17.051  1.9312  3.0134 -0.9539
 7265TIP3   OH243209   2.468   4.504   3.706  0.1756  0.1024  0.1088
 7265TIP3    H143210   2.545   4.458   3.672  0.7058  1.1895 -0.1742
 7265TIP3    H243211   2.404   4.434   3.722  0.5485 -0.6240 -1.4274
 7266TIP3   OH243212   2.900   4.878   5.302 -0.3189 -0.2805 -0.0603
 7266TIP3    H143213   2.841   4.863   5.376 -2.2527  3.2457 -0.7725
 7266TIP3    H243214   2.897   4.796   5.252 -1.9537 -1.3597  1.7341
 7267TIP3   OH243215   1.517   0.299   1.675  0.1727  0.4347 -0.0553
 7267TIP3    H143216   1.511   0.283   1.770 -2.1618  1.1126 -0.0737
 7267TIP3    H243217   1.499   0.214   1.635  0.3090  0.3425  0.0758
 7268TIP3   OH243218   5.626   3.167  16.028 -0.5083  0.1448  0.5683
 7268TIP3    H143219   5.539   3.149  15.992 -0.5139 -0.4057  0.8551
 7268TIP3    H243220   5.612   3.237  16.092 -0.2697  2.2726 -1.5955
 7269TIP3   OH243221   0.375   0.680   1.874 -0.0869  0.3826  0.5765
 7269TIP3    H143222   0.361   0.757   1.929 -0.2956  0.4460  0.4320
 7269TIP3    H243223   0.444   0.706   1.814  0.4383  0.1727  1.0839
 7270TIP3   OH243224   2.735   6.190  14.207 -0.6803 -0.2684 -0.2396
 7270TIP3    H143225   2.708   6.182  14.299  0.5073 -0.0292  0.1311
 7270TIP3    H243226   2.822   6.152  14.203 -0.9330 -0.7559 -1.3866
 7271TIP3   OH243227   4.793   3.922  17.061  0.3382 -0.6063  0.6071
 7271TIP3    H143228   4.875   3.875  17.047  0.3023 -0.1503 -1.2197
 7271TIP3    H243229   4.807   4.008  17.020 -1.2968 -0.7893 -0.3715
 7272TIP3   OH243230   3.952   6.742   2.053  0.1728 -0.5049  0.1103
 7272TIP3    H143231   3.989   6.812   2.107 -1.2519  0.5746 -0.2877
 7272TIP3    H243232   4.025   6.682   2.039  1.1129  0.3034  1.4328
 7273TIP3   OH243233   3.227   0.783   2.159 -0.0638  0.2871 -0.3537
 7273TIP3    H143234   3.166   0.744   2.096  0.9246  0.1111 -1.2125
 7273TIP3    H243235   3.275   0.708   2.195 -0.2684  0.4362  0.2343
 7274TIP3   OH243236   0.288   3.823  16.717 -0.7533 -0.3227 -0.2083
 7274TIP3    H143237   0.263   3.731  16.727 -0.3235 -0.5080 -0.8694
 7274TIP3    H243238   0.217   3.862  16.666 -1.4847 -0.0303  0.9957
 7275TIP3   OH243239   5.924   4.704   4.195 -0.1876  0.1890 -0.4507
 7275TIP3    H143240   5.976   4.784   4.206  0.8340 -0.5401  0.1075
 7275TIP3    H243241   5.892   4.708   4.105  1.4810  0.2764 -1.0617
 7276TIP3   OH243242   1.645   3.787  11.090  0.2551  0.3447  0.9889
 7276TIP3    H143243   1.564   3.839  11.095  0.2873  0.3458  1.5300
 7276TIP3    H243244   1.712   3.850  11.064  0.2096  0.4887  1.2169
 7277TIP3   OH243245   2.206   2.007   5.674 -0.1925 -0.1184  0.1981
 7277TIP3    H143246   2.134   2.018   5.737  1.2302 -1.0871  2.0608
 7277TIP3    H243247   2.260   2.085   5.687 -0.6662  0.3871 -0.8712
 7278TIP3   OH243248   0.401   1.478  13.372  0.7224  0.1418  0.0661
 7278TIP3    H143249   0.368   1.568  13.377 -0.7739 -0.3712 -0.1431
 7278TIP3    H243250   0.332   1.425  13.411  1.5379 -0.9381  0.0696
 7279TIP3   OH243251   6.128   4.733  10.649 -0.4076 -0.2396 -0.0244
 7279TIP3    H143252   6.040   4.741  10.614 -0.8650  0.5562  1.2854
 7279TIP3    H243253   6.157   4.823  10.664  0.4419 -0.5114 -0.0186
 7280TIP3   OH243254   0.010   0.224   3.198  0.0785  0.0609  0.2257
 7280TIP3    H143255   0.077   0.164   3.232  1.1823  0.3937 -1.3110
 7280TIP3    H243256   0.020   0.220   3.103 -1.3523  0.9704  0.0242
 7281TIP3   OH243257   1.004   0.083   1.131  0.3875  0.3181  0.7838
 7281TIP3    H143258   0.936   0.145   1.155  2.6869  2.3516  2.2647
 7281TIP3    H243259   1.075   0.136   1.096  1.4066 -1.7147 -0.3557
 7282TIP3   OH243260   4.237   1.343  11.806  0.4627 -0.0293 -0.1317
 7282TIP3    H143261   4.332   1.343  11.794  0.8716  0.7930  2.7631
 7282TIP3    H243262   4.204   1.397  11.734  2.3860  1.4853  0.0721
 7283TIP3   OH243263   6.663   6.088   5.871  0.5366 -0.0216  0.1830
 7283TIP3    H143264   6.570   6.099   5.851  0.0693 -0.4018  2.0037
 7283TIP3    H243265   6.704   6.169   5.842 -0.0663 -0.5670 -2.2867
 7284TIP3   OH243266   4.152   1.574  14.931  0.3400 -0.1168  0.1574
 7284TIP3    H143267   4.076   1.545  14.981  0.1755 -0.1751 -0.1261
 7284TIP3    H243268   4.178   1.656  14.973 -0.6851  0.5953 -0.5599
 7285TIP3   OH243269   2.366   0.646  12.689 -0.0223  0.0885 -0.2929
 7285TIP3    H143270   2.313   0.675  12.763  1.0918  2.6642 -0.4586
 7285TIP3    H243271   2.323   0.684  12.613  0.9837  0.6479 -0.5954
 7286TIP3   OH243272   1.872   3.537  13.917  0.4371  0.1088  0.9859
 7286TIP3    H143273   1.906   3.458  13.876  0.2709  0.7272 -0.3875
 7286TIP3    H243274   1.844   3.592  13.843 -0.7985  0.8365  1.9688
 7287TIP3   OH243275   2.534   6.500  12.906  0.2284  0.1261  0.4804
 7287TIP3    H143276   2.493   6.517  12.821 -0.7127  3.3892  1.5053
 7287TIP3    H243277   2.626   6.485  12.886 -0.1126  0.1970 -1.1822
 7288TIP3   OH243278   2.969   4.667   0.299 -0.1325  0.7787  0.5450
 7288TIP3    H143279   3.055   4.645   0.264  0.7245  0.7537  2.5687
 7288TIP3    H243280   2.935   4.734   0.240  1.1789  0.6243 -0.4041
 7289TIP3   OH243281   0.504   5.327  16.912  0.3560 -0.4536 -0.8172
 7289TIP3    H143282   0.570   5.384  16.871 -1.3522  0.2076 -2.7381
 7289TIP3    H243283   0.506   5.247  16.859  0.6384 -1.0007  0.0211
 7290TIP3   OH243284   6.748   4.237   6.016 -0.0529  0.7638  0.0231
 7290TIP3    H143285   6.813   4.177   5.981 -1.1244 -0.3078 -0.1478
 7290TIP3    H243286   6.785   4.267   6.100  1.1407  1.0234 -0.5852
 7291TIP3   OH243287   6.241   1.417   4.070 -0.0026  0.1857  0.3375
 7291TIP3    H143288   6.205   1.364   4.141 -1.8905  0.6157 -0.2824
 7291TIP3    H243289   6.180   1.489   4.059  0.2322  0.1153 -1.7364
 7292TIP3   OH243290   0.799   6.175  11.283  0.2794  0.3724 -0.2882
 7292TIP3    H143291   0.799   6.091  11.237  0.0981 -0.0829  0.5302
 7292TIP3    H243292   0.852   6.233  11.229 -0.1140 -0.0975 -1.1741
 7293TIP3   OH243293   3.774   3.148   1.243  0.1581  0.0081 -0.5019
 7293TIP3    H143294   3.815   3.087   1.182 -0.1629  2.1935 -2.9877
 7293TIP3    H243295   3.693   3.105   1.269 -1.0531  0.1349 -3.7836
 7294TIP3   OH243296   4.955   3.432   0.315  0.7761  0.0991 -0.6536
 7294TIP3    H143297   4.954   3.525   0.292  0.4190 -0.2061 -1.8861
 7294TIP3    H243298   5.007   3.428   0.395 -0.6844  1.5852  0.4023
 7295TIP3   OH243299   5.515   4.088  12.303  0.3691  0.2328 -0.5379
 7295TIP3    H143300   5.564   4.115  12.225  0.6922 -0.1675 -0.4721
 7295TIP3    H243301   5.427   4.069  12.270  0.1893  1.1623 -0.6182
 7296TIP3   OH243302   0.242   1.246   0.339 -0.2040  0.2092 -0.1647
 7296TIP3    H143303   0.252   1.269   0.246 -0.6955  0.8262 -0.0700
 7296TIP3    H243304   0.235   1.151   0.339 -0.2918  0.2100 -0.7770
 7297TIP3   OH243305   4.956   2.658   4.427  0.1243 -0.1098  0.1072
 7297TIP3    H143306   4.862   2.655   4.443  0.3611 -0.9983  1.4541
 7297TIP3    H243307   4.970   2.604   4.349 -0.1804 -2.2703  1.5222
 7298TIP3   OH243308   3.990   5.520   1.837  0.2154  0.6481 -0.4987
 7298TIP3    H143309   3.932   5.448   1.815  0.1279  0.8258 -0.8570
 7298TIP3    H243310   4.051   5.525   1.763 -0.3344  1.5156 -0.9053
 7299TIP3   OH243311   6.177   0.899   2.262 -0.2960  0.5134  0.1902
 7299TIP3    H143312   6.111   0.917   2.329 -0.5651 -0.2461  0.1325
 7299TIP3    H243313   6.178   0.978   2.208 -1.8996  0.1176 -0.4253
 7300TIP3   OH243314   1.059   6.619  12.625 -0.2981  0.6746 -0.1814
 7300TIP3    H143315   1.097   6.706  12.608  2.6868 -0.0823  2.1183
 7300TIP3    H243316   0.986   6.636  12.684  0.2364  1.6732  0.2199
 7301TIP3   OH243317   4.771   6.150  12.562  0.6141 -0.3348 -0.5436
 7301TIP3    H143318   4.699   6.119  12.507 -0.3954 -1.2902  1.2685
 7301TIP3    H243319   4.730   6.171  12.646  1.8336  2.7215 -0.6424
 7302TIP3   OH243320   2.153   2.980   5.368 -0.3366  0.2338  0.3391
 7302TIP3    H143321   2.066   2.989   5.328 -0.8363  0.0256  1.3544
 7302TIP3    H243322   2.162   2.887   5.386 -0.5888  0.4645  1.7282
 7303TIP3   OH243323   4.547   1.518  12.584 -0.1975  0.2986  0.4583
 7303TIP3    H143324   4.606   1.444  12.595  0.3017  0.7821  1.0979
 7303TIP3    H243325   4.463   1.487  12.618 -0.0578 -0.0624  0.4762
 7304TIP3   OH243326   4.038   1.168  16.070 -0.0734  0.3584  0.0713
 7304TIP3    H143327   3.980   1.190  16.143 -0.2214 -0.4682  0.2073
 7304TIP3    H243328   4.108   1.115  16.110  1.6775  2.7032  0.2027
 7305TIP3   OH243329   2.146   0.316  13.984 -0.1952 -0.7859  0.2864
 7305TIP3    H143330   2.075   0.268  13.944 -0.6042  0.8587 -1.0027
 7305TIP3    H243331   2.223   0.261  13.970 -0.6757 -1.1387 -1.0409
 7306TIP3   OH243332   6.507   2.812  11.918 -0.7534 -0.1284  0.0837
 7306TIP3    H143333   6.536   2.879  11.856  0.5537  0.2251  1.0711
 7306TIP3    H243334   6.529   2.729  11.875 -2.7456  0.0282 -1.3266
 7307TIP3   OH243335   5.558   5.093  12.815  0.1476 -0.0493 -0.1515
 7307TIP3    H143336   5.586   5.058  12.899  0.1847  0.1284 -0.0890
 7307TIP3    H243337   5.529   5.017  12.765 -1.5452  0.0473  0.6537
 7308TIP3   OH243338   0.545   2.222   4.111 -0.6545 -0.6684  0.2305
 7308TIP3    H143339   0.593   2.273   4.046 -0.6393 -1.5335 -0.4611
 7308TIP3    H243340   0.532   2.136   4.069 -0.1622 -1.4240  1.5870
 7309TIP3   OH243341   0.594   6.263  15.953 -0.1680 -0.4485 -0.4516
 7309TIP3    H143342   0.625   6.202  16.019  0.5413  1.4913  1.0662
 7309TIP3    H243343   0.650   6.340  15.964 -3.1083  1.7304 -0.0951
 7310TIP3   OH243344   4.365   6.079  16.212  0.3969  0.2496 -0.4684
 7310TIP3    H143345   4.388   6.069  16.304  0.8010  0.7061 -0.5182
 7310TIP3    H243346   4.332   6.168  16.205 -0.1503  0.0332 -0.6602
 7311TIP3   OH243347   6.400   5.190   1.396  0.2135  0.0138 -0.1869
 7311TIP3    H143348   6.465   5.246   1.438 -1.4819  0.5860  1.7865
 7311TIP3    H243349   6.448   5.111   1.373  1.4720  0.1016  1.9507
 7312TIP3   OH243350   4.149   1.441   4.078 -0.3167 -0.1429  0.1364
 7312TIP3    H143351   4.199   1.359   4.085 -1.6194 -0.7969  2.6510
 7312TIP3    H243352   4.086   1.436   4.150 -1.1325  2.6144 -0.3365
 7313TIP3   OH243353   2.328   6.780   2.897 -0.4178  0.2855 -1.0054
 7313TIP3    H143354   2.411   6.828   2.894 -0.7557  0.8140 -2.1821
 7313TIP3    H243355   2.279   6.822   2.969  0.7288 -0.7154  0.3844
 7314TIP3   OH243356   6.162   5.699  12.468  0.4765 -0.3765  0.0509
 7314TIP3    H143357   6.127   5.675  12.382 -0.9091  2.8718 -0.3444
 7314TIP3    H243358   6.255   5.675  12.463  0.0297 -1.8402 -1.7166
 7315TIP3   OH243359   6.647   0.519   0.487 -0.5507  0.5014 -0.2049
 7315TIP3    H143360   6.694   0.579   0.545 -0.5311  1.8610 -1.5746
 7315TIP3    H243361   6.576   0.573   0.451 -0.0159 -0.0344 -2.1315
 7316TIP3   OH243362   5.347   1.510  15.210  0.2879  0.6567  0.3422
 7316TIP3    H143363   5.321   1.495  15.120  1.4991 -0.2040  0.1309
 7316TIP3    H243364   5.304   1.592  15.234 -0.8431  0.3711 -0.6891
 7317TIP3   OH243365   1.240   2.759  11.295  0.1823  0.1773  0.1479
 7317TIP3    H143366   1.177   2.780  11.225 -0.3914  3.2556  1.5290
 7317TIP3    H243367   1.323   2.748  11.249 -0.4192  0.9388 -1.1673
 7318TIP3   OH243368   2.359   1.984  13.053 -0.1977  0.1260  0.2069
 7318TIP3    H143369   2.380   2.076  13.044 -0.0518  0.1047  0.3356
 7318TIP3    H243370   2.443   1.940  13.065 -0.3502  0.1169  1.3220
 7319TIP3   OH243371   4.651   4.059   3.922 -0.5959 -0.1964  0.5812
 7319TIP3    H143372   4.686   4.062   3.833  1.7938 -0.5214  1.4620
 7319TIP3    H243373   4.573   4.004   3.916 -1.2643  0.9295 -1.5437
 7320TIP3   OH243374   5.030   1.320  16.098  0.3954 -0.4958 -0.3743
 7320TIP3    H143375   4.981   1.304  16.179  1.5498  0.3461  0.5115
 7320TIP3    H243376   4.991   1.398  16.060  0.3111 -0.4869 -0.2680
 7321TIP3   OH243377   3.894   3.972   4.513  0.2080  0.1490  0.4494
 7321TIP3    H143378   3.919   3.923   4.435 -2.3616 -0.0356 -0.3288
 7321TIP3    H243379   3.919   3.915   4.586  1.8988 -0.0398 -0.2604
 7322TIP3   OH243380   5.717   2.883  15.771 -0.0198 -0.4935  0.3567
 7322TIP3    H143381   5.780   2.812  15.779 -1.3222 -1.6309  0.5414
 7322TIP3    H243382   5.666   2.880  15.852  0.6456  1.3833  0.8916
 7323TIP3   OH243383   5.010   3.976   1.074 -0.1073  0.3286 -0.7946
 7323TIP3    H143384   4.946   4.016   1.014 -0.2967 -0.1727 -0.9275
 7323TIP3    H243385   5.031   4.046   1.136 -1.3773  0.2652 -0.2737
 7324TIP3   OH243386   3.042   0.593   0.524  0.5054  0.2893  0.5278
 7324TIP3    H143387   2.983   0.538   0.473  1.6451 -0.1710 -0.3125
 7324TIP3    H243388   3.095   0.532   0.575  2.9468  0.4481 -1.6835
 7325TIP3   OH243389   2.051   6.470  13.689 -0.3972  0.2610 -0.2149
 7325TIP3    H143390   2.045   6.383  13.728 -0.7115  0.0191 -0.8045
 7325TIP3    H243391   2.014   6.529  13.755 -0.1726 -0.0473  0.1883
 7326TIP3   OH243392   5.373   2.941  16.802  0.2313 -0.1796  0.1849
 7326TIP3    H143393   5.381   3.035  16.817  0.5060 -0.4796  1.9723
 7326TIP3    H243394   5.368   2.903  16.889  0.3307 -1.8500 -0.5244
 7327TIP3   OH243395   1.566   3.522   2.795 -0.0368 -0.0429  0.5861
 7327TIP3    H143396   1.639   3.502   2.737 -0.0876 -0.0197  0.5142
 7327TIP3    H243397   1.564   3.450   2.857  0.2140  0.0888  0.7496
 7328TIP3   OH243398   2.877   5.464   3.316 -0.4303  0.1321  0.4450
 7328TIP3    H143399   2.854   5.371   3.323 -2.3089  0.5794  0.3287
 7328TIP3    H243400   2.935   5.468   3.240 -0.4921 -0.9249  0.3289
 7329TIP3   OH243401   2.508   6.310  15.451  0.3493 -0.1942 -0.0811
 7329TIP3    H143402   2.529   6.341  15.539  0.7489  0.8838 -0.5372
 7329TIP3    H243403   2.587   6.326  15.400  0.1299 -0.8322 -0.6269
 7330TIP3   OH243404   2.141   3.309   5.725  0.2457  0.2062 -0.4449
 7330TIP3    H143405   2.198   3.385   5.716 -2.1573  2.0773 -0.2041
 7330TIP3    H243406   2.165   3.252   5.651  0.7867  2.0287 -1.6918
 7331TIP3   OH243407   0.303   0.701  12.915  0.0857  0.2661 -0.2112
 7331TIP3    H143408   0.372   0.735  12.972  0.6389  1.0569 -1.3359
 7331TIP3    H243409   0.319   0.606  12.913  0.9534  0.4028 -0.1996
 7332TIP3   OH243410   5.879   1.586   6.068 -0.3864  1.3146 -0.1976
 7332TIP3    H143411   5.914   1.518   6.010  0.4654  0.8477  0.8377
 7332TIP3    H243412   5.925   1.572   6.151 -2.0621  1.5379  0.7955
 7333TIP3   OH243413   5.884   3.705  14.766  0.5344 -0.4598  0.8898
 7333TIP3    H143414   5.909   3.618  14.797 -2.7346 -3.0313 -3.1037
 7333TIP3    H243415   5.798   3.720  14.805 -0.3126 -0.4606 -0.9600
 7334TIP3   OH243416   2.384   5.187  14.543  0.2277  0.2939  0.1782
 7334TIP3    H143417   2.344   5.212  14.459  1.9915 -0.4608 -0.9180
 7334TIP3    H243418   2.406   5.094  14.532 -1.0257 -0.2578  2.1054
 7335TIP3   OH243419   6.733   3.444  12.732  0.2619  0.0255  0.2145
 7335TIP3    H143420   6.715   3.500  12.807 -0.0674 -0.0851  0.2183
 7335TIP3    H243421   6.776   3.502  12.669 -0.3422  0.3566  0.1007
 7336TIP3   OH243422   5.321   3.625  16.076  0.0100 -0.8683 -0.0301
 7336TIP3    H143423   5.270   3.641  16.155 -0.9370 -2.1815 -0.3565
 7336TIP3    H243424   5.293   3.692  16.015  0.8574  0.2507  0.7859
 7337TIP3   OH243425   6.398   5.691  11.110  0.3082  0.0332  0.2580
 7337TIP3    H143426   6.368   5.601  11.097 -0.3136  0.4691 -1.4812
 7337TIP3    H243427   6.322   5.745  11.089  0.8816  0.9914  0.6154
 7338TIP3   OH243428   4.682   4.906  15.674 -0.4249  0.7362 -0.7391
 7338TIP3    H143429   4.634   4.978  15.714  1.4941  0.9949  1.1685
 7338TIP3    H243430   4.765   4.945  15.648  1.3503 -1.1335  1.8930
 7339TIP3   OH243431   2.432   2.453  13.413  0.4112 -0.5777 -0.2128
 7339TIP3    H143432   2.516   2.476  13.452  0.7191  2.2966 -2.4219
 7339TIP3    H243433   2.405   2.374  13.460  2.6951  0.3629  2.8853
 7340TIP3   OH243434   5.692   6.671  11.822  0.4852 -0.2180  0.0952
 7340TIP3    H143435   5.676   6.587  11.866  2.3526 -1.1020 -0.8822
 7340TIP3    H243436   5.658   6.659  11.734  1.5672 -0.2555 -0.3190
 7341TIP3   OH243437   4.371   4.904  12.272  0.2358 -0.4563 -0.3227
 7341TIP3    H143438   4.327   4.951  12.343 -1.4383 -0.8252 -1.0908
 7341TIP3    H243439   4.464   4.925  12.284  0.1392 -1.4094  2.6296
 7342TIP3   OH243440   2.633   1.967   1.941  0.0887 -0.0649 -0.2209
 7342TIP3    H143441   2.584   2.042   1.975 -0.5621 -0.7956  0.4528
 7342TIP3    H243442   2.721   1.977   1.978  0.1024  0.5467 -0.4112
 7343TIP3   OH243443   6.513   6.380   5.657  0.2241  0.1554 -0.2446
 7343TIP3    H143444   6.604   6.385   5.687  0.2464 -0.9100 -0.1168
 7343TIP3    H243445   6.518   6.331   5.575 -0.2101  0.2830 -0.3441
 7344TIP3   OH243446   2.916   5.001  15.515  0.0399  0.2833  0.1024
 7344TIP3    H143447   2.834   5.018  15.562  0.7103  0.1648  1.3288
 7344TIP3    H243448   2.980   5.059  15.555  0.4342  0.7951 -1.2502
 7345TIP3   OH243449   3.157   3.714   2.243 -0.3581  0.1805 -0.4934
 7345TIP3    H143450   3.252   3.730   2.249 -0.5770  1.4045 -0.0716
 7345TIP3    H243451   3.139   3.714   2.149  0.0547 -0.0499 -0.5765
 7346TIP3   OH243452   5.991   1.156   3.484  0.1922  0.3319 -0.4045
 7346TIP3    H143453   6.010   1.250   3.483  1.2608  0.1341  0.0230
 7346TIP3    H243454   6.068   1.116   3.443 -0.6843 -0.2959 -1.4491
 7347TIP3   OH243455   0.068   4.510   1.322 -0.0561  0.0991 -0.7393
 7347TIP3    H143456   0.043   4.548   1.238  1.2285  0.1581 -1.1003
 7347TIP3    H243457   0.025   4.424   1.323 -0.7826  0.4636 -1.0777
 7348TIP3   OH243458   3.237   5.776   5.321 -0.0064  0.0211  0.2749
 7348TIP3    H143459   3.239   5.722   5.400  0.2427 -0.8465 -0.3050
 7348TIP3    H243460   3.211   5.862   5.351  1.6560  0.1183  1.5348
 7349TIP3   OH243461   1.773   3.915  15.647  0.7375 -1.0323  0.1822
 7349TIP3    H143462   1.783   3.908  15.552  0.9069  0.8136  0.0430
 7349TIP3    H243463   1.746   3.828  15.675 -1.0974 -1.1145 -1.7723
 7350TIP3   OH243464   5.780   5.883   5.560 -0.3472 -0.3369  0.3168
 7350TIP3    H143465   5.781   5.836   5.477 -0.5702  1.5498 -0.7751
 7350TIP3    H243466   5.870   5.915   5.570 -0.2354 -0.8404  0.9823
 7351TIP3   OH243467   2.501   3.005  11.490 -0.1760 -0.2243 -0.0782
 7351TIP3    H143468   2.458   3.076  11.441  2.8383  0.5118 -1.8688
 7351TIP3    H243469   2.461   2.925  11.457 -2.8489  0.5719  1.1452
 7352TIP3   OH243470   4.952   4.669  15.987 -0.4042  0.7873 -0.1850
 7352TIP3    H143471   4.942   4.579  15.955 -0.2085  0.9167 -0.6044
 7352TIP3    H243472   4.878   4.681  16.046 -0.5623  0.4259 -0.3064
 7353TIP3   OH243473   0.783   4.372  11.390 -0.1735  0.3408  0.2324
 7353TIP3    H143474   0.791   4.284  11.352  2.4431  0.5550  0.1859
 7353TIP3    H243475   0.781   4.430  11.314  1.1349  0.5007  0.3033
 7354TIP3   OH243476   4.485   4.216  15.325 -0.1106 -0.3217 -0.3819
 7354TIP3    H143477   4.487   4.311  15.318  0.1678 -0.0304  2.9041
 7354TIP3    H243478   4.406   4.197  15.375  0.7270 -1.6913  0.4697
 7355TIP3   OH243479   1.477   3.863   0.208 -0.3904 -0.1350  0.0546
 7355TIP3    H143480   1.523   3.946   0.193  0.6982 -0.6962  0.1861
 7355TIP3    H243481   1.399   3.887   0.257 -0.5796  0.9240 -0.7535
 7356TIP3   OH243482   2.831   3.389  11.383  0.1489  0.2565 -0.5241
 7356TIP3    H143483   2.801   3.303  11.353  0.3576 -0.1486  0.4237
 7356TIP3    H243484   2.808   3.448  11.311 -3.1261  0.0073  0.2578
 7357TIP3   OH243485   3.230   5.953   1.474  0.1846  0.2595  0.1622
 7357TIP3    H143486   3.148   5.907   1.457  0.8640 -1.2929  0.9595
 7357TIP3    H243487   3.266   5.971   1.388  0.6017 -2.0184 -0.1724
 7358TIP3   OH243488   6.664   4.183  16.537  0.7464 -0.5150  0.3368
 7358TIP3    H143489   6.676   4.142  16.623 -1.9027  2.4897  2.2403
 7358TIP3    H243490   6.664   4.277  16.555 -2.2404  0.1306 -2.6041
 7359TIP3   OH243491   1.322   0.577   0.583  0.1850 -0.2395  0.4285
 7359TIP3    H143492   1.261   0.515   0.542  0.3246 -0.3518  0.3892
 7359TIP3    H243493   1.408   0.554   0.546 -0.0073  1.0924 -0.9309
 7360TIP3   OH243494   4.928   3.076  13.795  0.3870 -0.1813 -0.1296
 7360TIP3    H143495   4.977   2.998  13.821 -1.0898 -0.6351  1.4475
 7360TIP3    H243496   4.841   3.062  13.832  0.1994  2.3851  0.4608
 7361TIP3   OH243497   2.866   1.646   2.271  1.0133  0.4775 -0.0557
 7361TIP3    H143498   2.855   1.573   2.332 -0.0923  0.7644  0.1046
 7361TIP3    H243499   2.821   1.618   2.191  0.3510  1.0846  0.0985
 7362TIP3   OH243500   2.521   1.546  13.620 -0.1637  0.2493 -0.2077
 7362TIP3    H143501   2.521   1.523  13.713 -0.5716 -0.6836 -0.4320
 7362TIP3    H243502   2.531   1.462  13.575  1.0184  0.8022 -0.9855
 7363TIP3   OH243503   2.729   0.016  14.840  0.0952  0.1170  0.1894
 7363TIP3    H143504   2.688   0.061  14.913 -0.7679 -0.0141 -0.2137
 7363TIP3    H243505   2.816  -0.008  14.873  0.1237  1.0331  0.7921
 7364TIP3   OH243506   0.968   1.926   5.145  0.1122 -1.0382 -0.0960
 7364TIP3    H143507   0.940   1.873   5.071  1.2634 -1.9576  0.0993
 7364TIP3    H243508   1.047   1.972   5.114 -0.2413 -0.2883  0.0903
 7365TIP3   OH243509   4.660   4.682  14.577  0.4940  0.2432 -0.5307
 7365TIP3    H143510   4.589   4.745  14.564  1.0536  0.9110 -0.3968
 7365TIP3    H243511   4.644   4.614  14.512  1.6091  2.0561 -2.7761
 7366TIP3   OH243512   4.272   4.790   1.708 -0.3364  0.6712 -0.4530
 7366TIP3    H143513   4.253   4.755   1.794  0.0066  1.8852  0.1266
 7366TIP3    H243514   4.266   4.714   1.649 -2.2363  0.1601  0.3809
 7367TIP3   OH243515   1.210   5.078  14.795 -0.4357 -0.1629 -0.2390
 7367TIP3    H143516   1.290   5.059  14.844 -1.2997 -0.8432  0.9366
 7367TIP3    H243517   1.238   5.080  14.704  0.8002 -1.0869  0.0982
 7368TIP3   OH243518   4.450   2.209   6.290 -0.6949  0.3399  0.6784
 7368TIP3    H143519   4.448   2.305   6.289 -1.9955  0.3402  1.3547
 7368TIP3    H243520   4.535   2.186   6.252 -0.4678  1.7515  0.2951
 7369TIP3   OH243521   0.689   2.639  16.093  0.4616 -0.1554  0.0020
 7369TIP3    H143522   0.707   2.547  16.073  0.3406 -0.3908  0.9546
 7369TIP3    H243523   0.774   2.677  16.114  0.6320  0.1683 -1.2428
 7370TIP3   OH243524   6.283   0.377   2.014 -0.5740  0.1855 -0.1756
 7370TIP3    H143525   6.325   0.366   1.929  0.7968 -0.4780  0.5621
 7370TIP3    H243526   6.198   0.415   1.994 -0.2385  0.1157 -1.8344
 7371TIP3   OH243527   2.233   1.359   4.370 -0.9622 -0.1249 -0.4428
 7371TIP3    H143528   2.288   1.283   4.393  1.2779  0.6443 -3.0045
 7371TIP3    H243529   2.174   1.326   4.303 -1.2269 -0.0450 -0.2492
 7372TIP3   OH243530   3.187   1.478  14.185  0.4562 -0.0991 -0.2601
 7372TIP3    H143531   3.161   1.410  14.123 -0.3255 -0.4447  0.4322
 7372TIP3    H243532   3.167   1.560  14.141  0.2041 -0.3386 -0.5947
 7373TIP3   OH243533   1.648   3.254   5.975 -0.4424 -0.0539  0.3512
 7373TIP3    H143534   1.640   3.345   6.001  0.1187  0.2134 -0.3878
 7373TIP3    H243535   1.735   3.247   5.936 -1.0875 -0.5099 -1.0853
 7374TIP3   OH243536   2.025   1.568  16.706 -0.1469  0.0141 -0.2486
 7374TIP3    H143537   2.031   1.634  16.776 -2.0251  1.2483 -1.2098
 7374TIP3    H243538   1.956   1.509  16.736  0.4432 -0.6183 -0.1294
 7375TIP3   OH243539   6.404   0.979  13.140 -0.4173 -0.6759  0.2591
 7375TIP3    H143540   6.452   0.957  13.219 -1.0296  0.7975  1.0602
 7375TIP3    H243541   6.438   1.064  13.114  0.7819 -1.7695 -1.8730
 7376TIP3   OH243542   6.240   1.968   1.553  0.3129 -0.1050 -0.0035
 7376TIP3    H143543   6.312   2.030   1.567  0.5634 -0.6525  1.3111
 7376TIP3    H243544   6.219   1.975   1.460 -0.2603  2.5869  0.3008
 7377TIP3   OH243545   2.303   6.602  13.113 -0.4175  0.0998  0.3588
 7377TIP3    H143546   2.276   6.687  13.149 -0.3889  0.5472 -0.6611
 7377TIP3    H243547   2.393   6.616  13.084  0.2734 -0.8461  1.9824
 7378TIP3   OH243548   5.716   4.529   3.140  0.0566  0.2042 -0.1403
 7378TIP3    H143549   5.808   4.515   3.117  0.9284  1.9603  2.1133
 7378TIP3    H243550   5.671   4.532   3.056  2.0279 -0.8276 -1.2761
 7379TIP3   OH243551   2.748   3.742  15.661  0.3212 -0.4861  0.2254
 7379TIP3    H143552   2.811   3.767  15.729 -0.5409 -2.5636  1.8484
 7379TIP3    H243553   2.666   3.783  15.688  0.3398 -0.0159 -0.4235
 7380TIP3   OH243554   2.106   1.977  15.159 -0.6285 -0.1978  0.3935
 7380TIP3    H143555   2.051   2.054  15.143  0.6580  0.3595 -1.5734
 7380TIP3    H243556   2.081   1.916  15.089  1.2596  0.0920 -0.5621
 7381TIP3   OH243557   4.796   4.066  11.302  0.5217  0.2712  0.2751
 7381TIP3    H143558   4.854   4.008  11.252 -0.2085 -0.5996  0.4444
 7381TIP3    H243559   4.849   4.094  11.376  0.4174 -1.3051  0.9635
 7382TIP3   OH243560   0.185   3.895   1.168 -0.1965  0.0076 -0.2067
 7382TIP3    H143561   0.188   3.800   1.183 -0.0986  0.0352 -0.0550
 7382TIP3    H243562   0.243   3.908   1.093  1.3174  0.1820  0.9642
 7383TIP3   OH243563   6.482   4.720   0.768  0.2132  0.0382  0.1803
 7383TIP3    H143564   6.401   4.721   0.819 -1.8056 -1.6249 -2.8907
 7383TIP3    H243565   6.478   4.800   0.716  1.2883  0.6791  1.0423
 7384TIP3   OH243566   2.832   4.524  11.708  0.2776 -0.3380 -0.0105
 7384TIP3    H143567   2.757   4.487  11.754  0.1415  0.0809  0.1123
 7384TIP3    H243568   2.908   4.476  11.742  0.2475  0.3664  1.1007
 7385TIP3   OH243569   4.281   2.460   2.836  0.0875  0.4097  0.5625
 7385TIP3    H143570   4.291   2.517   2.760 -1.5088 -0.4476 -0.3122
 7385TIP3    H243571   4.345   2.493   2.900  0.8519  1.6521 -0.8274
 7386TIP3   OH243572   3.367   6.782  16.175  0.4768  0.2050  0.6189
 7386TIP3    H143573   3.325   6.832  16.106 -1.5415  1.4099  2.6486
 7386TIP3    H243574   3.438   6.839  16.206  0.7548  0.0783  0.2233
 7387TIP3   OH243575   0.783   1.650   3.370  0.2921 -0.4756  0.5676
 7387TIP3    H143576   0.878   1.645   3.360  0.2937  0.3351  0.0821
 7387TIP3    H243577   0.767   1.742   3.394 -0.3918 -0.5467  0.3812
 7388TIP3   OH243578   5.770   1.200  14.065 -0.1008  0.3210  0.6122
 7388TIP3    H143579   5.821   1.273  14.101  2.2392 -1.9991  2.2062
 7388TIP3    H243580   5.680   1.217  14.095  0.6800  1.7185  2.2765
 7389TIP3   OH243581   2.296   6.380   2.995 -0.0668 -0.0734 -0.1408
 7389TIP3    H143582   2.289   6.348   3.084  0.4913  0.6862  0.1789
 7389TIP3    H243583   2.377   6.430   2.993 -0.1198 -0.0034 -1.0484
 7390TIP3   OH243584   2.786   2.564  15.775  0.1358 -0.0516  0.1251
 7390TIP3    H143585   2.779   2.477  15.735  0.3413  0.4049 -0.9183
 7390TIP3    H243586   2.815   2.546  15.865 -2.5804 -1.2154  0.8219
 7391TIP3   OH243587   2.411   3.925  16.529  0.0941  0.3034  0.1680
 7391TIP3    H143588   2.477   3.888  16.587 -0.2204 -1.4434 -0.5512
 7391TIP3    H243589   2.462   3.973  16.463  0.4404  2.4821  1.9544
 7392TIP3   OH243590   3.697   0.066  11.008 -0.3690  0.2593 -0.8852
 7392TIP3    H143591   3.662   0.107  11.087  0.4230 -2.3437  0.8934
 7392TIP3    H243592   3.719   0.139  10.950 -0.3428  2.2499  1.5568
 7393TIP3   OH243593   1.941   6.339  13.431 -0.2252 -0.0151 -0.2117
 7393TIP3    H143594   1.853   6.334  13.468  0.4000  0.5713  1.4293
 7393TIP3    H243595   1.985   6.405  13.485  1.5955 -1.2216 -0.2004
 7394TIP3   OH243596   5.943   2.318  16.979  0.8734  0.4414 -0.3034
 7394TIP3    H143597   6.015   2.308  17.041  1.5257 -1.3340 -1.2975
 7394TIP3    H243598   5.864   2.318  17.034  1.3464 -2.6289  0.4812
 7395TIP3   OH243599   1.490   4.714  15.292 -0.0688 -0.3359  0.4607
 7395TIP3    H143600   1.551   4.674  15.230 -1.4962  0.1428 -1.2803
 7395TIP3    H243601   1.535   4.793  15.322  1.0424 -1.0880  0.7972
 7396TIP3   OH243602   3.823   4.604   5.137 -0.1180  0.3875  0.4627
 7396TIP3    H143603   3.875   4.628   5.060 -1.6584 -0.9491 -1.0450
 7396TIP3    H243604   3.806   4.510   5.126 -0.8814  0.3139  2.1262
 7397TIP3   OH243605   6.482   1.502   1.864  0.1018 -0.4408  0.7299
 7397TIP3    H143606   6.402   1.512   1.917 -1.2041 -0.4191 -1.1956
 7397TIP3    H243607   6.545   1.561   1.906 -1.5659  1.2077  1.0318
 7398TIP3   OH243608   6.519   0.548   2.225  0.2600  0.1807  0.1823
 7398TIP3    H143609   6.439   0.555   2.172  0.7615  1.4641 -0.3973
 7398TIP3    H243610   6.542   0.638   2.246  1.8171 -0.1605 -0.0248
 7399TIP3   OH243611   6.708   1.543   3.633 -0.0692 -0.4105  0.6282
 7399TIP3    H143612   6.660   1.602   3.691  1.6881  2.3809 -0.6520
 7399TIP3    H243613   6.752   1.482   3.692 -3.2404 -1.6213  1.9062
 7400TIP3   OH243614   5.594   1.972  11.972 -0.7250 -0.3429 -0.2428
 7400TIP3    H143615   5.574   1.946  12.062 -1.1175  1.1237  0.0934
 7400TIP3    H243616   5.683   2.008  11.977 -0.5271 -0.7841 -0.5501
 7401TIP3   OH243617   1.726   2.583  10.534  0.5194 -0.2644 -0.2753
 7401TIP3    H143618   1.804   2.583  10.479 -2.0735 -0.6399 -4.1210
 7401TIP3    H243619   1.706   2.491  10.546 -0.5285 -0.1401 -1.0725
 7402TIP3   OH243620   1.110   2.077   4.067  0.0993  0.0806  0.0188
 7402TIP3    H143621   1.185   2.017   4.067  1.4818  1.7660 -1.2159
 7402TIP3    H243622   1.058   2.051   3.991  0.9634  0.7577 -0.8105
 7403TIP3   OH243623   2.254   5.394  16.880 -0.7578  0.3488 -0.1236
 7403TIP3    H143624   2.325   5.330  16.886  0.5104  1.6976 -0.1974
 7403TIP3    H243625   2.225   5.408  16.970 -0.4880  0.2597 -0.0243
 7404TIP3   OH243626   6.198   0.056   0.777 -0.0893  0.0749  0.1103
 7404TIP3    H143627   6.284   0.052   0.735 -0.3899 -0.5439 -0.4602
 7404TIP3    H243628   6.216   0.039   0.870  0.1714 -2.2214 -0.3257
 7405TIP3   OH243629   1.905   5.760   5.053  0.5113  0.3311  0.0386
 7405TIP3    H143630   1.975   5.700   5.026  1.1773  0.8791  0.5504
 7405TIP3    H243631   1.826   5.723   5.013  1.2763  0.3913 -1.5804
 7406TIP3   OH243632   6.001   5.150   0.353  0.0312  0.1017  0.5664
 7406TIP3    H143633   5.951   5.145   0.435 -1.2624  0.3951 -0.1989
 7406TIP3    H243634   6.061   5.224   0.366  0.7384 -0.6521  1.7300
 7407TIP3   OH243635   6.502   3.815   3.111 -1.2058  0.6022 -0.7477
 7407TIP3    H143636   6.458   3.732   3.129 -0.9209  0.6907  0.4424
 7407TIP3    H243637   6.558   3.797   3.036 -0.5545 -0.5262 -0.0134
 7408TIP3   OH243638   4.542   1.893  14.221  0.9597  0.0444 -0.1270
 7408TIP3    H143639   4.511   1.838  14.149 -0.5119  0.1073  0.4346
 7408TIP3    H243640   4.577   1.971  14.179 -1.5612  0.9068 -0.7223
 7409TIP3   OH243641   1.982   2.344   1.610  0.4291 -0.3519  0.2161
 7409TIP3    H143642   2.069   2.368   1.579 -0.4686  0.5073 -1.7229
 7409TIP3    H243643   1.980   2.372   1.702  2.5168 -1.3010  0.5823
 7410TIP3   OH243644   2.719   1.021   3.448  0.5210  0.1107 -0.3989
 7410TIP3    H143645   2.807   0.988   3.464  0.4598 -0.1172 -0.5299
 7410TIP3    H243646   2.677   0.953   3.396  0.5890  0.6733 -1.1885
 7411TIP3   OH243647   1.357   4.932  16.538  0.0514 -0.6847 -0.1305
 7411TIP3    H143648   1.285   4.892  16.587  0.7329 -0.6062  0.9277
 7411TIP3    H243649   1.329   4.925  16.446 -1.3248 -0.6341  0.2628
 7412TIP3   OH243650   6.586   6.048  16.000 -0.5785 -0.4391  0.2849
 7412TIP3    H143651   6.667   6.053  15.949 -0.8693 -0.5129 -0.1845
 7412TIP3    H243652   6.605   5.986  16.070 -0.1456 -0.2634  0.3192
 7413TIP3   OH243653   6.060   5.096   4.823  0.0770  0.7376  0.2929
 7413TIP3    H143654   6.113   5.081   4.745 -2.8674  1.3242 -1.9115
 7413TIP3    H243655   5.970   5.077   4.795 -0.9329 -0.1348  3.8517
 7414TIP3   OH243656   3.406   3.609  14.823 -0.3059  0.0926  0.3307
 7414TIP3    H143657   3.464   3.677  14.789  1.9074 -0.2595  3.2784
 7414TIP3    H243658   3.419   3.535  14.764 -1.4224  1.5515 -1.8547
 7415TIP3   OH243659   0.967   0.316   3.018 -0.5923  0.2496  0.3525
 7415TIP3    H143660   0.983   0.325   2.924 -1.0860 -1.7586  0.0513
 7415TIP3    H243661   0.918   0.394   3.042  0.1801  1.1288 -0.9152
 7416TIP3   OH243662   5.643   5.224  16.795  0.3562  0.1169 -0.1682
 7416TIP3    H143663   5.705   5.268  16.736  0.2102  1.0287  0.3398
 7416TIP3    H243664   5.688   5.144  16.823  1.0351  0.4341 -0.3358
 7417TIP3   OH243665   5.937   1.036   4.462  0.4151  0.2482 -0.0366
 7417TIP3    H143666   5.912   0.995   4.544 -0.7714 -1.0270 -1.0221
 7417TIP3    H243667   5.967   1.124   4.487 -1.7316  0.5682  1.5637
 7418TIP3   OH243668   6.043   3.604   4.882 -0.4200  0.8874 -0.2261
 7418TIP3    H143669   5.989   3.633   4.955 -1.5772  2.5915 -1.7344
 7418TIP3    H243670   5.989   3.539   4.837  0.1692  0.0787  0.1994
 7419TIP3   OH243671   3.385   1.244   5.902  0.1400 -0.3142 -0.4243
 7419TIP3    H143672   3.323   1.178   5.870 -1.3309  0.3306  1.0232
 7419TIP3    H243673   3.331   1.322   5.919  1.4960  0.5618 -0.0277
 7420TIP3   OH243674   0.407   3.217  15.309  0.1167  0.0144 -0.3472
 7420TIP3    H143675   0.355   3.137  15.316  1.5880 -0.7232  2.7306
 7420TIP3    H243676   0.498   3.186  15.309  0.6806  1.6333 -0.4616
 7421TIP3   OH243677   4.413   4.461  16.151 -0.2876 -0.0289  0.5268
 7421TIP3    H143678   4.371   4.425  16.072  0.8715  0.2619 -0.2371
 7421TIP3    H243679   4.442   4.384  16.199 -0.5514 -0.1963  0.4226
 7422TIP3   OH243680   0.988   2.441   6.713  0.5485 -0.3219 -0.3025
 7422TIP3    H143681   0.976   2.366   6.656  2.6581 -1.9287  1.2911
 7422TIP3    H243682   1.083   2.447   6.727  0.1639  0.4416  2.4004
 7423TIP3   OH243683   4.470   5.946   3.551  0.0503  0.2400 -0.5959
 7423TIP3    H143684   4.500   5.946   3.642 -0.3858  0.7752 -0.4527
 7423TIP3    H243685   4.387   5.994   3.553  0.1225  0.3951 -1.2997
 7424TIP3   OH243686   6.431   1.214   2.748  0.1225  0.0068 -0.2710
 7424TIP3    H143687   6.469   1.247   2.666 -1.9018  0.8407 -0.8904
 7424TIP3    H243688   6.343   1.250   2.750  0.0246 -0.3030  2.1236
 7425TIP3   OH243689   1.604   1.922  11.394 -0.6497 -0.7348  0.1375
 7425TIP3    H143690   1.524   1.940  11.444 -0.9458 -2.2206  0.2341
 7425TIP3    H243691   1.616   1.827  11.401 -0.6788 -0.9881 -2.6013
 7426TIP3   OH243692   0.666   2.262  12.924 -0.1308 -0.1557  0.2307
 7426TIP3    H143693   0.739   2.283  12.982  0.3087 -0.1392 -0.3214
 7426TIP3    H243694   0.590   2.256  12.982  0.7481 -2.6797  1.1593
 7427TIP3   OH243695   4.266   3.777   1.096 -0.9573  0.1044  0.9476
 7427TIP3    H143696   4.188   3.812   1.138 -0.7856 -0.2751  1.5863
 7427TIP3    H243697   4.312   3.854   1.062 -2.0878  0.2674 -0.2884
 7428TIP3   OH243698   0.750   3.505  15.859 -0.2940  0.9274 -0.0800
 7428TIP3    H143699   0.753   3.585  15.807 -0.4499  1.0268  0.0645
 7428TIP3    H243700   0.714   3.532  15.944 -0.4006  0.6946 -0.0499
 7429TIP3   OH243701   4.696   0.999  14.057  0.4532 -0.6185 -0.7895
 7429TIP3    H143702   4.785   0.966  14.050  0.4747 -1.0963  1.4599
 7429TIP3    H243703   4.653   0.942  14.120 -1.8373 -1.1507 -2.7160
 7430TIP3   OH243704   1.397   3.911  13.146  0.3770  0.0514  0.0145
 7430TIP3    H143705   1.341   3.873  13.079 -0.9486 -0.8460  1.6018
 7430TIP3    H243706   1.477   3.936  13.099 -0.2532 -1.1784 -1.7630
 7431TIP3   OH243707   0.552   4.503   0.484  0.2298 -0.0534  0.1599
 7431TIP3    H143708   0.518   4.501   0.573 -0.7661 -1.4069 -0.2424
 7431TIP3    H243709   0.578   4.595   0.471  1.8394 -0.1382  2.3637
 7432TIP3   OH243710   2.442   2.683  11.563 -0.3549  0.0933 -0.1178
 7432TIP3    H143711   2.525   2.648  11.595  0.7896  2.5200 -0.2411
 7432TIP3    H243712   2.417   2.749  11.628 -1.2752  0.6281 -0.9989
 7433TIP3   OH243713   4.035   4.950   3.406 -0.1463  0.0660  0.1599
 7433TIP3    H143714   4.048   4.914   3.319  1.2950  1.2289 -0.1203
 7433TIP3    H243715   4.057   4.879   3.466  1.8094  0.1880 -0.3952
 7434TIP3   OH243716   0.891   2.114  16.669  0.0769  0.1019  0.2572
 7434TIP3    H143717   0.824   2.143  16.608  0.4701  0.0743 -0.1923
 7434TIP3    H243718   0.947   2.190  16.682 -0.8694  0.5660  1.7714
 7435TIP3   OH243719   5.163   2.742   0.619  0.0445  0.7124  0.2543
 7435TIP3    H143720   5.240   2.690   0.597 -0.4667 -0.8118  1.9531
 7435TIP3    H243721   5.113   2.746   0.537  1.0662  0.2504 -0.4083
 7436TIP3   OH243722   6.346   5.545   1.795 -0.0767  0.1877 -0.0489
 7436TIP3    H143723   6.379   5.456   1.802 -1.3633 -0.2963 -0.0757
 7436TIP3    H243724   6.310   5.565   1.881 -1.3099  0.0687 -0.5261
 7437TIP3   OH243725   0.821   4.455  12.456  0.0725 -0.0239 -0.1764
 7437TIP3    H143726   0.810   4.399  12.379  1.0015 -0.4381 -0.0089
 7437TIP3    H243727   0.808   4.396  12.530  2.1433 -0.2528  0.0125
 7438TIP3   OH243728   6.617   0.320  13.340  0.0567 -0.2126 -0.1125
 7438TIP3    H143729   6.600   0.414  13.350 -1.0867 -0.4085 -0.0753
 7438TIP3    H243730   6.664   0.313  13.257  0.7914  0.4605  0.2412
 7439TIP3   OH243731   1.272   3.466   1.994  0.4448 -0.1121 -0.6620
 7439TIP3    H143732   1.251   3.541   2.049  0.8003 -0.1391 -0.4897
 7439TIP3    H243733   1.339   3.418   2.043  1.7251  0.5793 -1.7272
 7440TIP3   OH243734   0.910   4.871   3.047  0.1561 -0.1507  0.1492
 7440TIP3    H143735   0.993   4.828   3.031 -1.6310 -4.7144  2.3320
 7440TIP3    H243736   0.904   4.879   3.142 -1.2154  1.6290 -0.0497
 7441TIP3   OH243737   2.250   1.933  17.059  0.1004 -0.4311  0.8092
 7441TIP3    H143738   2.238   1.844  17.094  1.6966 -1.2394 -0.6576
 7441TIP3    H243739   2.344   1.945  17.055 -0.1092  1.3292  0.9443
 7442TIP3   OH243740   2.893   4.956   2.806  0.3633 -0.1443  0.1313
 7442TIP3    H143741   2.914   5.037   2.758  1.2576 -0.0374  0.7006
 7442TIP3    H243742   2.975   4.931   2.849  0.5538 -2.2911 -1.4043
 7443TIP3   OH243743   1.103   5.001   1.189 -0.0800 -0.0730  0.2435
 7443TIP3    H143744   1.167   5.062   1.225  1.1858  0.0226 -2.0960
 7443TIP3    H243745   1.093   4.934   1.257  1.5390  0.5906  1.1558
 7444TIP3   OH243746   4.932   0.355  12.449 -0.1143  0.2737  0.2426
 7444TIP3    H143747   4.991   0.286  12.479 -0.9915 -1.0554 -1.0756
 7444TIP3    H243748   4.987   0.411  12.393 -0.0242 -0.7906 -0.7387
 7445TIP3   OH243749   3.634   6.245  11.080  0.0081  0.2157  0.2615
 7445TIP3    H143750   3.640   6.150  11.093  0.3982  0.3428  1.0279
 7445TIP3    H243751   3.654   6.282  11.166 -0.5354  0.9843  0.0646
 7446TIP3   OH243752   3.925   1.739  15.075 -0.0796  0.2519  0.0524
 7446TIP3    H143753   4.016   1.767  15.064 -0.3447  1.2150  0.3333
 7446TIP3    H243754   3.894   1.787  15.152 -1.1194  0.6302 -0.5965
 7447TIP3   OH243755   0.938   5.448  15.629 -0.4493 -0.3807 -0.9808
 7447TIP3    H143756   1.026   5.411  15.630  0.0315  0.7833  0.8556
 7447TIP3    H243757   0.915   5.451  15.536  1.6316 -0.2430 -1.5150
 7448TIP3   OH243758   2.402   0.618   2.245  0.0516  0.6912  0.3975
 7448TIP3    H143759   2.408   0.683   2.315 -0.4330  1.5733 -0.3586
 7448TIP3    H243760   2.476   0.638   2.188 -0.2162  0.7147  0.0541
 7449TIP3   OH243761   3.255   1.709   2.312 -0.1142  0.0258 -0.4097
 7449TIP3    H143762   3.221   1.659   2.238  0.8606  1.0834 -1.5999
 7449TIP3    H243763   3.222   1.664   2.389  2.1505 -3.5031 -1.3892
 7450TIP3   OH243764   2.695   0.188  12.959  0.3669  0.3694  0.6114
 7450TIP3    H143765   2.699   0.259  12.896  1.5866 -0.6138 -0.4290
 7450TIP3    H243766   2.625   0.131  12.927  0.4854  0.2550  0.5561
 7451TIP3   OH243767   3.545   2.546  16.908  0.2398 -0.2824  0.4250
 7451TIP3    H143768   3.550   2.489  16.986 -0.1840  0.8507  1.2952
 7451TIP3    H243769   3.491   2.620  16.936  0.3363  0.2868 -0.8688
 7452TIP3   OH243770   3.014   5.181  15.788 -0.0187  0.1297  0.2285
 7452TIP3    H143771   3.018   5.245  15.858 -0.6422  0.6927 -0.2457
 7452TIP3    H243772   2.993   5.098  15.832  1.9644 -0.0089  0.9811
 7453TIP3   OH243773   3.737   4.278   5.700 -0.0910  0.4220  0.4613
 7453TIP3    H143774   3.823   4.280   5.657  0.3014 -1.0799  1.1398
 7453TIP3    H243775   3.732   4.361   5.747  0.8229  0.7033  0.0714
 7454TIP3   OH243776   2.606   2.406  12.080 -0.8377 -0.2045 -0.1276
 7454TIP3    H143777   2.645   2.389  11.994 -1.5965 -3.8004  0.1797
 7454TIP3    H243778   2.681   2.413  12.139 -0.3881  0.4104 -0.7569
 7455TIP3   OH243779   1.767   6.326   1.022  0.6083  0.1302  0.5087
 7455TIP3    H143780   1.701   6.360   0.961 -0.0780 -2.0089  0.0106
 7455TIP3    H243781   1.851   6.348   0.982  0.1751  1.2231  0.1998
 7456TIP3   OH243782   1.515   4.638   1.206 -0.9221 -0.0737  0.1326
 7456TIP3    H143783   1.580   4.676   1.146 -0.5365 -0.9183 -0.0005
 7456TIP3    H243784   1.454   4.709   1.224  0.1878  0.8114  0.4617
 7457TIP3   OH243785   5.950   0.883  11.449 -0.1804 -0.1019 -0.0704
 7457TIP3    H143786   6.045   0.875  11.462 -0.1719  0.2844  0.1216
 7457TIP3    H243787   5.942   0.931  11.366 -0.2269 -1.7259 -1.0220
 7458TIP3   OH243788   5.147   2.275   0.019  0.4484  0.6943 -0.3352
 7458TIP3    H143789   5.086   2.231  -0.040  1.0239  0.0031 -0.4317
 7458TIP3    H243790   5.098   2.287   0.100 -0.0598  0.8407 -0.6657
 7459TIP3   OH243791   3.523   5.705  15.598  0.4943  0.0361 -0.8998
 7459TIP3    H143792   3.438   5.696  15.641  0.8259  0.1830 -0.2032
 7459TIP3    H243793   3.512   5.778  15.537 -0.3128 -0.9094 -1.9056
 7460TIP3   OH243794   4.982   1.107   2.094  0.6492 -0.1013  0.0080
 7460TIP3    H143795   4.914   1.134   2.033 -1.1195  0.0635  1.9959
 7460TIP3    H243796   5.000   1.185   2.146  0.3703 -0.8759  1.2926
 7461TIP3   OH243797   3.705   0.323   1.456  0.0443 -0.5729 -0.0733
 7461TIP3    H143798   3.750   0.296   1.536  0.2468 -1.7501 -0.5690
 7461TIP3    H243799   3.771   0.372   1.407  0.2320 -0.7415  0.0113
 7462TIP3   OH243800   3.915   4.846  15.264 -0.0854 -0.0607  0.8121
 7462TIP3    H143801   3.886   4.772  15.318  0.0396 -0.4485  0.3573
 7462TIP3    H243802   3.841   4.863  15.205  0.3159 -0.5742  0.1439
 7463TIP3   OH243803   4.868   0.144   3.865  0.1333  0.1810  0.4295
 7463TIP3    H143804   4.795   0.094   3.830  1.5753 -1.3254 -0.5185
 7463TIP3    H243805   4.855   0.145   3.959 -0.3794 -1.2524  0.3767
 7464TIP3   OH243806   6.069   4.623  16.181 -0.0317  0.0440  0.6831
 7464TIP3    H143807   6.014   4.644  16.106  1.0014  1.8698  0.4041
 7464TIP3    H243808   6.156   4.609  16.144  0.1035 -0.8676  1.3392
 7465TIP3   OH243809   6.384   4.928  12.880 -0.6631 -0.4320  0.3079
 7465TIP3    H143810   6.470   4.928  12.924 -0.9230  0.3295  0.8288
 7465TIP3    H243811   6.344   4.845  12.907  1.0137 -2.1201 -2.1783
 7466TIP3   OH243812   4.224   5.846   3.882 -0.6233 -0.5997 -0.0606
 7466TIP3    H143813   4.316   5.824   3.896 -0.1028  1.3282 -0.3878
 7466TIP3    H243814   4.218   5.868   3.789 -1.6301 -1.6055 -0.2575
 7467TIP3   OH243815   3.085   5.984   5.459 -0.2503 -0.4676 -0.5465
 7467TIP3    H143816   3.048   5.957   5.543 -1.3877 -0.0349 -0.8988
 7467TIP3    H243817   3.111   6.075   5.472 -0.8809 -0.2452 -0.7967
 7468TIP3   OH243818   2.561   0.157  15.823 -0.2432  0.3027 -0.1874
 7468TIP3    H143819   2.638   0.180  15.875  0.3721 -0.0370 -0.9400
 7468TIP3    H243820   2.546   0.065  15.843 -0.4251  0.3589 -0.0707
 7469TIP3   OH243821   5.150   6.210  12.620  0.0436  0.1569  0.8817
 7469TIP3    H143822   5.146   6.287  12.563  2.0374 -0.7782 -0.5900
 7469TIP3    H243823   5.200   6.241  12.696  0.0312  0.5893  0.7195
 7470TIP3   OH243824   1.109   5.291   5.592  0.4141  0.0690 -0.2107
 7470TIP3    H143825   1.040   5.324   5.650  0.4293  0.1014 -0.2115
 7470TIP3    H243826   1.087   5.325   5.506  0.6422  0.3934 -0.1400
 7471TIP3   OH243827   2.829   5.038  16.851 -0.2654  0.3978  0.3371
 7471TIP3    H143828   2.893   5.067  16.785 -0.4146  0.7170  0.3304
 7471TIP3    H243829   2.748   5.027  16.802 -0.5964  1.4841  0.6177
 7472TIP3   OH243830   2.990   0.173  14.223  0.1494  0.3699  0.3353
 7472TIP3    H143831   3.037   0.225  14.158  0.5982 -0.3314  0.0864
 7472TIP3    H243832   2.933   0.235  14.268  1.4621  1.2758  0.7807
 7473TIP3   OH243833   6.529   0.272  12.464  0.5610  0.2324 -0.1594
 7473TIP3    H143834   6.592   0.229  12.406 -0.9703 -1.5339 -0.5533
 7473TIP3    H243835   6.545   0.233  12.550  0.5643  0.4012 -0.0823
 7474TIP3   OH243836   6.250   3.737   6.432  0.3042 -0.2967  0.3344
 7474TIP3    H143837   6.302   3.696   6.362  0.0938 -1.9891  1.1549
 7474TIP3    H243838   6.291   3.707   6.513  0.9514  2.1815  0.9846
 7475TIP3   OH243839   3.754   1.622  12.487 -0.5953 -0.0152 -0.0809
 7475TIP3    H143840   3.732   1.669  12.568 -0.9303  0.1024 -0.2401
 7475TIP3    H243841   3.692   1.548  12.485 -0.0441 -0.4846  0.1879
 7476TIP3   OH243842   6.588   2.184  15.411 -0.4087 -0.0066  0.3473
 7476TIP3    H143843   6.654   2.193  15.343 -1.3662  1.0635 -0.4474
 7476TIP3    H243844   6.610   2.101  15.454  2.6039  1.2719  1.3747
 7477TIP3   OH243845   5.143   4.503   2.420 -0.4530  0.6683 -0.3790
 7477TIP3    H143846   5.204   4.548   2.478  0.2691  2.2985 -2.3397
 7477TIP3    H243847   5.197   4.435   2.378 -1.4430 -1.8410  2.2723
 7478TIP3   OH243848   1.185   4.465  15.546  0.9030  0.4380  0.6484
 7478TIP3    H143849   1.237   4.546  15.546  2.2431 -0.4213  0.6852
 7478TIP3    H243850   1.228   4.409  15.481 -0.4826  0.0355  0.0640
 7479TIP3   OH243851   2.347   1.464   5.644 -0.4508 -0.7060 -0.2389
 7479TIP3    H143852   2.320   1.520   5.572 -3.1393 -2.8429 -0.9899
 7479TIP3    H243853   2.381   1.385   5.602 -1.8775 -1.9033  0.7936
 7480TIP3   OH243854   1.357   1.806  12.329 -0.0385 -0.7441  0.0261
 7480TIP3    H143855   1.279   1.805  12.384 -1.0342 -0.4916 -1.3438
 7480TIP3    H243856   1.324   1.794  12.240  1.1990  2.1044 -0.8838
 7481TIP3   OH243857   3.810   1.703  10.985  0.1640  0.3647 -0.8961
 7481TIP3    H143858   3.887   1.672  11.034 -0.6283 -1.7579 -0.9452
 7481TIP3    H243859   3.773   1.771  11.040  0.5355 -0.4997  0.4560
 7482TIP3   OH243860   0.813   5.703  12.500 -0.6681  0.0347 -0.2642
 7482TIP3    H143861   0.800   5.773  12.436 -2.7804 -1.5772 -1.6904
 7482TIP3    H243862   0.733   5.702  12.552 -0.3390 -0.8221  0.2496
 7483TIP3   OH243863   0.127   1.589   4.912 -0.2025 -0.1775  0.0088
 7483TIP3    H143864   0.177   1.574   4.993  0.3305 -0.6662 -0.4033
 7483TIP3    H243865   0.163   1.526   4.850 -1.8678 -1.0664 -0.0771
 7484TIP3   OH243866   3.517   2.984  14.648 -0.5529  0.1595 -0.3531
 7484TIP3    H143867   3.438   3.006  14.698  0.0707 -1.8313  1.5687
 7484TIP3    H243868   3.547   2.901  14.684  2.1366  0.5951 -1.4239
 7485TIP3   OH243869   2.111   0.672  15.000  0.8639  0.2506  0.2991
 7485TIP3    H143870   2.111   0.712  15.087 -1.9401  0.8942  0.0478
 7485TIP3    H243871   2.159   0.590  15.011  0.6393  0.3847  2.4179
 7486TIP3   OH243872   3.614   4.749  15.627 -0.4882  0.2662  0.3915
 7486TIP3    H143873   3.596   4.842  15.643 -0.7242  0.2480  0.2267
 7486TIP3    H243874   3.527   4.708  15.624 -0.3609 -0.1034  1.3364
 7487TIP3   OH243875   6.048   2.152   2.793 -0.3840 -0.3486  0.0856
 7487TIP3    H143876   6.008   2.187   2.873 -1.8384 -0.9876 -0.3533
 7487TIP3    H243877   5.997   2.192   2.722  0.3000 -0.5200 -0.5036
 7488TIP3   OH243878   6.718   1.373  13.454  0.1739 -0.6090 -0.5716
 7488TIP3    H143879   6.804   1.352  13.490  0.4540  1.4542  0.0364
 7488TIP3    H243880   6.710   1.468  13.466 -0.9445 -0.3179 -3.2962
 7489TIP3   OH243881   3.461   2.698   5.506  0.9878 -0.0684  0.3979
 7489TIP3    H143882   3.478   2.606   5.487  2.1405  0.2621 -0.1682
 7489TIP3    H243883   3.401   2.726   5.437  1.9444  0.0397 -0.3965
 7490TIP3   OH243884   0.450   2.745  11.534  0.2523  0.6098  0.0739
 7490TIP3    H143885   0.399   2.776  11.610  0.0872  1.6060 -0.4368
 7490TIP3    H243886   0.531   2.795  11.537  0.2703  0.6111 -0.3717
 7491TIP3   OH243887   6.758   5.299   3.380 -0.3455 -0.6037 -0.0985
 7491TIP3    H143888   6.677   5.325   3.423  0.0826 -0.1416  0.4351
 7491TIP3    H243889   6.809   5.380   3.372 -0.6534 -0.5633 -2.0051
 7492TIP3   OH243890   3.528   1.089  13.601 -0.5400  0.5289 -0.2631
 7492TIP3    H143891   3.485   1.089  13.686  1.1904  1.7152  0.6375
 7492TIP3    H243892   3.590   1.016  13.605 -0.8642  0.2234 -0.7300
 7493TIP3   OH243893   3.782   6.442  13.042 -0.0496 -0.2908 -0.2509
 7493TIP3    H143894   3.687   6.458  13.041 -0.0536 -0.2650  0.5062
 7493TIP3    H243895   3.805   6.431  12.949 -0.8161 -0.4362 -0.4298
 7494TIP3   OH243896   6.593   4.087  15.034  0.0276  0.0508  0.2049
 7494TIP3    H143897   6.520   4.112  14.976  1.7654 -0.6044 -2.3797
 7494TIP3    H243898   6.573   3.997  15.060 -1.1810  0.6286  1.3359
 7495TIP3   OH243899   3.896   0.538   5.490  0.0430 -0.1422  0.1152
 7495TIP3    H143900   3.969   0.515   5.433  0.7844  1.3663  0.4302
 7495TIP3    H243901   3.937   0.566   5.571 -0.7872  2.1850 -0.2209
 7496TIP3   OH243902   5.048   6.448   2.114 -0.0507 -0.2051  0.0050
 7496TIP3    H143903   5.059   6.366   2.066  2.0647 -0.7694  1.3473
 7496TIP3    H243904   5.136   6.486   2.116 -0.8334  1.6508  0.2043
 7497TIP3   OH243905   1.438   1.326   0.026 -0.3331 -1.1401  0.5377
 7497TIP3    H143906   1.505   1.327  -0.042 -0.0070  0.8856  0.8545
 7497TIP3    H243907   1.359   1.298  -0.019  0.2267 -1.3289 -0.3449
 7498TIP3   OH243908   4.568   5.553   2.522 -0.1852 -0.2178  0.4016
 7498TIP3    H143909   4.641   5.492   2.533 -1.0961 -1.1545  1.3801
 7498TIP3    H243910   4.518   5.518   2.448 -1.6742 -1.6792  2.0506
 7499TIP3   OH243911   0.799   2.420  14.269  0.1670  0.1092 -0.0626
 7499TIP3    H143912   0.736   2.456  14.332  0.5458 -0.5105  0.6801
 7499TIP3    H243913   0.855   2.495  14.247 -0.2623  0.4432 -0.0273
 7500TIP3   OH243914   1.819   1.465   2.144  0.2791 -0.6591  0.2160
 7500TIP3    H143915   1.860   1.516   2.213 -0.8082 -1.2449  1.3137
 7500TIP3    H243916   1.833   1.516   2.064  2.2968 -0.4017  0.7162
 7501TIP3   OH243917   1.253   2.002   1.729 -0.0971 -0.6772 -0.2889
 7501TIP3    H143918   1.301   1.927   1.766 -1.9200 -1.8509 -0.2447
 7501TIP3    H243919   1.295   2.017   1.644  1.7823 -0.2452  0.6737
 7502TIP3   OH243920   2.650   0.321  15.307  0.6420 -1.0208  0.3443
 7502TIP3    H143921   2.742   0.296  15.318  0.5826 -0.5723  1.8851
 7502TIP3    H243922   2.604   0.275  15.376  0.0373  0.5899  1.0369
 7503TIP3   OH243923   1.303   3.552   3.154  0.5125  0.1851  0.6312
 7503TIP3    H143924   1.333   3.628   3.103  0.2605  0.2073  0.5170
 7503TIP3    H243925   1.321   3.477   3.098 -1.1356  0.3356 -0.1073
 7504TIP3   OH243926   0.427   5.045  16.133 -0.3611 -0.2023  0.4169
 7504TIP3    H143927   0.454   4.990  16.059 -2.0966 -1.3464  0.5921
 7504TIP3    H243928   0.472   5.008  16.209  2.0746  1.4856 -0.1790
 7505TIP3   OH243929   0.688   3.392  16.156  0.1605  0.6046 -0.4711
 7505TIP3    H143930   0.610   3.390  16.211 -1.1905  3.3256 -2.1844
 7505TIP3    H243931   0.657   3.368  16.069  1.4984  0.4516 -0.9202
 7506TIP3   OH243932   0.793   6.160  14.867 -0.1254 -0.3088 -0.1339
 7506TIP3    H143933   0.816   6.242  14.823  1.1304 -0.9812 -0.7759
 7506TIP3    H243934   0.742   6.111  14.802  0.1675 -0.5420 -0.1891
 7507TIP3   OH243935   3.928   2.504  12.446  0.6488 -0.8294 -0.2335
 7507TIP3    H143936   3.870   2.546  12.382 -0.2591  1.4431  1.9584
 7507TIP3    H243937   3.868   2.464  12.510  1.5150 -1.1396  0.3883
 7508TIP3   OH243938   0.929   3.282   4.879 -0.0092  0.3632  0.0899
 7508TIP3    H143939   0.850   3.331   4.857  0.2025  1.0151  0.7773
 7508TIP3    H243940   0.960   3.321   4.961 -0.7132 -1.9207  1.5048
 7509TIP3   OH243941   2.928   1.171  13.075 -0.7483 -0.2678 -0.0014
 7509TIP3    H143942   2.835   1.163  13.055 -0.1816 -0.0876 -2.9463
 7509TIP3    H243943   2.940   1.262  13.100 -1.0135  0.2158 -1.6154
 7510TIP3   OH243944   2.566   4.348   3.336 -0.0094 -0.4769 -0.3806
 7510TIP3    H143945   2.504   4.421   3.327 -1.2664 -1.4194  0.4630
 7510TIP3    H243946   2.539   4.285   3.269  0.4781 -0.5852 -0.4760
 7511TIP3   OH243947   1.977   4.706  14.738  0.1217 -0.1027 -0.3723
 7511TIP3    H143948   2.047   4.747  14.688 -0.4799 -0.1546 -1.2706
 7511TIP3    H243949   1.961   4.767  14.810 -0.3217  0.9473 -1.3335
 7512TIP3   OH243950   6.593   4.991   1.204  0.1100  0.0608  0.3469
 7512TIP3    H143951   6.682   4.976   1.234  0.6862  0.2809 -1.1760
 7512TIP3    H243952   6.562   4.905   1.175 -0.4281 -0.1465  1.5328
 7513TIP3   OH243953   1.931   1.839   4.769  0.0500 -0.3762  0.4128
 7513TIP3    H143954   1.870   1.793   4.826 -0.0329 -0.1089  0.5430
 7513TIP3    H243955   2.016   1.802   4.789  0.0279 -0.2418  0.7514
 7514TIP3   OH243956   5.761   0.594  12.780 -0.5095  0.4212 -0.3684
 7514TIP3    H143957   5.749   0.688  12.796  1.6812  0.8258 -0.9706
 7514TIP3    H243958   5.713   0.551  12.851 -0.1017  2.0317  0.9033
 7515TIP3   OH243959   6.760   6.410  11.042  0.3089  0.1950  0.2748
 7515TIP3    H143960   6.733   6.398  10.951 -1.0756 -0.1633  0.7229
 7515TIP3    H243961   6.695   6.361  11.093  0.3597  1.4074  1.5213
 7516TIP3   OH243962   6.265   6.588   4.668  0.0002 -0.3941  0.2644
 7516TIP3    H143963   6.262   6.547   4.754 -0.4050 -1.2131 -0.1411
 7516TIP3    H243964   6.314   6.670   4.682  0.0001 -0.5627  1.2495
 7517TIP3   OH243965   0.088   1.614   0.112  0.1375  0.0420 -0.2131
 7517TIP3    H143966   0.020   1.595   0.176  0.4073 -0.5786 -0.1116
 7517TIP3    H243967   0.088   1.539   0.053  0.4484  0.2314 -0.4564
 7518TIP3   OH243968   6.119   2.335  14.923 -0.3197  0.2038 -0.6214
 7518TIP3    H143969   6.026   2.318  14.937 -0.0981  0.1581  0.8166
 7518TIP3    H243970   6.161   2.249  14.926  0.0612  0.4402  0.9931
 7519TIP3   OH243971   3.439   0.655   1.658 -0.3350 -0.5719  0.1730
 7519TIP3    H143972   3.391   0.581   1.621 -0.3333 -0.2238 -0.5360
 7519TIP3    H243973   3.375   0.725   1.665 -0.1735 -0.4255  0.2042
 7520TIP3   OH243974   2.114   6.563   2.913 -0.5796 -0.0681 -0.3912
 7520TIP3    H143975   2.170   6.512   2.972 -0.1883  1.4455  0.5773
 7520TIP3    H243976   2.158   6.647   2.906 -0.7049 -0.1712 -2.7476
 7521TIP3   OH243977   5.620   2.238   2.344 -0.5806  0.7519  0.5407
 7521TIP3    H143978   5.637   2.154   2.387 -0.5101  0.5435  0.1098
 7521TIP3    H243979   5.594   2.214   2.255 -0.5279  1.1895  0.4076
 7522TIP3   OH243980   2.859   6.050  16.861 -0.4383  0.1813 -0.0524
 7522TIP3    H143981   2.890   5.973  16.813  1.3328  1.4137 -0.9439
 7522TIP3    H243982   2.932   6.112  16.858 -1.7744  1.8608  0.7340
 7523TIP3   OH243983   0.792   2.145  11.545  0.1914  0.2764  0.5766
 7523TIP3    H143984   0.874   2.189  11.522  0.1295  0.2649  0.3403
 7523TIP3    H243985   0.726   2.215  11.542  0.2904  0.4104  1.3419
 7524TIP3   OH243986   0.036   1.855   1.304 -0.5279  0.1765 -0.2862
 7524TIP3    H143987  -0.012   1.935   1.328 -0.2071  0.2523  0.0933
 7524TIP3    H243988   0.107   1.850   1.367  0.1994  0.2682 -1.1015
 7525TIP3   OH243989   0.380   6.567   1.127  0.2255  0.6796 -0.1121
 7525TIP3    H143990   0.339   6.543   1.045  1.9581 -1.1926 -0.4969
 7525TIP3    H243991   0.456   6.619   1.102  0.0369  1.1886  0.3695
 7526TIP3   OH243992   5.387   5.627   0.512  0.1023 -0.2446  0.3221
 7526TIP3    H143993   5.342   5.549   0.544 -0.0156 -0.8591 -1.3050
 7526TIP3    H243994   5.477   5.597   0.497  0.1594  0.0475  0.0859
 7527TIP3   OH243995   5.310   5.428  13.608  0.2998  0.2595 -0.2584
 7527TIP3    H143996   5.405   5.421  13.619  0.4584  1.5578 -0.6937
 7527TIP3    H243997   5.288   5.515  13.642 -0.2192  1.3878 -3.3442
 7528TIP3   OH243998   4.464   3.945  17.030  0.5091  0.2906 -0.7296
 7528TIP3    H143999   4.505   3.860  17.016  0.9281  0.0115  1.9179
 7528TIP3    H244000   4.524   4.008  16.990  0.8124 -0.5518 -1.6125
 7529TIP3   OH244001   6.781   3.424  14.042 -0.3978 -0.0695 -0.8641
 7529TIP3    H144002   6.842   3.485  14.000  0.3207  1.1170  1.8311
 7529TIP3    H244003   6.696   3.447  14.005  0.0095  1.9317 -0.6152
 7530TIP3   OH244004   2.111   6.420  10.724  0.1215  0.4753  0.4578
 7530TIP3    H144005   2.078   6.441  10.811 -0.3814  3.6246 -0.4438
 7530TIP3    H244006   2.056   6.348  10.694  1.2559 -1.6882  3.2674
 7531TIP3   OH244007   0.755   0.862   2.556  0.2704  0.5300  0.7149
 7531TIP3    H144008   0.678   0.835   2.506  0.4330  0.7409  0.3464
 7531TIP3    H244009   0.728   0.944   2.598  0.4690  0.8981  0.1426
 7532TIP3   OH244010   6.044   0.943  16.323  0.0355  0.7750  0.2005
 7532TIP3    H144011   6.121   0.988  16.289  0.1729  0.9733  0.7821
 7532TIP3    H244012   5.972   0.972  16.266  0.0409  2.0563  0.8486
 7533TIP3   OH244013   5.846   5.029   4.618 -0.8658  0.0916  0.7725
 7533TIP3    H144014   5.845   4.934   4.606 -0.3913  0.1929 -0.0702
 7533TIP3    H244015   5.907   5.061   4.552 -1.3573  1.0288  0.7691
 7534TIP3   OH244016   3.839   1.040  12.826 -0.6775  0.0052 -0.2348
 7534TIP3    H144017   3.853   1.074  12.737 -2.0033 -4.0822 -2.1424
 7534TIP3    H244018   3.911   0.978  12.839 -1.9742 -1.3835  0.4501
 7535TIP3   OH244019   5.964   4.689   2.117 -0.5580  0.0826  0.1251
 7535TIP3    H144020   6.050   4.653   2.139  2.2703  2.6765 -5.5035
 7535TIP3    H244021   5.946   4.752   2.187  3.0827  0.8046  0.5250
 7536TIP3   OH244022   4.951   5.704  16.160 -0.2635 -0.1426  0.2107
 7536TIP3    H144023   4.866   5.700  16.118  0.1844  0.9064 -0.8345
 7536TIP3    H244024   5.000   5.630  16.125 -0.0421  0.4738 -0.8032
 7537TIP3   OH244025   2.814   3.603   5.321  0.0299  0.1040  0.1966
 7537TIP3    H144026   2.791   3.683   5.273 -0.0209  0.7377  1.2715
 7537TIP3    H244027   2.791   3.532   5.261  3.2442  0.9391 -2.2078
 7538TIP3   OH244028   5.109   3.005   2.259  0.0231  0.0493 -0.1441
 7538TIP3    H144029   5.101   3.100   2.246  0.3120  0.2843  1.3154
 7538TIP3    H244030   5.201   2.991   2.280 -0.1137 -0.5003  0.0922
 7539TIP3   OH244031   3.686   5.355   5.733  0.1255  0.7836  0.3753
 7539TIP3    H144032   3.755   5.376   5.797  1.2212  1.6178 -1.0639
 7539TIP3    H244033   3.719   5.387   5.650 -1.0676 -0.7716 -0.7372
 7540TIP3   OH244034   4.799   1.322   1.141  0.1179  0.8520  0.2495
 7540TIP3    H144035   4.725   1.281   1.094 -0.8247  1.2353  1.3727
 7540TIP3    H244036   4.830   1.254   1.201  0.4731  0.7975  0.0036
 7541TIP3   OH244037   0.323   3.356   4.662 -0.3120 -0.2095  0.2866
 7541TIP3    H144038   0.295   3.389   4.747 -2.3993  1.0503 -0.8485
 7541TIP3    H244039   0.274   3.274   4.652 -0.0727 -0.3529  0.2909
 7542TIP3   OH244040   0.067   2.145  13.684 -0.8644 -0.3790 -0.0566
 7542TIP3    H144041   0.021   2.123  13.603  0.3878 -0.8449 -0.6607
 7542TIP3    H244042   0.031   2.230  13.710 -1.9965 -0.7058 -0.5469
 7543TIP3   OH244043   0.823   4.367  14.735 -0.0151  0.1271  0.2480
 7543TIP3    H144044   0.727   4.363  14.733 -0.0032 -0.2124  0.2580
 7543TIP3    H244045   0.842   4.443  14.789 -0.2777  0.7689 -0.5628
 7544TIP3   OH244046   0.377   5.650   4.784  0.2573  0.4000  0.2090
 7544TIP3    H144047   0.344   5.734   4.751  3.2213  1.5152 -0.0973
 7544TIP3    H244048   0.383   5.662   4.879  1.0047  0.6825  0.1322
 7545TIP3   OH244049   5.466   0.970   3.149 -0.0430  0.0431  0.7940
 7545TIP3    H144050   5.388   0.923   3.180 -1.0040 -0.7829 -2.6489
 7545TIP3    H244051   5.522   0.901   3.114  0.4667  1.0250 -0.3333
 7546TIP3   OH244052   4.446   3.528   3.686  0.2056 -0.1855 -0.0714
 7546TIP3    H144053   4.518   3.589   3.703 -1.0975  1.1937  0.6274
 7546TIP3    H244054   4.476   3.444   3.720  1.3121  0.4671  0.5779
 7547TIP3   OH244055   2.372   1.319   2.499 -0.4649  0.3303 -0.2599
 7547TIP3    H144056   2.341   1.397   2.544 -0.4088 -1.1840  2.5113
 7547TIP3    H244057   2.450   1.348   2.451 -0.5186  1.9705  0.6300
 7548TIP3   OH244058   3.187   0.713   4.903 -0.0999 -0.1263  0.0321
 7548TIP3    H144059   3.254   0.779   4.919  0.6354  0.0985 -3.4916
 7548TIP3    H244060   3.237   0.634   4.880 -0.9929  0.0267 -2.5722
 7549TIP3   OH244061   6.539   0.418   1.062  0.2032 -0.4441  1.1522
 7549TIP3    H144062   6.571   0.330   1.046  1.6691  0.4640 -1.1162
 7549TIP3    H244063   6.460   0.425   1.009  0.7271 -0.0208  0.4208
 7550TIP3   OH244064   4.235   3.284   6.336  0.5458  0.3376  0.0420
 7550TIP3    H144065   4.166   3.226   6.303  0.7190 -0.0651  0.3866
 7550TIP3    H244066   4.316   3.243   6.307  0.6841  0.1825  0.6513
 7551TIP3   OH244067   3.612   4.965  15.913  0.3309  0.0135  0.4303
 7551TIP3    H144068   3.623   5.007  15.828  0.3751 -1.2126 -0.1801
 7551TIP3    H244069   3.518   4.949  15.920  0.4638 -0.9298  0.1003
 7552TIP3   OH244070   1.793   4.894  12.824  0.5573  0.1107  0.3239
 7552TIP3    H144071   1.704   4.898  12.790  0.6766 -0.7770 -0.1194
 7552TIP3    H244072   1.784   4.856  12.912  0.4863  0.0663  0.2987
 7553TIP3   OH244073   4.022   5.080   1.977  0.1044  0.7413 -0.6133
 7553TIP3    H144074   4.084   5.047   2.043 -0.8033 -0.3769 -0.3048
 7553TIP3    H244075   4.073   5.142   1.926  1.8847 -1.1211 -1.1904
 7554TIP3   OH244076   1.647   1.366  14.570  0.1201  0.6585 -0.5866
 7554TIP3    H144077   1.641   1.294  14.507  1.6206 -0.6142  0.6878
 7554TIP3    H244078   1.740   1.371  14.592 -0.2070  1.9403  0.5506
 7555TIP3   OH244079   2.957   5.524   4.685  0.6455 -0.0113  0.2270
 7555TIP3    H144080   2.894   5.541   4.755  0.6620 -1.9085  0.7422
 7555TIP3    H244081   2.903   5.511   4.607  0.6299  2.1419 -0.1367
 7556TIP3   OH244082   0.825   4.803   0.472 -1.1645  0.2816 -0.5149
 7556TIP3    H144083   0.857   4.716   0.448 -0.6326  0.3076  0.0995
 7556TIP3    H244084   0.856   4.860   0.401  0.6429  0.4057  0.3647
 7557TIP3   OH244085   6.159   3.730  15.440 -1.0056 -0.1319 -0.0445
 7557TIP3    H144086   6.135   3.735  15.532  1.4544 -2.7863  0.8050
 7557TIP3    H244087   6.238   3.676  15.438 -1.6192 -1.0614 -3.8221
 7558TIP3   OH244088   3.947   3.079  15.594  0.3037  0.5664 -0.2651
 7558TIP3    H144089   3.973   2.993  15.626 -0.2902  0.5432  0.1781
 7558TIP3    H244090   3.915   3.063  15.505  1.3093  0.5187 -0.6180
 7559TIP3   OH244091   1.000   4.680   3.881 -0.3326  0.4261  0.1289
 7559TIP3    H144092   0.983   4.598   3.928 -5.1263 -0.6365 -3.0759
 7559TIP3    H244093   0.922   4.734   3.899  2.3583  4.0699  1.5096
 7560TIP3   OH244094   5.427   4.731  12.190  0.1646 -0.0850  0.2390
 7560TIP3    H144095   5.430   4.800  12.257  0.4774 -1.7697  1.9766
 7560TIP3    H244096   5.343   4.745  12.145  0.2040  1.3918  0.5755
 7561TIP3   OH244097   4.837   5.127  15.960  0.2606  0.1656 -0.3015
 7561TIP3    H144098   4.910   5.187  15.945  0.5902 -0.2809 -0.5067
 7561TIP3    H244099   4.816   5.092  15.873 -0.0729  0.1460 -0.2158
 7562TIP3   OH244100   4.867   0.849  11.770 -0.1822 -0.1306 -0.1754
 7562TIP3    H144101   4.806   0.785  11.807 -0.1513 -0.3556 -0.5094
 7562TIP3    H244102   4.843   0.854  11.677 -0.0853  0.2295 -0.1819
 7563TIP3   OH244103   0.366   2.828  15.095  0.0429 -0.1062  0.0833
 7563TIP3    H144104   0.358   2.859  15.185  0.8062  0.7677 -0.1495
 7563TIP3    H244105   0.396   2.904  15.046  2.2116 -1.2752 -0.4529
 7564TIP3   OH244106   5.766   2.997   1.332 -0.5133 -0.4908  0.0453
 7564TIP3    H144107   5.728   2.923   1.380  2.4707 -1.6236  0.8069
 7564TIP3    H244108   5.807   2.957   1.255  1.2503  0.3121  0.5398
 7565TIP3   OH244109   6.212   3.731  14.336 -0.0400 -0.2269 -0.3089
 7565TIP3    H144110   6.120   3.739  14.362  0.4294 -0.1637  1.4499
 7565TIP3    H244111   6.234   3.640  14.353  0.5549  0.0558  0.4838
 7566TIP3   OH244112   0.278   1.517   3.134 -0.4224  0.1050 -0.3209
 7566TIP3    H144113   0.271   1.547   3.225 -0.4083 -0.4756 -0.1254
 7566TIP3    H244114   0.195   1.473   3.117 -1.6371  2.7165 -1.5436
 7567TIP3   OH244115   1.467   0.702   4.853  0.8389  0.2058  0.0617
 7567TIP3    H144116   1.373   0.688   4.846  1.0420 -0.9307 -0.6426
 7567TIP3    H244117   1.476   0.785   4.899 -0.5037  0.2585  0.2473
 7568TIP3   OH244118   1.666   1.016  10.395 -0.6302  0.2552 -0.2856
 7568TIP3    H144119   1.616   0.943  10.432  2.4698 -2.4506 -1.1929
 7568TIP3    H244120   1.733   1.033  10.461  0.4024  0.3532 -1.3563
 7569TIP3   OH244121   2.918   4.165   0.820  0.5731  0.0016  0.6494
 7569TIP3    H144122   2.875   4.097   0.873  1.0791 -0.8325 -0.0012
 7569TIP3    H244123   3.005   4.130   0.803  1.7211  1.8829  2.3601
 7570TIP3   OH244124   4.282   4.212  13.473 -0.0470 -0.1675  0.6522
 7570TIP3    H144125   4.285   4.259  13.389 -0.6668  2.3107  1.9712
 7570TIP3    H244126   4.374   4.190  13.491  0.2441  0.4693 -0.0335
 7571TIP3   OH244127   5.421   6.396  11.357  0.0970  0.0200  0.7229
 7571TIP3    H144128   5.415   6.492  11.355 -2.6961 -0.0915  1.8133
 7571TIP3    H244129   5.392   6.368  11.271 -0.2831  0.0988  0.8258
 7572TIP3   OH244130   4.531   1.239  16.882 -0.1488  0.2131 -0.1683
 7572TIP3    H144131   4.589   1.171  16.848  1.4181  1.7728 -0.6131
 7572TIP3    H244132   4.546   1.238  16.976  1.1409  1.1053 -0.3580
 7573TIP3   OH244133   2.888   2.448   3.298 -0.4216 -0.3720 -0.3074
 7573TIP3    H144134   2.810   2.489   3.336  0.6059  0.5246  0.8633
 7573TIP3    H244135   2.911   2.504   3.224  1.4565  1.6837  1.7797
 7574TIP3   OH244136   5.096   2.942   3.954 -0.4916 -0.3528  0.2848
 7574TIP3    H144137   5.190   2.925   3.962 -0.5545 -0.8132  0.0471
 7574TIP3    H244138   5.085   2.968   3.863 -0.5272  0.1325  0.4281
 7575TIP3   OH244139   0.036   2.238   2.410  0.0146 -0.3338 -0.6704
 7575TIP3    H144140   0.018   2.277   2.496  1.3730 -0.8183 -0.1529
 7575TIP3    H244141   0.106   2.175   2.426  1.7856  1.0966 -2.4856
 7576TIP3   OH244142   1.955   2.013  16.153 -0.0454 -0.0141 -0.7925
 7576TIP3    H144143   1.957   2.108  16.141 -0.1789  0.0069 -0.6440
 7576TIP3    H244144   1.936   1.978  16.066  0.2014  0.0857 -0.8862
 7577TIP3   OH244145   3.375   2.832  11.563 -0.0048 -0.1863 -0.0691
 7577TIP3    H144146   3.305   2.767  11.558 -1.2362  1.1429 -0.7402
 7577TIP3    H244147   3.329   2.915  11.577  1.4453  0.7078 -0.5150
 7578TIP3   OH244148   1.975   6.520   0.674  0.1224 -0.1650  0.0532
 7578TIP3    H144149   2.032   6.588   0.636  0.0906 -0.4379 -0.4814
 7578TIP3    H244150   1.949   6.467   0.600 -1.4147  0.3784  0.1971
 7579TIP3   OH244151   3.223   3.373   4.395 -0.3348  0.0027 -0.1169
 7579TIP3    H144152   3.276   3.350   4.472 -0.1332  1.8633  0.3471
 7579TIP3    H244153   3.287   3.404   4.331 -0.8402  3.2245  0.8032
 7580TIP3   OH244154   0.309   4.193  16.309  0.7486  0.0111  0.0528
 7580TIP3    H144155   0.280   4.284  16.308 -0.0068 -0.2144  1.3449
 7580TIP3    H244156   0.343   4.178  16.221 -2.3658  0.4989 -1.2899
 7581TIP3   OH244157   5.202   3.997   2.801  0.1960 -0.0255 -0.0208
 7581TIP3    H144158   5.256   4.054   2.856  0.4732 -0.8531  0.5673
 7581TIP3    H244159   5.190   4.047   2.720  0.5967  0.7886  0.4143
 7582TIP3   OH244160   4.602   2.128  14.099  0.0842 -0.1591  0.3356
 7582TIP3    H144161   4.543   2.171  14.161 -1.9335 -1.2921 -0.7507
 7582TIP3    H244162   4.681   2.183  14.098 -1.0381  1.5047  1.6485
 7583TIP3   OH244163   1.564   3.496   5.214  0.3293  0.2129  0.9050
 7583TIP3    H144164   1.656   3.486   5.236  0.6479 -0.1606 -0.5456
 7583TIP3    H244165   1.555   3.589   5.189  1.0172 -0.4508 -2.0028
 7584TIP3   OH244166   6.297   6.376  16.075 -0.3209  0.0663 -0.4701
 7584TIP3    H144167   6.338   6.307  16.126 -0.5169 -0.4712 -1.0268
 7584TIP3    H244168   6.237   6.419  16.136  0.7410  0.5709  0.2201
 7585TIP3   OH244169   6.443   0.608  12.928  0.4487  0.7901 -0.3999
 7585TIP3    H144170   6.441   0.558  13.009  0.9805  1.6775  0.1685
 7585TIP3    H244171   6.393   0.555  12.866  0.7700 -0.3109  0.2643
 7586TIP3   OH244172   1.162   6.337   3.265  0.7613  0.1834 -0.3860
 7586TIP3    H144173   1.077   6.300   3.289  1.0082 -0.5067 -0.5783
 7586TIP3    H244174   1.223   6.264   3.272  1.3243  0.6603 -0.3374
 7587TIP3   OH244175   1.418   4.502   0.919 -0.0096 -0.0695  0.8072
 7587TIP3    H144176   1.340   4.507   0.975 -1.4178 -2.1504 -0.8747
 7587TIP3    H244177   1.474   4.439   0.963 -0.6137 -0.8484  0.4688
 7588TIP3   OH244178   4.415   0.281  13.880  0.1584  0.2600 -0.2846
 7588TIP3    H144179   4.385   0.263  13.791 -1.4110 -0.6821  0.3942
 7588TIP3    H244180   4.370   0.215  13.933  1.1908  0.7197  1.1805
 7589TIP3   OH244181   2.312   3.801  17.237  0.3519  0.4389 -0.9701
 7589TIP3    H144182   2.396   3.835  17.208  0.1210  0.7676 -1.2630
 7589TIP3    H244183   2.312   3.815  17.332  1.1808 -0.8051 -0.7787
 7590TIP3   OH244184   1.687   6.099  16.188  0.0139 -0.1611  0.0025
 7590TIP3    H144185   1.751   6.146  16.241  0.3106 -0.3648 -0.1698
 7590TIP3    H244186   1.709   6.006  16.201 -0.6165 -0.2591  0.4105
 7591TIP3   OH244187   3.118   6.695  15.361 -0.3731  0.1309  0.6884
 7591TIP3    H144188   3.184   6.744  15.312 -0.7553  0.6345  0.6711
 7591TIP3    H244189   3.164   6.616  15.391 -0.1869 -0.2636 -0.6192
 7592TIP3   OH244190   1.865   1.015  14.652 -0.1944  0.4365 -0.3597
 7592TIP3    H144191   1.944   1.030  14.600  0.3357  1.8976  0.8437
 7592TIP3    H244192   1.886   0.938  14.706  0.4771  0.9243  0.0824
 7593TIP3   OH244193   3.682   0.441  16.108  0.3271  0.3220 -0.1410
 7593TIP3    H144194   3.669   0.425  16.014  3.9638 -1.9866 -0.3299
 7593TIP3    H244195   3.720   0.529  16.112 -2.8981  1.8309 -0.4767
 7594TIP3   OH244196   6.493   4.332   2.612  0.0811 -0.3515 -0.8384
 7594TIP3    H144197   6.407   4.360   2.580 -0.2600  0.4016  0.6940
 7594TIP3    H244198   6.545   4.412   2.614  0.0710 -0.3738  0.5549
 7595TIP3   OH244199   5.659   1.969  15.394 -0.2397  0.5321 -0.6235
 7595TIP3    H144200   5.726   1.902  15.383  0.1152  0.5487  1.1615
 7595TIP3    H244201   5.582   1.935  15.348  0.0629 -0.9165 -0.0673
 7596TIP3   OH244202   0.951   4.985  16.184  0.0527 -0.1433 -0.3927
 7596TIP3    H144203   0.927   4.907  16.135  0.6338 -0.7330  0.2549
 7596TIP3    H244204   1.032   4.962  16.229  0.0773  0.7315  0.0339
 7597TIP3   OH244205   1.689   2.775  16.391  0.4757 -0.0138  0.5060
 7597TIP3    H144206   1.784   2.775  16.394  0.4956 -2.0960  0.2899
 7597TIP3    H244207   1.662   2.759  16.481  0.2591  2.6530  0.9763
 7598TIP3   OH244208   4.846   2.871   4.085  0.3286  0.3262  0.2040
 7598TIP3    H144209   4.841   2.786   4.040  1.9879 -0.8151  2.0499
 7598TIP3    H244210   4.925   2.912   4.049 -1.3440  1.8235 -1.8433
 7599TIP3   OH244211   1.914   5.136  12.764  0.2539 -0.6215  0.8086
 7599TIP3    H144212   1.867   5.059  12.796 -1.6741 -0.4131 -1.4159
 7599TIP3    H244213   1.872   5.157  12.681  0.8211  2.7808  1.3290
 7600TIP3   OH244214   2.957   6.708   0.910 -0.0664  0.3539  0.5588
 7600TIP3    H144215   3.017   6.727   0.982 -0.2397  0.1151  0.7638
 7600TIP3    H244216   2.885   6.660   0.950 -0.2870  0.4442  0.2716
 7601TIP3   OH244217   1.878   5.733  14.466 -0.1032 -0.1442  0.3396
 7601TIP3    H144218   1.930   5.653  14.475 -1.4315 -1.0714 -0.0637
 7601TIP3    H244219   1.839   5.747  14.552  0.6868  0.4685  0.6026
 7602TIP3   OH244220   1.202   4.446  14.487  0.3302  0.0603 -0.3976
 7602TIP3    H144221   1.195   4.376  14.552  1.1349  1.3697  1.1366
 7602TIP3    H244222   1.124   4.500  14.500  1.7256  1.7300  1.1942
 7603TIP3   OH244223   0.717   1.705   2.133 -0.1845 -0.1933 -0.1010
 7603TIP3    H144224   0.640   1.756   2.157  0.4967  1.5471 -1.5499
 7603TIP3    H244225   0.787   1.740   2.188 -0.0972 -0.8141  0.1960
 7604TIP3   OH244226   2.536   4.286  15.147 -0.1268  0.2249 -0.1850
 7604TIP3    H144227   2.467   4.277  15.082 -0.2325 -0.9929  0.0884
 7604TIP3    H244228   2.552   4.197  15.179 -0.1138  0.8077  1.4915
 7605TIP3   OH244229   4.186   5.648  13.023 -0.1454 -0.2671  0.1527
 7605TIP3    H144230   4.249   5.584  12.989  0.9226  0.3460  0.9201
 7605TIP3    H244231   4.241   5.719  13.056 -1.3356  1.5155 -1.5949
 7606TIP3   OH244232   5.796   1.308  12.043  0.4691 -0.1313 -0.4642
 7606TIP3    H144233   5.854   1.232  12.034 -0.3608 -0.6124 -2.0121
 7606TIP3    H244234   5.850   1.375  12.084  1.9093 -0.8118 -1.2045
 7607TIP3   OH244235   0.850   3.492   2.409 -0.2968  0.9176  0.0789
 7607TIP3    H144236   0.785   3.423   2.417 -0.0069  0.5052 -1.0249
 7607TIP3    H244237   0.927   3.458   2.455 -1.0262  1.6371  1.8663
 7608TIP3   OH244238   4.145   2.193  15.589  0.7926  0.0087 -0.1082
 7608TIP3    H144239   4.124   2.224  15.677  0.3035  0.7286 -0.4770
 7608TIP3    H244240   4.185   2.107  15.603 -0.1196 -0.2807  0.7560
 7609TIP3   OH244241   5.421   6.750  13.379 -0.2700  0.2772 -0.4372
 7609TIP3    H144242   5.459   6.799  13.453 -1.2276 -1.9533  1.6169
 7609TIP3    H244243   5.471   6.668  13.377 -0.3877  0.2439 -2.1473
 7610TIP3   OH244244   1.358   0.594  16.393 -0.2661 -0.1077 -0.0802
 7610TIP3    H144245   1.350   0.504  16.426 -1.0527  0.0760  0.2289
 7610TIP3    H244246   1.452   0.605  16.377  0.1228 -0.2381  2.0074
 7611TIP3   OH244247   6.531   4.045  14.617  0.2613 -0.1219 -0.3498
 7611TIP3    H144248   6.472   4.003  14.555  1.0397  0.0770 -1.2334
 7611TIP3    H244249   6.587   4.102  14.563  1.1607 -0.1945  0.4824
 7612TIP3   OH244250   6.561   6.575  13.517  0.4405 -0.5006  0.0435
 7612TIP3    H144251   6.560   6.508  13.585 -0.3122  0.2599  0.7944
 7612TIP3    H244252   6.475   6.616  13.523  0.2717 -0.6024 -1.5496
 7613TIP3   OH244253   6.127   4.679   0.074  0.5680 -0.0248 -0.0393
 7613TIP3    H144254   6.078   4.598   0.087 -0.1218  0.4353  0.2650
 7613TIP3    H244255   6.066   4.738   0.030  1.4172 -0.0277 -1.2377
 7614TIP3   OH244256   5.551   3.261  13.153 -0.2890  0.3171 -0.2007
 7614TIP3    H144257   5.609   3.191  13.123  0.4911  0.0083  1.9471
 7614TIP3    H244258   5.478   3.214  13.194  0.7663  0.7409  2.2257
 7615TIP3   OH244259   3.591   1.406  12.576 -0.4461 -0.7812  0.6815
 7615TIP3    H144260   3.555   1.377  12.493 -0.5268  0.0346  0.4214
 7615TIP3    H244261   3.605   1.326  12.626  0.6423 -1.3639 -0.5341
 7616TIP3   OH244262   1.326   3.933   4.574 -0.5419 -0.0575 -0.1113
 7616TIP3    H144263   1.263   3.862   4.586 -1.2690  0.8740  1.8383
 7616TIP3    H244264   1.404   3.903   4.620 -0.4949 -0.0468 -0.1856
 7617TIP3   OH244265   3.736   2.484   2.958 -0.7621 -0.3376 -0.5458
 7617TIP3    H144266   3.762   2.576   2.951 -0.8298 -0.3514 -1.0519
 7617TIP3    H244267   3.749   2.461   3.050 -1.0360  0.2668 -0.3563
 7618TIP3   OH244268   4.745   5.370   1.371 -0.4394  0.4247 -0.0768
 7618TIP3    H144269   4.713   5.281   1.352 -0.9555  0.6269 -0.1776
 7618TIP3    H244270   4.838   5.367   1.349  0.4739 -1.1747  3.6218
 7619TIP3   OH244271   0.397   4.796   5.004  0.2165  0.5757  0.3702
 7619TIP3    H144272   0.346   4.811   4.924  0.6506  0.1886  0.0214
 7619TIP3    H244273   0.451   4.874   5.014  0.3291  0.5237  0.1599
 7620TIP3   OH244274   6.005   0.341  15.264  0.3923  0.0294 -0.4742
 7620TIP3    H144275   5.975   0.371  15.178 -0.4682 -0.7984 -0.4717
 7620TIP3    H244276   6.077   0.282  15.245  0.7196  0.4676 -0.5888
 7621TIP3   OH244277   5.040   5.426   4.551  0.2124 -0.3820 -0.1456
 7621TIP3    H144278   4.979   5.478   4.498 -0.4151 -0.1746  0.7456
 7621TIP3    H244279   5.117   5.482   4.561  0.2297 -0.3207 -0.6261
 7622TIP3   OH244280   5.477   2.426   4.580 -0.9683  0.3847 -0.6738
 7622TIP3    H144281   5.479   2.521   4.583  0.5312  0.3143  0.8958
 7622TIP3    H244282   5.433   2.400   4.661  0.3814 -0.2970 -0.1367
 7623TIP3   OH244283   6.365   2.241   1.624 -0.4672 -0.4734  0.9476
 7623TIP3    H144284   6.343   2.333   1.614  1.1553 -0.4131 -2.8636
 7623TIP3    H244285   6.448   2.240   1.672 -0.4072  0.0332  0.8482
 7624TIP3   OH244286   4.512   2.965   5.802  0.3845  0.2999  0.5925
 7624TIP3    H144287   4.464   2.885   5.825 -0.0913  0.6290  0.7468
 7624TIP3    H244288   4.502   2.971   5.707 -1.4325  1.3345  0.8115
 7625TIP3   OH244289   5.070   3.410  14.112  0.8568 -0.3342  0.1921
 7625TIP3    H144290   5.014   3.405  14.034 -1.1814  0.8580  1.5104
 7625TIP3    H244291   5.022   3.360  14.178  1.2878  0.8459  1.4011
 7626TIP3   OH244292   2.219   2.350  14.902  0.0637 -0.4365  0.2106
 7626TIP3    H144293   2.278   2.413  14.944 -0.9667  0.1402  0.7911
 7626TIP3    H244294   2.224   2.372  14.809  0.3136 -0.0112  0.3207
 7627TIP3   OH244295   6.698   0.176  15.718  0.1261  0.8478  0.1000
 7627TIP3    H144296   6.603   0.174  15.732 -0.2352  0.5200 -2.1637
 7627TIP3    H244297   6.721   0.086  15.695  0.6519  1.3195 -1.2733
 7628TIP3   OH244298   5.970   2.043  16.057 -0.2062  0.0361 -0.3973
 7628TIP3    H144299   6.064   2.032  16.072  0.1428 -0.2515 -2.5640
 7628TIP3    H244300   5.936   2.075  16.140  1.7799 -0.0367  0.4792
 7629TIP3   OH244301   4.600   3.774   4.373 -0.2903  0.5719 -0.2215
 7629TIP3    H144302   4.692   3.761   4.397 -0.4925  0.4085  0.4873
 7629TIP3    H244303   4.553   3.705   4.419 -0.6488 -0.0691 -1.5231
 7630TIP3   OH244304   5.345   2.983  14.887 -0.1413  0.3716 -0.0712
 7630TIP3    H144305   5.327   3.061  14.939  0.8710  0.1918  0.5683
 7630TIP3    H244306   5.436   2.960  14.909 -0.5782 -1.2551  0.0887
 7631TIP3   OH244307   3.530   0.441  13.021 -0.1046 -0.0782  0.6082
 7631TIP3    H144308   3.464   0.384  12.981  0.3288 -0.1588 -0.0078
 7631TIP3    H244309   3.572   0.386  13.087 -1.3811  0.3067  1.7549
 7632TIP3   OH244310   6.609   0.601  14.421  0.3053  0.3031  0.0072
 7632TIP3    H144311   6.649   0.655  14.489 -0.6191 -0.8194  1.4621
 7632TIP3    H244312   6.570   0.664  14.361  0.7624  1.3018  0.7381
 7633TIP3   OH244313   1.365   2.876  12.712 -0.2590  0.7020 -0.4366
 7633TIP3    H144314   1.382   2.970  12.708 -0.3632  0.7605  0.4350
 7633TIP3    H244315   1.308   2.864  12.787 -0.1878 -0.0694 -0.4932
 7634TIP3   OH244316   0.396   3.649   4.688 -0.3852 -0.4551  0.0317
 7634TIP3    H144317   0.388   3.624   4.780 -1.2586  0.0331  0.0911
 7634TIP3    H244318   0.322   3.608   4.645 -0.7133  0.4017 -0.2219
 7635TIP3   OH244319   3.919   6.392  11.912 -0.2196  0.0819 -0.0704
 7635TIP3    H144320   3.939   6.483  11.891  0.2782 -0.2676 -1.1089
 7635TIP3    H244321   4.000   6.357  11.948 -0.3834  0.0151  0.2402
 7636TIP3   OH244322   6.301   5.032  13.391  0.5194 -0.4669  0.1230
 7636TIP3    H144323   6.383   4.994  13.425  0.4873 -2.2757 -1.7146
 7636TIP3    H244324   6.240   5.025  13.464  1.7604  0.1421  1.2493
 7637TIP3   OH244325   6.506   4.992  17.151 -0.1810 -0.2352  0.1351
 7637TIP3    H144326   6.457   5.070  17.177  1.6407  0.5223  1.3642
 7637TIP3    H244327   6.448   4.919  17.173 -0.3646  0.5952  2.4819
 7638TIP3   OH244328   4.268   4.979  15.939 -1.0176  0.4545 -0.0349
 7638TIP3    H144329   4.247   4.940  16.024  1.9237 -0.4421  0.3562
 7638TIP3    H244330   4.190   4.967  15.886 -1.6927 -2.0538  1.4906
 7639TIP3   OH244331   1.112   5.264  17.014  0.4625 -0.1553 -0.6132
 7639TIP3    H144332   1.127   5.325  17.085  1.0991 -0.5137 -0.4363
 7639TIP3    H244333   1.071   5.188  17.055 -1.9483  0.8399 -1.1001
 7640TIP3   OH244334   4.619   1.991   4.699 -0.1876 -0.3035  0.3413
 7640TIP3    H144335   4.595   2.041   4.621  0.4952  0.0500  0.3483
 7640TIP3    H244336   4.603   2.051   4.772 -0.6947 -0.5862  0.4658
 7641TIP3   OH244337   5.389   1.992  12.774  0.2055 -0.1346  0.4291
 7641TIP3    H144338   5.318   1.934  12.743  0.5510 -0.2156 -0.2187
 7641TIP3    H244339   5.463   1.933  12.788  0.3930  0.0678  0.2943
 7642TIP3   OH244340   6.117   0.666   5.515  0.2190  0.3331  0.0819
 7642TIP3    H144341   6.117   0.623   5.429 -0.9738  1.1282 -0.3253
 7642TIP3    H244342   6.187   0.621   5.563  2.4241  1.3179 -2.0322
 7643TIP3   OH244343   1.875   3.975  13.525  0.4438 -0.4939  0.1550
 7643TIP3    H144344   1.847   3.886  13.507 -0.1900  0.0054 -1.4047
 7643TIP3    H244345   1.816   4.030  13.473  1.2202  0.8027  0.6141
 7644TIP3   OH244346   4.563   5.915   6.438  0.2070 -0.0091  0.5762
 7644TIP3    H144347   4.537   5.993   6.487 -0.3860 -0.1795  0.5395
 7644TIP3    H244348   4.493   5.852   6.454  0.8024 -0.6188  0.7941
 7645TIP3   OH244349   1.374   2.512   5.720  0.3683 -0.1520 -0.3422
 7645TIP3    H144350   1.380   2.489   5.813 -4.1281 -0.2315  0.0691
 7645TIP3    H244351   1.310   2.583   5.718  0.2593 -0.2885 -3.3958
 7646TIP3   OH244352   0.909   2.672   6.544 -0.5416 -0.5787  0.3621
 7646TIP3    H144353   1.004   2.659   6.552 -0.7520 -1.6218  1.3813
 7646TIP3    H244354   0.874   2.583   6.543 -1.6813 -0.1864  2.4067
 7647TIP3   OH244355   6.715   0.187   2.427  0.2483 -0.0768  0.4718
 7647TIP3    H144356   6.774   0.230   2.366 -0.6888 -2.2572 -2.0731
 7647TIP3    H244357   6.632   0.234   2.417 -0.9426 -2.6549 -2.7406
 7648TIP3   OH244358   5.437   4.430   1.244  0.4061 -0.1609 -0.1754
 7648TIP3    H144359   5.466   4.380   1.168 -0.2543 -1.4177  0.3865
 7648TIP3    H244360   5.502   4.410   1.312 -0.1380 -0.6453  0.1996
 7649TIP3   OH244361   2.904   5.683   1.644  0.1490  0.0734 -0.2838
 7649TIP3    H144362   2.876   5.774   1.658  1.6244  0.9848 -2.8307
 7649TIP3    H244363   2.828   5.640   1.607 -0.5387  0.3000  0.8619
 7650TIP3   OH244364   6.154   2.883  10.334 -0.2364 -0.2848  0.5105
 7650TIP3    H144365   6.111   2.797  10.332  0.7304 -0.7619 -2.0483
 7650TIP3    H244366   6.245   2.864  10.312 -0.0322  1.4185 -0.1448
 7651TIP3   OH244367   4.710   4.252  12.124  0.2090  0.2406 -0.6378
 7651TIP3    H144368   4.638   4.207  12.080 -4.2649  2.6254  3.7711
 7651TIP3    H244369   4.752   4.185  12.177  2.0535 -1.3717 -3.9324
 7652TIP3   OH244370   5.656   3.719  14.896 -0.5320  0.1462  0.4702
 7652TIP3    H144371   5.565   3.721  14.867  0.5190  0.1765 -3.0986
 7652TIP3    H244372   5.660   3.783  14.967 -2.8146  1.8146 -0.8192
 7653TIP3   OH244373   3.811   3.932  13.848  0.5723  0.1888 -0.0189
 7653TIP3    H144374   3.802   3.979  13.765  0.2251 -0.1694 -0.1887
 7653TIP3    H244375   3.748   3.860  13.841 -0.5724  1.0491  1.1749
 7654TIP3   OH244376   6.308   0.198  16.328 -0.0414  0.2752 -0.1492
 7654TIP3    H144377   6.218   0.219  16.351 -0.1745 -0.8808  0.3884
 7654TIP3    H244378   6.350   0.175  16.411  0.8103  1.0048 -0.3615
 7655TIP3   OH244379   6.554   5.970  14.938 -0.3415 -0.3591 -0.1221
 7655TIP3    H144380   6.504   6.051  14.929 -0.6446 -0.5485 -0.1367
 7655TIP3    H244381   6.629   5.994  14.993 -1.1493 -0.3829  1.0093
 7656TIP3   OH244382   1.470   2.408  15.182  0.0873  0.2083 -0.0025
 7656TIP3    H144383   1.543   2.452  15.227  0.2166  1.1025 -1.0729
 7656TIP3    H244384   1.470   2.319  15.218  1.3865  0.3484  0.3722
 7657TIP3   OH244385   3.613   1.441   4.886 -0.4607 -0.3278  0.5212
 7657TIP3    H144386   3.691   1.385   4.882 -0.8713 -1.0604  2.3857
 7657TIP3    H244387   3.549   1.397   4.830  0.0646 -0.3762 -0.0407
 7658TIP3   OH244388   6.228   1.918   2.177 -0.7732  0.1151 -0.2598
 7658TIP3    H144389   6.313   1.959   2.191 -1.1553  0.6344  0.5685
 7658TIP3    H244390   6.221   1.907   2.082  0.8834 -1.3385 -0.2477
 7659TIP3   OH244391   2.056   4.204  16.675 -0.1817 -0.1032 -0.0279
 7659TIP3    H144392   2.027   4.248  16.595  0.6879  1.3040  0.3992
 7659TIP3    H244393   1.975   4.182  16.721 -0.7290 -1.8808 -1.7675
 7660TIP3   OH244394   6.772   1.017  16.592 -0.0712 -0.7268 -0.1457
 7660TIP3    H144395   6.703   1.065  16.546  0.6456 -0.4835 -0.9932
 7660TIP3    H244396   6.759   0.926  16.567 -1.5515 -1.0168  1.6158
 7661TIP3   OH244397   5.386   0.934  16.387 -0.4108  0.2249 -0.0214
 7661TIP3    H144398   5.296   0.940  16.355 -0.3006  1.1475 -0.1691
 7661TIP3    H244399   5.389   0.995  16.461  0.0527  0.0825  0.0774
 7662TIP3   OH244400   0.347   6.047  16.954 -0.6230  0.0578 -0.3487
 7662TIP3    H144401   0.400   6.124  16.939 -0.5094  0.1528  0.4966
 7662TIP3    H244402   0.395   5.975  16.913 -0.5055  0.3607 -0.7392
 7663TIP3   OH244403   3.188   3.139   2.931 -0.1757  0.8664  0.4096
 7663TIP3    H144404   3.209   3.232   2.922  1.1835  0.6368  1.0083
 7663TIP3    H244405   3.269   3.100   2.965 -0.3261 -0.7365 -1.0219
 7664TIP3   OH244406   2.186   2.474   2.346  0.0061  0.1314  0.2877
 7664TIP3    H144407   2.248   2.456   2.416  0.1449  0.4439  0.2451
 7664TIP3    H244408   2.119   2.529   2.387 -1.2506 -1.7436  0.8259
 7665TIP3   OH244409   6.136   4.091  12.601 -0.0044 -0.4570 -0.5962
 7665TIP3    H144410   6.219   4.139  12.597 -0.6666  0.7142 -0.4212
 7665TIP3    H244411   6.155   4.015  12.655  0.8276  0.0642 -0.1412
 7666TIP3   OH244412   3.137   2.133  14.229  0.2951 -0.0365  0.2844
 7666TIP3    H144413   3.177   2.143  14.315  1.5092 -0.2164 -0.2483
 7666TIP3    H244414   3.066   2.070  14.242  0.3087  0.1363  1.1953
 7667TIP3   OH244415   1.593   2.727  16.678 -0.0207 -0.0893  0.6042
 7667TIP3    H144416   1.536   2.802  16.664 -0.9923 -0.6166  1.7160
 7667TIP3    H244417   1.534   2.651  16.680  0.9899 -0.9765 -1.0497
 7668TIP3   OH244418   0.572   6.324   5.702 -0.8080 -0.1758  0.1698
 7668TIP3    H144419   0.633   6.295   5.634 -2.5715 -2.5597 -0.4659
 7668TIP3    H244420   0.626   6.331   5.781  0.8654  0.7082 -1.0160
 7669TIP3   OH244421   3.149   5.283  13.041 -0.3311 -0.1986 -0.4173
 7669TIP3    H144422   3.122   5.195  13.016 -3.0104  0.6050 -0.5562
 7669TIP3    H244423   3.073   5.320  13.085  0.5174  2.2654 -0.9068
 7670TIP3   OH244424   2.487   4.930   2.428  0.1464  0.3597  0.1757
 7670TIP3    H144425   2.541   4.851   2.425  0.4055  0.4314  1.9707
 7670TIP3    H244426   2.549   5.000   2.450 -0.3761  0.7388  0.4587
 7671TIP3   OH244427   2.175   5.740  11.186  0.0366  0.3548 -0.3451
 7671TIP3    H144428   2.194   5.695  11.104 -0.3609 -2.1902  0.8994
 7671TIP3    H244429   2.089   5.780  11.172 -0.0402 -0.0834 -1.1829
 7672TIP3   OH244430   1.516   2.840   4.325  0.4064 -0.0836 -0.0799
 7672TIP3    H144431   1.430   2.868   4.358  0.5607  0.2067  0.0708
 7672TIP3    H244432   1.500   2.820   4.233 -0.1803 -1.5657  0.3258
 7673TIP3   OH244433   0.002   0.862  16.196 -0.0157  0.2044 -0.3215
 7673TIP3    H144434  -0.090   0.854  16.220 -0.2540 -3.9501 -2.1610
 7673TIP3    H244435   0.001   0.907  16.112 -0.2911  0.9465  0.0746
 7674TIP3   OH244436   0.504   0.395  14.331  0.4001 -0.2644  0.1276
 7674TIP3    H144437   0.496   0.330  14.401 -0.4153  0.6813  0.9215
 7674TIP3    H244438   0.415   0.427  14.319  0.9987  1.6016  0.5904
 7675TIP3   OH244439   5.724   2.054   2.055  0.0538  0.3479 -0.2323
 7675TIP3    H144440   5.803   2.036   2.106  0.1196 -3.5117 -1.5368
 7675TIP3    H244441   5.756   2.081   1.969  0.0056 -1.6469 -0.9000
 7676TIP3   OH244442   6.765   2.351  11.994  0.3237 -0.0072  0.6931
 7676TIP3    H144443   6.833   2.286  11.974  0.1711 -0.1726  0.7144
 7676TIP3    H244444   6.687   2.318  11.949  0.7490  1.1953 -0.9974
 7677TIP3   OH244445   5.121   3.748   2.843  0.4637  0.4282  0.8659
 7677TIP3    H144446   5.169   3.829   2.823  0.6410  0.1547  0.1825
 7677TIP3    H244447   5.188   3.688   2.875  0.4385  0.3313  0.7350
 7678TIP3   OH244448   3.704   2.708  15.141 -0.5188  0.0763  0.4079
 7678TIP3    H144449   3.742   2.675  15.222 -1.0338 -0.0628  0.5983
 7678TIP3    H244450   3.673   2.796  15.164 -0.5789  0.0736  0.3367
 7679TIP3   OH244451   4.266   3.869  15.648 -0.0819 -0.0895 -0.6565
 7679TIP3    H144452   4.271   3.844  15.740  0.7798  0.4234 -0.5482
 7679TIP3    H244453   4.276   3.964  15.649 -1.4564  0.0590 -1.1818
 7680TIP3   OH244454   3.624   0.995   1.018  0.1616 -0.4209 -0.4601
 7680TIP3    H144455   3.699   0.989   1.076  0.5926 -3.4032 -1.2087
 7680TIP3    H244456   3.600   0.904   1.001 -2.7098  0.4438 -1.4218
 7681TIP3   OH244457   3.936   1.346   3.905  0.0729  0.6528 -0.3240
 7681TIP3    H144458   4.010   1.374   3.959  1.0350 -1.4781 -0.5003
 7681TIP3    H244459   3.860   1.354   3.964  0.7045  1.0580  0.4492
 7682TIP3   OH244460   4.373   1.472  15.099  0.2161 -0.1717 -0.0246
 7682TIP3    H144461   4.317   1.489  15.022  1.1140 -1.1403 -0.8952
 7682TIP3    H244462   4.338   1.392  15.137 -0.8309  0.8191  1.1588
 7683TIP3   OH244463   6.135   1.043  10.994  0.1011 -0.8560  0.2872
 7683TIP3    H144464   6.110   0.986  10.921 -2.5128 -0.3360  0.7377
 7683TIP3    H244465   6.158   1.126  10.953 -0.8407 -0.7340 -0.0069
 7684TIP3   OH244466   2.836   0.936  13.233  0.1665 -0.4123 -0.3684
 7684TIP3    H144467   2.902   0.881  13.274  1.3734 -0.9066 -2.8463
 7684TIP3    H244468   2.885   1.010  13.197 -0.9664  0.4854 -0.0814
 7685TIP3   OH244469   2.713   1.121  12.288  0.8355  0.1485  0.1963
 7685TIP3    H144470   2.767   1.183  12.240 -1.2804  1.7674 -0.1631
 7685TIP3    H244471   2.666   1.072  12.221  1.5126 -0.9546  0.5134
 7686TIP3   OH244472   6.365   6.129  14.806  0.1764  0.3730  0.2944
 7686TIP3    H144473   6.303   6.182  14.855 -1.7249 -1.7420  0.2355
 7686TIP3    H244474   6.422   6.193  14.762 -0.7174  2.3041  1.8959
 7687TIP3   OH244475   1.233   4.019   1.764  0.0630  0.4583 -0.3120
 7687TIP3    H144476   1.280   3.976   1.836  1.2197  0.5892 -0.9686
 7687TIP3    H244477   1.162   3.960   1.742 -1.7867  1.5067  2.5231
 7688TIP3   OH244478   0.444   3.045   5.838  0.7708 -0.3213  0.7784
 7688TIP3    H144479   0.415   2.967   5.885  1.2726 -2.0102 -1.5810
 7688TIP3    H244480   0.391   3.116   5.873 -0.3782 -1.8973  2.3080
 7689TIP3   OH244481   4.392   2.372  11.305 -0.0186  0.3335  0.1208
 7689TIP3    H144482   4.310   2.408  11.340 -0.1911 -0.4979  0.5694
 7689TIP3    H244483   4.381   2.378  11.210 -0.7989 -0.2094  0.1693
 7690TIP3   OH244484   5.521   5.426   1.374 -0.1431 -0.4953 -0.4989
 7690TIP3    H144485   5.584   5.392   1.438  0.3080 -0.7951 -1.0969
 7690TIP3    H244486   5.436   5.402   1.410  0.0150  0.9517  0.9207
 7691TIP3   OH244487   6.305   0.679  14.449 -0.4566  0.4752  0.1658
 7691TIP3    H144488   6.216   0.711  14.436 -1.0815 -1.3009 -0.0988
 7691TIP3    H244489   6.293   0.587  14.472  1.4436 -0.5117 -2.5885
 7692TIP3   OH244490   2.888   3.880  15.930  0.4725  0.0926  0.4179
 7692TIP3    H144491   2.907   3.789  15.908 -0.0904  0.1359 -0.2816
 7692TIP3    H244492   2.970   3.926  15.913  0.1863  0.0447 -1.1955
 7693TIP3   OH244493   4.616   2.615  15.248 -0.2177  0.1142  0.6930
 7693TIP3    H144494   4.643   2.523  15.238  1.0566  0.4717  0.6557
 7693TIP3    H244495   4.602   2.625  15.342 -1.6317 -0.4523  0.5466
 7694TIP3   OH244496   2.071   3.494   3.828  0.6016  0.1916  0.0731
 7694TIP3    H144497   2.100   3.467   3.915  2.4323  0.0607 -0.5581
 7694TIP3    H244498   2.129   3.567   3.805 -1.1416  1.4942 -0.2385
 7695TIP3   OH244499   1.770   5.732   1.673  0.4458 -0.3199 -0.0767
 7695TIP3    H144500   1.735   5.804   1.622  0.0116 -1.5182 -1.5048
 7695TIP3    H244501   1.829   5.686   1.613  0.1735 -1.5593  0.5789
 7696TIP3   OH244502   3.217   2.773   5.369  0.2970  0.1016 -0.3215
 7696TIP3    H144503   3.150   2.759   5.302 -1.7198  0.8353  1.4829
 7696TIP3    H244504   3.186   2.724   5.445  1.8176  0.4547  0.5522
 7697TIP3   OH244505   5.436   4.320  14.845  0.3304  0.4137 -0.1258
 7697TIP3    H144506   5.357   4.359  14.884 -0.1963 -0.2174 -0.5595
 7697TIP3    H244507   5.446   4.236  14.890  1.2597  0.8804  0.5513
 7698TIP3   OH244508   5.824   2.968  15.427  0.4185  0.1937 -0.4570
 7698TIP3    H144509   5.790   3.010  15.348  0.3568  0.7043 -0.1622
 7698TIP3    H244510   5.919   2.982  15.421  0.3346  1.0117 -0.0038
 7699TIP3   OH244511   3.388   3.294  11.544 -0.3493  0.7044  0.5174
 7699TIP3    H144512   3.371   3.228  11.612 -0.0260  1.4419  1.3185
 7699TIP3    H244513   3.469   3.263  11.502 -0.6980  0.1002  0.2782
 7700TIP3   OH244514   0.024   3.678  12.602  0.0146  0.2147 -0.0941
 7700TIP3    H144515   0.040   3.751  12.662  1.2221 -1.1689  1.3060
 7700TIP3    H244516  -0.068   3.656  12.614 -0.1683  1.0255  0.0216
 7701TIP3   OH244517   4.149   2.853  11.418 -0.1424 -0.1457  0.3039
 7701TIP3    H144518   4.173   2.771  11.461  0.6066  0.2387  0.6409
 7701TIP3    H244519   4.061   2.872  11.449 -0.5487 -1.1214 -0.2385
 7702TIP3   OH244520   3.990   1.755   4.739  0.1337 -0.0375 -0.9795
 7702TIP3    H144521   4.016   1.796   4.657  1.6300 -0.7326 -0.8751
 7702TIP3    H244522   4.028   1.667   4.735  0.0959 -0.1255  0.3919
 7703TIP3   OH244523   3.175   0.265  10.618  0.1266  0.3487 -0.3547
 7703TIP3    H144524   3.146   0.174  10.627 -0.2940  0.2866 -2.1734
 7703TIP3    H244525   3.096   0.317  10.631 -0.5792  0.2422 -3.6952
 7704TIP3   OH244526   3.483   6.013   2.180  0.0366  0.0921  0.5102
 7704TIP3    H144527   3.553   5.953   2.151 -1.5917 -0.7751 -1.7909
 7704TIP3    H244528   3.512   6.044   2.265  3.0197 -0.6263 -0.1743
 7705TIP3   OH244529   2.748   5.989   1.958  0.4384  0.0916  0.0438
 7705TIP3    H144530   2.790   5.980   2.043  0.2611 -2.0203 -0.0706
 7705TIP3    H244531   2.698   5.908   1.947  2.1292 -0.6068 -2.9867
 7706TIP3   OH244532   3.063   0.396   1.479  0.1576  0.1420  0.0757
 7706TIP3    H144533   2.978   0.361   1.507 -0.0392  2.2286  2.2520
 7706TIP3    H244534   3.071   0.368   1.388 -1.7824 -2.0986  0.5335
 7707TIP3   OH244535   2.753   3.089   4.075 -0.3177 -0.1776 -0.2929
 7707TIP3    H144536   2.769   3.037   4.154 -1.6260 -3.3111 -1.9668
 7707TIP3    H244537   2.683   3.149   4.099  0.2501 -0.1137  1.2895
 7708TIP3   OH244538   3.536   0.708  12.096 -0.0151  0.5331 -0.0212
 7708TIP3    H144539   3.560   0.691  12.187 -2.5259 -0.8450  0.4352
 7708TIP3    H244540   3.509   0.622  12.062  1.3652  0.9234 -2.2229
 7709TIP3   OH244541   3.149   1.448   4.055  0.1233 -0.1248  0.1301
 7709TIP3    H144542   3.125   1.509   4.124 -0.6315  0.9460 -1.0411
 7709TIP3    H244543   3.200   1.500   3.993 -0.9271 -0.5405 -1.1236
 7710TIP3   OH244544   5.760   1.449  16.080  0.0101  0.1735  0.6143
 7710TIP3    H144545   5.765   1.406  15.995  0.0427 -0.0610  0.7344
 7710TIP3    H244546   5.754   1.377  16.143 -0.1999  0.3491  0.7956
 7711TIP3   OH244547   6.252   3.471  11.633 -0.7282 -0.2106 -0.1648
 7711TIP3    H144548   6.237   3.418  11.554 -0.1126  1.0489 -1.1444
 7711TIP3    H244549   6.186   3.440  11.695  0.2657 -2.8017 -0.3609
 7712TIP3   OH244550   2.398   4.860  12.568 -0.4764 -0.1037  0.1103
 7712TIP3    H144551   2.388   4.922  12.496  0.3732 -0.4534 -0.3267
 7712TIP3    H244552   2.468   4.801  12.539 -2.1480 -2.0725 -0.0421
 7713TIP3   OH244553   3.085   3.877  13.892 -0.4602  0.4509  0.3403
 7713TIP3    H144554   3.091   3.782  13.900 -1.8312  0.1493 -1.8833
 7713TIP3    H244555   3.175   3.908  13.905 -0.1296 -1.0773  1.7680
 7714TIP3   OH244556   5.456   5.655  16.815 -0.0198 -0.6524 -0.9265
 7714TIP3    H144557   5.396   5.667  16.741 -1.1700  0.4014  0.1479
 7714TIP3    H244558   5.541   5.639  16.775 -0.8427 -1.2598 -2.4817
 7715TIP3   OH244559   5.332   1.745   2.322  0.3533  0.1840 -0.4850
 7715TIP3    H144560   5.353   1.834   2.349  0.0829  0.5102 -1.3273
 7715TIP3    H244561   5.390   1.728   2.248  0.9926 -0.6470  0.1925
 7716TIP3   OH244562   5.683   2.709  13.426  0.1459  0.7405 -1.0140
 7716TIP3    H144563   5.737   2.649  13.477 -0.9644  2.2241  2.0443
 7716TIP3    H244564   5.596   2.669  13.425 -0.3992  1.8341  0.3445
 7717TIP3   OH244565   4.573   1.548   0.574 -0.1956 -0.1693 -0.5138
 7717TIP3    H144566   4.654   1.543   0.626 -0.5375  3.0194  0.4474
 7717TIP3    H244567   4.516   1.481   0.611  1.6464 -1.7752 -0.5416
 7718TIP3   OH244568   5.346   2.746   1.391 -0.5056 -0.3179 -0.7369
 7718TIP3    H144569   5.347   2.840   1.410  0.8614 -0.2089 -1.2888
 7718TIP3    H244570   5.431   2.715   1.421 -0.9179 -1.3655 -0.6543
 7719TIP3   OH244571   1.435   2.898   3.187 -0.0760 -0.4708 -0.5694
 7719TIP3    H144572   1.423   2.940   3.102  0.7458  0.2405 -0.3510
 7719TIP3    H244573   1.515   2.938   3.222 -0.2521 -0.9556  0.4131
 7720TIP3   OH244574   4.272   1.316   4.946 -0.0568  0.7533 -0.0944
 7720TIP3    H144575   4.304   1.310   4.856  1.3775 -0.8120  0.4839
 7720TIP3    H244576   4.262   1.410   4.962  0.4861  1.0809 -1.6076
 7721TIP3   OH244577   4.415   2.280  11.850 -0.1358 -0.0435 -0.3795
 7721TIP3    H144578   4.506   2.257  11.834 -0.2017  0.0452 -0.8769
 7721TIP3    H244579   4.419   2.346  11.920  0.0453 -1.5966  1.0920
 7722TIP3   OH244580   1.699   1.126   2.105  0.2381 -0.1803  0.2889
 7722TIP3    H144581   1.668   1.036   2.102 -0.3880 -0.0714  2.4443
 7722TIP3    H244582   1.662   1.161   2.186  0.1013  2.1515 -0.7298
 7723TIP3   OH244583   2.561   6.505  13.759  0.1565  0.2956  0.6785
 7723TIP3    H144584   2.503   6.433  13.783 -0.8807  1.6105  2.2677
 7723TIP3    H244585   2.631   6.502  13.825  1.8941 -1.2251 -1.1745
 7724TIP3   OH244586   5.001   0.526   0.666 -0.1152  0.1984  0.3206
 7724TIP3    H144587   4.982   0.457   0.602  1.9652 -1.1258  1.0888
 7724TIP3    H244588   4.960   0.604   0.629 -3.5065 -1.6459 -0.0422
 7725TIP3   OH244589   1.602   3.927   3.200 -0.2366  0.2763  0.3951
 7725TIP3    H144590   1.509   3.946   3.206 -0.6673 -1.4704 -0.3398
 7725TIP3    H244591   1.606   3.838   3.165  1.7208  0.8059 -0.8184
 7726TIP3   OH244592   1.480   4.810  12.500 -0.5365  0.2500 -0.1425
 7726TIP3    H144593   1.455   4.761  12.422  1.8257 -1.4330  0.1038
 7726TIP3    H244594   1.485   4.744  12.569 -0.5741  1.3847  0.9623
 7727TIP3   OH244595   0.144   4.406  16.267 -0.6896 -0.5190 -0.3846
 7727TIP3    H144596   0.175   4.454  16.343 -1.6196  0.2828 -0.4976
 7727TIP3    H244597   0.066   4.454  16.239 -0.6354 -1.0996 -1.5366
 7728TIP3   OH244598   0.192   6.072   2.205 -0.2931 -0.2603 -0.6105
 7728TIP3    H144599   0.211   6.069   2.111 -0.9692  0.8448 -0.7861
 7728TIP3    H244600   0.106   6.113   2.211 -0.4299 -0.6822  0.4747
 7729TIP3   OH244601   5.613   3.714   3.350  0.2356  0.4283  0.2962
 7729TIP3    H144602   5.681   3.760   3.398  1.0244 -1.4671  1.0358
 7729TIP3    H244603   5.638   3.622   3.355 -2.4556 -0.3212  0.7123
 7730TIP3   OH244604   6.232   4.291   5.334 -0.2699 -0.0718  0.6219
 7730TIP3    H144605   6.326   4.309   5.332  0.1249 -2.0578 -1.9157
 7730TIP3    H244606   6.192   4.374   5.359  2.1076  0.9346  1.2774
 7731TIP3   OH244607   3.091   3.693   3.056 -0.1982  0.6882  0.1930
 7731TIP3    H144608   3.155   3.762   3.074 -0.6039  1.6941 -2.0451
 7731TIP3    H244609   3.007   3.729   3.084 -0.2532  0.6264  0.1056
 7732TIP3   OH244610   3.751   6.598   1.117 -0.4153 -0.4747  0.3060
 7732TIP3    H144611   3.676   6.626   1.064  0.3507  1.6237  0.2722
 7732TIP3    H244612   3.721   6.607   1.207  0.2439  1.8566  0.3367
 7733TIP3   OH244613   0.703   5.998  13.793  0.2579 -0.1053 -0.0676
 7733TIP3    H144614   0.643   6.068  13.820  0.2771  0.2576 -0.9483
 7733TIP3    H244615   0.757   5.982  13.870 -0.1623  0.4143  0.3413
 7734TIP3   OH244616   4.730   0.578   3.156  0.4234  0.3947 -0.0824
 7734TIP3    H144617   4.748   0.510   3.091 -0.7547  0.1923 -0.2129
 7734TIP3    H244618   4.736   0.660   3.106  1.5083  0.3634 -0.0001
 7735TIP3   OH244619   3.898   4.748  13.696 -0.1478  0.8394 -0.4147
 7735TIP3    H144620   3.935   4.673  13.740 -1.6007  1.1375  1.3746
 7735TIP3    H244621   3.805   4.726  13.684 -0.8102  2.6783  0.9769
 7736TIP3   OH244622   1.442   2.751  15.425  0.0411  0.1475  0.1179
 7736TIP3    H144623   1.438   2.845  15.441 -1.0375  0.3017 -1.0157
 7736TIP3    H244624   1.429   2.712  15.512 -0.3500  1.0265  0.4681
 7737TIP3   OH244625   3.524   3.545  13.416 -0.0373  0.1077  0.1416
 7737TIP3    H144626   3.594   3.575  13.357 -1.2408  0.2465 -1.2335
 7737TIP3    H244627   3.466   3.620  13.425  1.5132  1.0174  3.7094
 7738TIP3   OH244628   6.418   5.388  16.457  0.7533  0.4803 -0.1288
 7738TIP3    H144629   6.411   5.481  16.436 -0.0153  0.4578  0.0119
 7738TIP3    H244630   6.328   5.361  16.475  1.0396 -0.1679  0.3394
 7739TIP3   OH244631   5.785   5.666  14.680 -1.1115 -0.0174  0.5054
 7739TIP3    H144632   5.823   5.579  14.686 -0.4451  0.3201  1.4335
 7739TIP3    H244633   5.691   5.653  14.694 -1.0565 -0.6199  0.3088
 7740TIP3   OH244634   2.939   4.348  16.043 -0.1425 -0.6337 -0.0515
 7740TIP3    H144635   2.860   4.296  16.058 -1.1384  0.6825 -0.6052
 7740TIP3    H244636   2.987   4.343  16.126 -0.3984 -2.1170  0.0210
 7741TIP3   OH244637   6.677   4.289  13.008 -0.3212 -0.1502 -0.0237
 7741TIP3    H144638   6.706   4.371  13.048  0.2404  0.0805 -0.8890
 7741TIP3    H244639   6.603   4.314  12.952 -1.1156 -0.4751  0.8666
 7742TIP3   OH244640   4.408   4.882  10.633  0.2292  0.4235 -0.1949
 7742TIP3    H144641   4.387   4.804  10.581  1.6095 -0.5253  0.6422
 7742TIP3    H244642   4.380   4.956  10.578  0.1475 -0.6208 -1.5743
 7743TIP3   OH244643   6.565   6.206   0.571  0.5753 -0.2005 -0.0488
 7743TIP3    H144644   6.556   6.279   0.510 -1.0642  0.0925  0.5210
 7743TIP3    H244645   6.491   6.215   0.631  1.0583 -1.6135  0.7919
 7744TIP3   OH244646   2.362   4.952  17.012  0.1385  0.3582  0.3739
 7744TIP3    H144647   2.284   4.931  16.962 -0.6122  2.2640  0.7312
 7744TIP3    H244648   2.433   4.905  16.967 -0.8414  0.4263 -1.2565
 7745TIP3   OH244649   1.006   5.009  14.089 -0.1263 -0.0458  0.2596
 7745TIP3    H144650   0.929   4.961  14.058 -0.4852 -0.1882  1.3438
 7745TIP3    H244651   1.035   4.960  14.167  1.0797 -0.0181 -0.1559
 7746TIP3   OH244652   0.946   1.028  10.813  0.1082  0.1885 -0.7752
 7746TIP3    H144653   0.873   1.088  10.798  0.2449  0.1327 -1.6888
 7746TIP3    H244654   1.024   1.082  10.805  0.1641  0.3529  0.7133
 7747TIP3   OH244655   5.078   4.552   4.135 -0.2634 -0.4719 -0.0369
 7747TIP3    H144656   5.025   4.473   4.143  1.4661 -2.1677 -3.8495
 7747TIP3    H244657   5.033   4.604   4.068  1.3646 -0.7122 -1.3616
 7748TIP3   OH244658   4.960   5.746   2.916 -0.1980  0.4102 -0.1201
 7748TIP3    H144659   4.938   5.654   2.930  1.4097 -0.1103 -0.8713
 7748TIP3    H244660   4.904   5.773   2.844 -1.3410  0.2887  0.7135
 7749TIP3   OH244661   3.359   0.207  10.951  0.3383  0.6430  0.0170
 7749TIP3    H144662   3.387   0.232  10.863  0.1997  2.3789  0.4446
 7749TIP3    H244663   3.339   0.114  10.944 -1.2160  1.0914 -2.1994
 7750TIP3   OH244664   2.944   2.894   4.831 -0.2127 -0.1764  0.0191
 7750TIP3    H144665   2.889   2.971   4.841 -1.3384 -1.1893  1.7251
 7750TIP3    H244666   3.020   2.910   4.887 -0.5622 -0.3997  0.5616
 7751TIP3   OH244667   4.354   5.943  14.871 -0.0233  0.1289 -0.1460
 7751TIP3    H144668   4.350   5.889  14.949  0.5598 -0.6126 -0.6195
 7751TIP3    H244669   4.296   6.017  14.889 -0.3755 -0.3623  0.7299
 7752TIP3   OH244670   0.215   1.359  15.153 -0.0153  0.4941  0.3630
 7752TIP3    H144671   0.288   1.300  15.134 -1.8100 -1.2823 -1.1570
 7752TIP3    H244672   0.210   1.417  15.077 -0.9714 -0.2110 -0.1196
 7753TIP3   OH244673   2.802   5.735  13.735  0.2511 -0.0363  0.4116
 7753TIP3    H144674   2.734   5.761  13.673  0.9139  0.9296  0.0846
 7753TIP3    H244675   2.873   5.701  13.680  0.6917  0.4755  0.6633
 7754TIP3   OH244676   4.830   3.356  13.939 -0.5539 -0.1486  0.1304
 7754TIP3    H144677   4.738   3.366  13.966 -0.3114  0.8368  0.6453
 7754TIP3    H244678   4.836   3.403  13.856  0.2213  2.7497  1.7499
 7755TIP3   OH244679   4.473   0.924  15.094  0.1732  0.1721 -0.0153
 7755TIP3    H144680   4.523   0.915  15.175  0.4315  0.6259 -0.1257
 7755TIP3    H244681   4.475   1.017  15.075 -0.9021  0.2308  0.1016
 7756TIP3   OH244682   2.137   4.077  12.509 -0.3300 -0.0151  0.1506
 7756TIP3    H144683   2.176   4.115  12.431  0.1771 -0.6294  0.1025
 7756TIP3    H244684   2.070   4.140  12.535  0.2105  0.7058 -0.1734
 7757TIP3   OH244685   2.953   3.213  15.011 -0.3772  0.0625 -0.4602
 7757TIP3    H144686   2.885   3.168  14.961 -0.1925  1.1320 -1.7060
 7757TIP3    H244687   3.027   3.153  15.010 -1.6600 -1.6371  1.9280
 7758TIP3   OH244688   1.367   5.498  13.839  0.4990  0.1359 -0.0973
 7758TIP3    H144689   1.337   5.547  13.916  2.1373  1.3996 -0.2499
 7758TIP3    H244690   1.287   5.484  13.788 -0.5796 -0.5595  1.7365
 7759TIP3   OH244691   1.559   2.400   0.975 -0.2675 -0.6361  0.9353
 7759TIP3    H144692   1.580   2.331   0.912  1.5214 -0.0335  0.8626
 7759TIP3    H244693   1.464   2.410   0.968 -0.1063 -0.4897 -1.8145
 7760TIP3   OH244694   2.822   5.282   1.775 -0.1232 -0.5754 -0.2289
 7760TIP3    H144695   2.752   5.338   1.810  1.1353 -0.7130  2.6457
 7760TIP3    H244696   2.776   5.204   1.743 -1.2200 -1.1696  2.6670
 7761TIP3   OH244697   4.457   5.488   1.872 -0.4881  0.1652 -0.0722
 7761TIP3    H144698   4.411   5.566   1.902  2.6770  1.3492  1.8666
 7761TIP3    H244699   4.474   5.437   1.951  0.9456 -0.5739 -0.8247
 7762TIP3   OH244700   1.661   2.092   5.949 -0.1879 -0.2193 -0.0320
 7762TIP3    H144701   1.746   2.126   5.978 -0.1345 -0.1582 -0.2590
 7762TIP3    H244702   1.626   2.161   5.892 -1.4484  0.7833  1.9197
 7763TIP3   OH244703   6.680   4.922   4.928 -0.2376  0.2191  0.3603
 7763TIP3    H144704   6.648   4.831   4.928  0.8195 -0.1665  1.3513
 7763TIP3    H244705   6.726   4.931   4.845 -1.0771  0.1186 -0.1237
 7764TIP3   OH244706   4.690   4.279   3.661 -0.3090 -0.0910  0.3342
 7764TIP3    H144707   4.719   4.354   3.714 -0.5770  0.4373 -0.2575
 7764TIP3    H244708   4.767   4.252   3.612  0.1029 -0.9821  1.4579
 7765TIP3   OH244709   0.642   0.782  11.667 -0.3385 -0.1003  0.0306
 7765TIP3    H144710   0.595   0.859  11.698 -0.8118 -0.7556  0.9460
 7765TIP3    H244711   0.735   0.807  11.670 -0.5995  1.1445 -1.6477
 7766TIP3   OH244712   3.361   2.627  12.183 -0.7463  0.0723 -0.0430
 7766TIP3    H144713   3.329   2.683  12.112  0.2626 -0.3773 -0.8722
 7766TIP3    H244714   3.392   2.548  12.138 -0.9059 -0.5713  0.9847
 7767TIP3   OH244715   2.383   2.573   6.499  0.2121 -0.2283  0.9631
 7767TIP3    H144716   2.463   2.545   6.454 -0.2294  0.4424 -0.2724
 7767TIP3    H244717   2.332   2.493   6.507  0.2569 -0.3462  0.1640
 7768TIP3   OH244718   6.021   0.871  16.711 -0.1533  0.0487 -0.0545
 7768TIP3    H144719   6.083   0.821  16.658  0.1030  0.1214  0.1756
 7768TIP3    H244720   6.015   0.822  16.793 -1.1208 -0.4717 -0.4262
 7769TIP3   OH244721   1.022   3.116  16.212 -1.2338 -0.4110 -0.2736
 7769TIP3    H144722   0.934   3.113  16.176 -1.6667 -0.8075  0.7939
 7769TIP3    H244723   1.010   3.141  16.304 -0.2497 -0.5979 -0.0806
 7770TIP3   OH244724   3.297   5.956   4.932  0.2564  0.2998  0.0117
 7770TIP3    H144725   3.353   6.016   4.981 -0.6655  0.6175  0.7097
 7770TIP3    H244726   3.351   5.878   4.917  1.4332  1.2722 -0.8342
 7771TIP3   OH244727   3.172   6.298  12.088  1.0514  0.7236  0.1895
 7771TIP3    H144728   3.220   6.305  12.170 -0.7559  2.4880  1.1378
 7771TIP3    H244729   3.180   6.385  12.048  1.6804 -0.0330 -1.3894
 7772TIP3   OH244730   6.555   3.874  16.090 -0.0468 -0.0101 -0.6139
 7772TIP3    H144731   6.561   3.924  16.009 -0.2861  0.4056 -0.3744
 7772TIP3    H244732   6.593   3.931  16.157  0.2841 -0.4112 -0.4560
 7773TIP3   OH244733   2.471   5.013   6.126 -0.6193 -0.6416  0.2970
 7773TIP3    H144734   2.494   4.921   6.110  1.2497 -0.2099  0.3007
 7773TIP3    H244735   2.511   5.033   6.212 -2.0886 -0.1761  0.8848
 7774TIP3   OH244736   3.272   1.772   1.770  0.3152 -0.8966 -0.1229
 7774TIP3    H144737   3.273   1.695   1.714 -1.1444  0.5386 -2.1963
 7774TIP3    H244738   3.199   1.757   1.830 -1.1287 -0.3713 -1.6982
 7775TIP3   OH244739   1.163   3.145  13.779 -0.4848 -0.0204  0.2235
 7775TIP3    H144740   1.212   3.104  13.850 -1.0691  0.1431  0.7258
 7775TIP3    H244741   1.230   3.182  13.721 -0.0071 -0.2111  0.6575
 7776TIP3   OH244742   0.289   2.341  16.309 -0.2944 -0.3079 -0.0845
 7776TIP3    H144743   0.272   2.254  16.345 -0.8503  0.2814  1.0678
 7776TIP3    H244744   0.216   2.395  16.339  0.9987  1.0140  0.7472
 7777TIP3   OH244745   3.324   3.294  14.846  0.0671 -0.0266 -0.0964
 7777TIP3    H144746   3.342   3.340  14.764  0.7834  1.9424  1.1462
 7777TIP3    H244747   3.305   3.204  14.819  1.3441  0.3421 -2.3288
 7778TIP3   OH244748   6.252   0.271   5.980 -0.4019  0.4507  0.4814
 7778TIP3    H144749   6.169   0.262   6.027 -0.2193  0.8373  0.8852
 7778TIP3    H244750   6.318   0.281   6.050 -0.0795  0.6400  0.1529
 7779TIP3   OH244751   4.335   2.062   1.383 -0.7803 -0.4805 -0.0618
 7779TIP3    H144752   4.394   2.136   1.401 -2.1348  0.8508 -0.9960
 7779TIP3    H244753   4.345   2.005   1.460 -0.5638  1.2226  1.2155
 7780TIP3   OH244754   1.631   4.299   6.464 -0.5295 -0.2043 -0.1579
 7780TIP3    H144755   1.613   4.302   6.557 -0.9459  0.1928 -0.2537
 7780TIP3    H244756   1.555   4.340   6.422 -0.7353 -1.1285 -0.7145
 7781TIP3   OH244757   3.524   6.664  14.313  0.1002 -0.1323  0.0935
 7781TIP3    H144758   3.487   6.686  14.399  0.2816  1.4689 -0.2287
 7781TIP3    H244759   3.557   6.747  14.279 -1.5199 -0.4206 -2.2775
 7782TIP3   OH244760   1.668   1.333   3.548  0.3646 -0.2073 -0.1820
 7782TIP3    H144761   1.764   1.334   3.553  0.3791 -1.5327 -0.1618
 7782TIP3    H244762   1.640   1.379   3.627  0.9840  0.9312 -0.6032
 7783TIP3   OH244763   4.883   6.697   0.575  0.7785  0.2402  0.0991
 7783TIP3    H144764   4.950   6.734   0.632  0.2792  0.6281  0.4439
 7783TIP3    H244765   4.801   6.708   0.624  0.2932  0.8648 -0.8274
 7784TIP3   OH244766   5.490   1.698  11.308  0.3527  0.1899  0.3422
 7784TIP3    H144767   5.555   1.768  11.317 -1.2071  1.5922  0.9874
 7784TIP3    H244768   5.421   1.736  11.254 -0.1221 -1.1326  0.0189
 7785TIP3   OH244769   4.756   4.040   2.192 -0.0663  0.5980 -0.6935
 7785TIP3    H144770   4.684   4.076   2.141  0.1010  2.4545  0.3577
 7785TIP3    H244771   4.791   4.114   2.241  1.0777 -0.7439  0.5793
 7786TIP3   OH244772   4.108   6.766   3.516 -0.5115 -0.1149 -0.1369
 7786TIP3    H144773   4.197   6.794   3.538 -0.6707 -0.2236  0.6432
 7786TIP3    H244774   4.083   6.707   3.587 -0.9759 -0.5800 -0.6752
 7787TIP3   OH244775   4.601   1.791  12.208 -0.3424  0.4152  0.1162
 7787TIP3    H144776   4.569   1.710  12.248  3.0956 -1.2566 -0.3932
 7787TIP3    H244777   4.591   1.777  12.114 -1.2776  1.2757  0.0753
 7788TIP3   OH244778   6.452   3.184  11.375 -0.2901  0.2010  0.0676
 7788TIP3    H144779   6.405   3.193  11.457 -2.3582  0.5379 -1.1198
 7788TIP3    H244780   6.399   3.232  11.311  2.0996  1.2975 -1.1525
 7789TIP3   OH244781   0.869   5.729  12.998 -0.3615  0.2947  0.3389
 7789TIP3    H144782   0.837   5.758  13.083  0.3752  1.0115  0.3895
 7789TIP3    H244783   0.814   5.776  12.935 -0.9004 -0.2279  0.4245
 7790TIP3   OH244784   0.532   5.734  13.481 -0.1712 -0.2802  0.4719
 7790TIP3    H144785   0.529   5.779  13.396  1.0875 -0.2404  0.4356
 7790TIP3    H244786   0.495   5.797  13.543 -0.3982 -0.0220  0.0772
 7791TIP3   OH244787   5.416   4.355   4.160  0.2845  0.2405 -0.0524
 7791TIP3    H144788   5.376   4.278   4.201  0.8539 -0.1253 -0.1924
 7791TIP3    H244789   5.504   4.328   4.137  1.2250  1.5809  1.8475
 7792TIP3   OH244790   2.453   5.114  12.432  0.0456 -0.7299 -0.1259
 7792TIP3    H144791   2.545   5.102  12.408  0.1410  1.0442 -0.6791
 7792TIP3    H244792   2.456   5.142  12.523  0.2488  2.0968 -0.9527
 7793TIP3   OH244793   5.898   3.400  14.820 -0.1916 -0.0810 -0.1467
 7793TIP3    H144794   5.948   3.410  14.740 -0.6227  0.2654 -0.3757
 7793TIP3    H244795   5.960   3.363  14.883  0.9827  2.3895  0.2172
 7794TIP3   OH244796   2.917   3.143  16.293  0.4768 -0.1840 -0.2956
 7794TIP3    H144797   2.979   3.119  16.362 -0.4757 -0.2114  0.5713
 7794TIP3    H244798   2.839   3.092  16.313 -0.1298  0.5198 -0.8463
 7795TIP3   OH244799   4.431   4.386   3.575  0.0294 -0.3530  0.4818
 7795TIP3    H144800   4.505   4.336   3.610  0.8601 -0.3199 -1.1817
 7795TIP3    H244801   4.471   4.465   3.537 -0.8662 -0.3281 -0.4230
 7796TIP3   OH244802   3.109   3.322   6.114  0.5334 -0.2565 -0.1110
 7796TIP3    H144803   3.182   3.261   6.116 -0.1509 -1.0393  1.8698
 7796TIP3    H244804   3.032   3.268   6.095  0.2212  0.3056 -0.4863
 7797TIP3   OH244805   3.721   3.897   1.448 -0.5352 -0.2459 -0.2944
 7797TIP3    H144806   3.631   3.865   1.453 -1.7221  3.0164  0.6040
 7797TIP3    H244807   3.740   3.929   1.536  0.8850  0.6342 -0.9022
 7798TIP3   OH244808   4.704   3.782  16.482 -0.3165  0.2294  0.1992
 7798TIP3    H144809   4.704   3.781  16.577  1.1484  0.1086  0.2037
 7798TIP3    H244810   4.764   3.852  16.458  0.9857 -1.1386 -0.6379
 7799TIP3   OH244811   0.405   5.376   2.229 -0.8477 -0.1761  0.2082
 7799TIP3    H144812   0.411   5.451   2.288 -0.7543  1.7472 -2.1825
 7799TIP3    H244813   0.489   5.373   2.184 -0.6429 -2.0783  0.6717
 7800TIP3   OH244814   1.900   0.863  16.720  0.3532  0.1279 -0.3176
 7800TIP3    H144815   1.823   0.866  16.775 -0.4151 -0.8258 -1.3050
 7800TIP3    H244816   1.951   0.789  16.754 -0.4591 -0.9039 -1.2866
 7801TIP3   OH244817   3.164   6.226   4.651  0.5660  0.2246 -0.1315
 7801TIP3    H144818   3.196   6.136   4.645  1.7084  0.5736  0.5621
 7801TIP3    H244819   3.184   6.252   4.741 -0.8187  0.7869  0.0298
 7802TIP3   OH244820   3.938   2.461  15.031  0.1474  0.4251  0.0148
 7802TIP3    H144821   3.854   2.453  14.986 -1.1319  1.1242  2.2112
 7802TIP3    H244822   3.999   2.411  14.976 -1.9867 -1.3219 -0.8489
 7803TIP3   OH244823   2.077   5.633  14.243 -0.2304  0.0243  0.4864
 7803TIP3    H144824   2.000   5.590  14.281 -0.0046  0.1648  1.1036
 7803TIP3    H244825   2.056   5.639  14.150 -1.2120  0.5653  0.7304
 7804TIP3   OH244826   2.114   3.458  15.810  0.6035 -0.5904 -0.2747
 7804TIP3    H144827   2.067   3.493  15.734 -0.7416  0.2708  0.9530
 7804TIP3    H244828   2.073   3.373  15.826  1.6403 -1.2810 -1.1834
 7805TIP3   OH244829   5.822   1.134   0.533 -0.0453  0.2513  0.4380
 7805TIP3    H144830   5.758   1.188   0.578 -0.5562  0.5155 -0.5951
 7805TIP3    H244831   5.907   1.173   0.556 -0.3940  1.3548 -0.0923
 7806TIP3   OH244832   4.208   6.567  16.473 -0.0073  0.4291 -0.4775
 7806TIP3    H144833   4.279   6.538  16.529 -0.0459 -0.1570 -0.7328
 7806TIP3    H244834   4.135   6.582  16.533 -0.2028 -0.6928 -0.4366
 7807TIP3   OH244835   1.317   5.581   4.602  0.5179 -0.6775 -0.2265
 7807TIP3    H144836   1.381   5.612   4.538 -0.2844  1.8176  0.1026
 7807TIP3    H244837   1.370   5.550   4.675  1.3996  0.2991 -0.4293
 7808TIP3   OH244838   0.659   0.287   1.757 -0.0756 -0.2562  0.2566
 7808TIP3    H144839   0.611   0.299   1.675  0.3482 -1.4187 -0.1681
 7808TIP3    H244840   0.696   0.373   1.776  2.1595 -0.6260 -2.2390
 7809TIP3   OH244841   4.044   3.314   2.484 -0.1152 -0.0032  0.0397
 7809TIP3    H144842   3.992   3.249   2.437 -0.4794 -1.2465  2.1074
 7809TIP3    H244843   4.129   3.315   2.439 -0.9894  0.0258 -1.6208
 7810TIP3   OH244844   5.986   0.455  12.293 -0.9172  0.0448 -0.7796
 7810TIP3    H144845   5.965   0.532  12.240 -1.0128 -0.3006 -1.2431
 7810TIP3    H244846   5.989   0.383  12.231 -0.9920 -0.3558 -0.3216
 7811TIP3   OH244847   4.484   5.485  14.311  0.1103 -0.1374 -0.0215
 7811TIP3    H144848   4.455   5.393  14.314  0.6768 -0.3538 -0.9488
 7811TIP3    H244849   4.451   5.523  14.392  0.1606 -1.2492  0.5350
 7812TIP3   OH244850   1.173   5.293  11.957 -0.0209 -0.0853 -0.5841
 7812TIP3    H144851   1.126   5.251  11.885 -1.7093  1.1199 -0.2194
 7812TIP3    H244852   1.164   5.232  12.030 -2.2804  0.7362 -0.1174
 7813TIP3   OH244853   1.214   1.031   0.782  0.6283 -0.1965 -0.0345
 7813TIP3    H144854   1.300   0.997   0.806 -0.0485 -0.8275  1.5570
 7813TIP3    H244855   1.184   0.973   0.712  1.2628 -0.3066 -0.2175
 7814TIP3   OH244856   4.177   4.731   5.914 -0.0990 -0.1239  0.2696
 7814TIP3    H144857   4.190   4.764   5.826 -1.6881  0.5165  0.2596
 7814TIP3    H244858   4.191   4.806   5.971  0.6503 -0.4710  0.5514
 7815TIP3   OH244859   2.928   1.258   0.589  0.3253  0.0278 -0.0694
 7815TIP3    H144860   2.868   1.308   0.644 -0.4370  0.3725 -1.2033
 7815TIP3    H244861   2.914   1.292   0.501  2.1256  0.0654 -0.3718
 7816TIP3   OH244862   0.049   4.829   5.368  0.0860 -0.2337  0.2628
 7816TIP3    H144863   0.117   4.767   5.341 -0.0984 -0.6628  0.7828
 7816TIP3    H244864   0.066   4.907   5.315  0.7415 -0.4778  0.1046
 7817TIP3   OH244865   2.771   3.568   6.006  0.2046  0.0852 -0.0565
 7817TIP3    H144866   2.786   3.598   6.096 -3.2035  0.0373  0.5979
 7817TIP3    H244867   2.768   3.472   6.013  2.3847 -0.0581 -0.6808
 7818TIP3   OH244868   2.852   3.417  15.171 -0.1123 -0.0092  0.3418
 7818TIP3    H144869   2.842   3.385  15.261 -0.5935 -0.1818  0.2280
 7818TIP3    H244870   2.884   3.342  15.122 -1.2247 -0.3187  0.0778
 7819TIP3   OH244871   4.009   4.122  12.714 -0.6898  0.3614  0.4979
 7819TIP3    H144872   4.005   4.046  12.657  3.0144  1.0547 -0.8261
 7819TIP3    H244873   3.932   4.174  12.692 -1.1181 -1.0762 -1.4256
 7820TIP3   OH244874   2.880   0.834  12.926 -0.5810 -0.1518 -0.2036
 7820TIP3    H144875   2.791   0.862  12.905 -0.1606  0.8766 -0.6525
 7820TIP3    H244876   2.899   0.875  13.011 -0.9215 -1.2528  0.4137
 7821TIP3   OH244877   4.428   2.073   4.482  0.5754 -0.2022 -0.0670
 7821TIP3    H144878   4.402   2.005   4.421  5.4622 -1.1052 -1.3998
 7821TIP3    H244879   4.467   2.141   4.426  1.3496  0.8616  1.7188
 7822TIP3   OH244880   6.665   1.361  14.217  0.0504  0.0683 -0.0192
 7822TIP3    H144881   6.750   1.352  14.259  0.8401  0.0467 -1.5920
 7822TIP3    H244882   6.625   1.274  14.225  0.5863 -0.1927 -0.1583
 7823TIP3   OH244883   1.740   6.652  15.795  0.6155 -0.1864 -0.6343
 7823TIP3    H144884   1.729   6.682  15.705  0.0103 -2.0005 -1.1887
 7823TIP3    H244885   1.777   6.565  15.787  1.0864 -0.1476  0.8980
 7824TIP3   OH244886   5.792   0.386   0.930  0.2174  0.0694  0.5943
 7824TIP3    H144887   5.833   0.308   0.893  2.8192  1.0289  1.3664
 7824TIP3    H244888   5.733   0.417   0.862 -0.0085 -1.9185 -0.1536
 7825TIP3   OH244889   3.916   6.015  11.589 -0.2352 -0.4538  0.0762
 7825TIP3    H144890   3.943   5.932  11.629 -2.6929 -0.5156  1.7213
 7825TIP3    H244891   3.905   6.075  11.662 -3.7104 -0.2419 -0.5231
 7826TIP3   OH244892   6.659   5.075  16.026 -0.3636  0.9586 -0.8844
 7826TIP3    H144893   6.602   5.147  16.052  0.6208  1.5988 -0.4859
 7826TIP3    H244894   6.735   5.082  16.084 -0.6711 -0.9564 -0.2194
 7827TIP3   OH244895   2.014   4.076  11.371  0.0917 -0.0525  0.2943
 7827TIP3    H144896   2.086   4.062  11.433  0.1972 -1.7185 -0.1853
 7827TIP3    H244897   2.034   4.018  11.297 -0.8661  0.7275 -0.5956
 7828TIP3   OH244898   6.056   2.042   0.539 -0.4330 -0.0868 -0.2427
 7828TIP3    H144899   6.098   2.083   0.464 -0.2360  0.2300  0.0428
 7828TIP3    H244900   5.975   2.091   0.551 -0.0757  0.3851  0.2572
 7829TIP3   OH244901   6.362   4.085   3.171  0.4943 -0.3351  0.8847
 7829TIP3    H144902   6.396   4.004   3.210 -1.0099 -2.2496 -1.6635
 7829TIP3    H244903   6.282   4.058   3.125  0.1750  2.5365 -0.3355
 7830TIP3   OH244904   4.034   3.562  11.054 -0.4487 -0.1268 -0.0854
 7830TIP3    H144905   4.089   3.634  11.024 -0.9251 -1.1373 -3.5792
 7830TIP3    H244906   3.945   3.588  11.031 -0.5488 -2.1209 -2.1049
 7831TIP3   OH244907   0.335   1.781  11.124 -0.3953  0.3819 -0.6726
 7831TIP3    H144908   0.326   1.802  11.031  0.9055  1.8348 -0.5009
 7831TIP3    H244909   0.323   1.864  11.169 -2.1984 -0.5164  0.5710
 7832TIP3   OH244910   4.563   4.005   0.905  0.1970  0.2064  0.2656
 7832TIP3    H144911   4.616   3.958   0.970  1.2903 -0.8984 -1.3842
 7832TIP3    H244912   4.479   3.959   0.905  1.3043 -1.9216 -1.4364
 7833TIP3   OH244913   6.269   5.928  16.300  0.8901 -0.0087  0.1748
 7833TIP3    H144914   6.197   5.933  16.238  1.4170  3.0512 -0.2275
 7833TIP3    H244915   6.227   5.904  16.383 -0.4466  0.7035 -0.2842
 7834TIP3   OH244916   2.863   0.887  16.562  0.3758  0.7845 -0.7120
 7834TIP3    H144917   2.840   0.929  16.480 -0.7459 -0.3855 -1.0000
 7834TIP3    H244918   2.827   0.945  16.630 -2.3799 -0.3925 -1.1282
 7835TIP3   OH244919   5.632   2.367  14.452 -0.0067  0.1805 -0.4768
 7835TIP3    H144920   5.635   2.420  14.532 -2.7963  0.2442 -0.3462
 7835TIP3    H244921   5.705   2.398  14.399  2.2092 -0.2054  2.2512
 7836TIP3   OH244922   5.190   6.169   2.242 -0.2856  0.1467  0.4145
 7836TIP3    H144923   5.281   6.188   2.221 -0.2275 -0.9071 -0.3317
 7836TIP3    H244924   5.194   6.089   2.295 -0.6671  0.9525  1.6543
 7837TIP3   OH244925   1.141   3.577  16.731  0.0951 -0.3073 -0.2171
 7837TIP3    H144926   1.186   3.656  16.759 -0.5459  0.9921 -2.7572
 7837TIP3    H244927   1.127   3.527  16.812  3.5841  0.5234  0.9794
 7838TIP3   OH244928   4.378   0.597  15.643 -0.5109  0.2129  0.6820
 7838TIP3    H144929   4.449   0.537  15.666  0.7598  0.7634 -1.6399
 7838TIP3    H244930   4.312   0.540  15.603  1.2992  0.4684 -2.8305
 7839TIP3   OH244931   2.146   0.961   3.158 -0.3203 -0.1565  0.2303
 7839TIP3    H144932   2.109   0.908   3.228 -0.3185 -0.3390  0.0949
 7839TIP3    H244933   2.072   1.011   3.123 -0.2189  0.3282  0.7099
 7840TIP3   OH244934   1.524   5.145   3.353  0.3574 -0.4043 -0.8881
 7840TIP3    H144935   1.582   5.113   3.422  1.4830  1.7796 -0.8095
 7840TIP3    H244936   1.440   5.103   3.372  0.8157 -0.3729  1.4180
 7841TIP3   OH244937   3.204   4.289   1.750  0.0293  0.6767  0.0360
 7841TIP3    H144938   3.203   4.327   1.838 -1.7864  1.9012 -0.4796
 7841TIP3    H244939   3.162   4.204   1.761  0.0990  0.6857  0.3972
 7842TIP3   OH244940   5.629   5.141  11.831  0.4759  0.1331 -0.2775
 7842TIP3    H144941   5.537   5.120  11.818  0.4475 -0.4152  0.7545
 7842TIP3    H244942   5.671   5.056  11.846  0.8904  0.5149  0.7875
 7843TIP3   OH244943   4.037   4.866  14.887  0.3923 -0.5432 -0.0591
 7843TIP3    H144944   4.048   4.923  14.810 -1.0708  0.0432  0.1351
 7843TIP3    H244945   3.962   4.810  14.864  0.2980 -0.7409  0.7186
 7844TIP3   OH244946   1.892   4.424  14.666 -0.1270 -0.0594 -0.0549
 7844TIP3    H144947   1.953   4.385  14.603 -0.8354  0.1597 -0.8750
 7844TIP3    H244948   1.929   4.511  14.684 -0.4578  0.2649 -0.9276
 7845TIP3   OH244949   3.792   2.157  14.430 -0.3335  0.1889  0.0931
 7845TIP3    H144950   3.710   2.143  14.477  0.9710 -1.0138  2.0671
 7845TIP3    H244951   3.793   2.088  14.363 -0.5218 -0.3512  0.6440
 7846TIP3   OH244952   0.065   4.816   0.052 -0.2035 -0.4610 -0.0896
 7846TIP3    H144953   0.086   4.801   0.145 -0.1992 -0.4615 -0.0907
 7846TIP3    H244954   0.134   4.875   0.022  0.3642 -1.2458 -0.3517
 7847TIP3   OH244955   1.846   0.317   5.805 -0.1124  0.4953 -0.0504
 7847TIP3    H144956   1.871   0.275   5.723 -0.1483  0.8380 -0.2382
 7847TIP3    H244957   1.925   0.364   5.833 -0.0527  0.2514  0.1905
 7848TIP3   OH244958   4.496   0.950   4.184 -0.1938 -0.3208 -0.2084
 7848TIP3    H144959   4.447   0.972   4.105 -0.9859  0.9424  0.6212
 7848TIP3    H244960   4.457   0.868   4.214  0.1464 -0.8342 -1.1450
 7849TIP3   OH244961   0.634   2.496   3.168  0.2942 -0.3551  0.1000
 7849TIP3    H144962   0.587   2.522   3.247 -0.7694 -0.1172 -0.5965
 7849TIP3    H244963   0.606   2.561   3.102 -0.2035 -1.5886 -0.9257
 7850TIP3   OH244964   4.058   2.229   4.748 -0.5931 -0.0784 -0.0342
 7850TIP3    H144965   4.154   2.225   4.751 -0.4945  2.1234  0.6998
 7850TIP3    H244966   4.030   2.159   4.806  0.6251  0.6414  1.4804
 7851TIP3   OH244967   1.331   2.973   6.214  0.8169  0.1233 -0.5177
 7851TIP3    H144968   1.412   3.008   6.177  0.7424 -1.2840 -2.0433
 7851TIP3    H244969   1.268   3.046   6.207  1.4023  0.5673 -1.1506
 7852TIP3   OH244970   3.923   2.704   0.109 -0.2466 -0.3274 -0.2646
 7852TIP3    H144971   3.967   2.721   0.026 -1.7044  0.1652 -0.9454
 7852TIP3    H244972   3.836   2.741   0.099 -0.0254  0.9327  1.9559
 7853TIP3   OH244973   6.148   6.490  17.024 -0.4594 -0.5838  0.3846
 7853TIP3    H144974   6.236   6.461  16.997 -0.5885 -0.4120 -0.2262
 7853TIP3    H244975   6.092   6.467  16.950 -1.1540 -1.8039  1.2639
 7854TIP3   OH244976   4.880   2.760  16.376 -0.3375  0.4551  0.2132
 7854TIP3    H144977   4.934   2.698  16.425  1.5634  0.0437 -2.3272
 7854TIP3    H244978   4.896   2.844  16.418  0.8103  0.0120  0.6806
 7855TIP3   OH244979   3.011   2.788   3.496 -0.0666  0.2947 -0.2826
 7855TIP3    H144980   3.016   2.848   3.571  0.1541  1.1920 -1.0028
 7855TIP3    H244981   3.002   2.701   3.535 -0.6836  0.8239  0.7723
 7856TIP3   OH244982   4.293   6.473   0.865 -0.1610 -0.6632 -0.2516
 7856TIP3    H144983   4.244   6.422   0.929 -1.2369  1.1364  0.4175
 7856TIP3    H244984   4.278   6.429   0.782 -2.5170 -0.4756  0.0271
 7857TIP3   OH244985   0.698   5.146  15.312  0.2756 -0.5785 -0.1712
 7857TIP3    H144986   0.758   5.114  15.379 -0.2110 -0.3523  0.3732
 7857TIP3    H244987   0.612   5.113  15.338  0.2514 -1.4362 -1.2941
 7858TIP3   OH244988   4.016   2.973  15.020  0.5388 -0.0688  0.3332
 7858TIP3    H144989   4.035   3.011  15.105 -1.1693 -0.9765  1.1495
 7858TIP3    H244990   4.045   2.882  15.027  1.9508  0.2880 -0.6416
 7859TIP3   OH244991   1.738   6.263   3.057  0.0950 -0.4156  0.2707
 7859TIP3    H144992   1.813   6.267   2.998 -0.3238  0.3914 -0.2182
 7859TIP3    H244993   1.776   6.235   3.141  1.0919  0.7703  0.2491
 7860TIP3   OH244994   0.452   6.607  16.148  0.2925  0.4532  0.0909
 7860TIP3    H144995   0.393   6.659  16.093 -1.6558 -0.1707  1.5416
 7860TIP3    H244996   0.532   6.598  16.096  0.1914  3.7760 -0.7395
 7861TIP3   OH244997   6.262   6.080   5.315  1.0957 -0.3176  0.3181
 7861TIP3    H144998   6.184   6.027   5.295 -0.2385  1.4698  0.5971
 7861TIP3    H244999   6.240   6.126   5.396  1.9723  1.0919 -0.2116
 7862TIP3   OH245000   0.018   6.656   1.480 -0.2942 -0.7593 -0.1958
 7862TIP3    H145001  -0.002   6.568   1.446  1.4194 -1.1338 -0.3018
 7862TIP3    H245002   0.088   6.641   1.543 -1.6394  0.2652  1.5727
 7863TIP3   OH245003   2.884   6.517   5.663 -0.0936  0.0321  0.0146
 7863TIP3    H145004   2.879   6.431   5.705  0.3400 -1.0527 -2.0973
 7863TIP3    H245005   2.883   6.579   5.736 -0.8752 -1.7350  1.5541
 7864TIP3   OH245006   1.406   5.262   1.606 -0.6576  0.5086  0.1148
 7864TIP3    H145007   1.397   5.357   1.616  2.3255  0.8589 -0.1831
 7864TIP3    H245008   1.431   5.232   1.693 -2.9140 -0.2165  0.5428
 7865TIP3   OH245009   4.903   4.635   2.803  0.3496  0.3249  0.0917
 7865TIP3    H145010   4.826   4.579   2.806  0.1471  0.6380  1.1971
 7865TIP3    H245011   4.956   4.605   2.878  0.5134  1.2174  0.3323
 7866TIP3   OH245012   1.123   5.890   0.637  0.1142  0.0314 -0.4306
 7866TIP3    H145013   1.047   5.929   0.680  0.6956 -0.3697  0.9754
 7866TIP3    H245014   1.190   5.958   0.640  0.9434 -0.8497  1.5084
 7867TIP3   OH245015   3.685   5.398   0.962  0.3928  0.1499  0.1459
 7867TIP3    H145016   3.657   5.486   0.937 -1.9135 -0.8563 -1.0311
 7867TIP3    H245017   3.762   5.381   0.909 -0.1392  0.8286 -0.8652
 7868TIP3   OH245018   0.438   1.514  16.528  0.4095  0.5579  0.3386
 7868TIP3    H145019   0.454   1.574  16.601 -2.0594  0.8477  0.6859
 7868TIP3    H245020   0.359   1.548  16.487  0.1632 -1.2726 -0.7357
 7869TIP3   OH245021   2.626   4.083   0.832  0.1556 -0.3517  0.3940
 7869TIP3    H145022   2.696   4.135   0.792 -0.5806 -1.5214 -2.5471
 7869TIP3    H245023   2.563   4.148   0.864  1.3224  0.6516  0.6881
 7870TIP3   OH245024   5.920   0.487  11.356 -0.1822  0.3468  0.3626
 7870TIP3    H145025   5.828   0.492  11.384 -0.0338  0.8078  0.7600
 7870TIP3    H245026   5.970   0.494  11.437  0.2015 -0.0679  0.1617
 7871TIP3   OH245027   4.439   6.324  12.443 -0.2689  0.3864 -0.2767
 7871TIP3    H145028   4.422   6.233  12.469 -2.1719  1.2209  1.6091
 7871TIP3    H245029   4.475   6.318  12.354  0.8908 -2.2624  0.3344
 7872TIP3   OH245030   3.117   4.228  13.889  0.4536 -0.2019 -0.4697
 7872TIP3    H145031   3.040   4.181  13.920 -0.6117  1.9886  0.3209
 7872TIP3    H245032   3.131   4.195  13.800 -1.0407 -1.0190 -0.4196
 7873TIP3   OH245033   0.879   4.862   3.326 -0.1655 -0.0555  0.2345
 7873TIP3    H145034   0.962   4.876   3.372  1.9067 -0.0737 -3.2853
 7873TIP3    H245035   0.851   4.774   3.352  0.2268  0.4544  2.4492
 7874TIP3   OH245036   6.060   3.534  15.685  0.1266 -0.6008 -0.3549
 7874TIP3    H145037   6.076   3.628  15.682 -2.6764 -0.0531  0.0670
 7874TIP3    H245038   6.145   3.494  15.670  1.4992  2.0076  0.2173
 7875TIP3   OH245039   2.506   0.574   2.742 -0.4975  0.0843 -0.0787
 7875TIP3    H145040   2.420   0.571   2.701 -0.4081 -0.2787 -0.2394
 7875TIP3    H245041   2.565   0.536   2.677 -0.0794  1.1109 -0.3057
 7876TIP3   OH245042   4.992   1.021  11.990 -0.3237  0.4910  0.3027
 7876TIP3    H145043   5.078   1.054  11.963  0.2711  0.0866  1.6937
 7876TIP3    H245044   4.981   0.941  11.939  0.0272  0.6583 -0.0428
 7877TIP3   OH245045   6.040   2.167  14.097  0.6787 -0.1093  0.1847
 7877TIP3    H145046   6.042   2.146  14.190 -0.4811 -0.0383  0.2204
 7877TIP3    H245047   6.046   2.262  14.094  0.4408 -0.0964  0.1847
 7878TIP3   OH245048   0.961   5.009  14.401  0.1335  0.1975 -0.2126
 7878TIP3    H145049   0.998   5.096  14.417 -0.9693  0.6334  0.0322
 7878TIP3    H245050   0.962   4.966  14.486 -0.8546  0.5906  0.0109
 7879TIP3   OH245051   0.248   0.587  16.985 -0.4211  0.5053 -0.3995
 7879TIP3    H145052   0.339   0.566  16.966 -0.6673 -2.2632  1.1923
 7879TIP3    H245053   0.243   0.682  16.979  3.0208  0.8625  1.4013
 7880TIP3   OH245054   4.956   1.480  12.018  0.0351 -0.3472  0.0820
 7880TIP3    H145055   4.908   1.512  11.942  1.7878  0.4408 -0.7219
 7880TIP3    H245056   5.014   1.413  11.983  0.8293 -0.0078  0.7320
 7881TIP3   OH245057   2.325   5.139  15.697  0.2226 -0.8448 -0.3270
 7881TIP3    H145058   2.320   5.195  15.619  0.9676 -0.5814 -0.1880
 7881TIP3    H245059   2.265   5.181  15.760  1.6304  0.4482  0.1734
 7882TIP3   OH245060   6.385   1.827  11.039  0.0108 -0.0172 -0.1991
 7882TIP3    H145061   6.304   1.855  10.996  0.0883 -1.3010 -1.1816
 7882TIP3    H245062   6.356   1.768  11.109  0.3025 -3.8130 -3.1687
 7883TIP3   OH245063   3.814   1.841   3.780 -0.5294  0.6802  0.2864
 7883TIP3    H145064   3.812   1.891   3.861 -2.2875 -0.4084  0.9461
 7883TIP3    H245065   3.772   1.758   3.802  3.5834 -1.7237 -0.4211
 7884TIP3   OH245066   0.446   2.103  11.112 -0.2804 -0.2310  0.0049
 7884TIP3    H145067   0.458   2.197  11.100  1.1042 -0.4310 -0.3026
 7884TIP3    H245068   0.516   2.078  11.173 -1.3767 -0.8566  1.0231
 7885TIP3   OH245069   3.513   3.725  14.177 -0.6509  0.3043 -0.4943
 7885TIP3    H145070   3.602   3.758  14.168 -0.2259 -0.3476  1.1103
 7885TIP3    H245071   3.470   3.747  14.094  0.4249  2.3611 -0.5304
 7886TIP3   OH245072   6.681   4.790  14.360 -0.3694 -0.4733  0.3132
 7886TIP3    H145073   6.763   4.741  14.367  0.5986  1.1791  1.1937
 7886TIP3    H245074   6.631   4.745  14.293  1.7977 -0.8005 -1.1473
 7887TIP3   OH245075   1.739   1.930  12.311 -0.4396 -0.7379 -0.0573
 7887TIP3    H145076   1.719   1.895  12.398 -1.5671  0.1038  0.0294
 7887TIP3    H245077   1.760   1.852  12.259 -2.9456 -1.5725  0.1277
 7888TIP3   OH245078   4.204   1.381   3.753 -0.2849  0.0837 -0.0246
 7888TIP3    H145079   4.132   1.431   3.793 -1.1738 -1.1165 -0.1009
 7888TIP3    H245080   4.166   1.295   3.734  1.0344 -0.3985 -0.5349
 7889TIP3   OH245081   0.280   1.689  14.214 -0.3403  0.3738 -0.3101
 7889TIP3    H145082   0.239   1.658  14.294  2.0051 -2.3115 -0.0708
 7889TIP3    H245083   0.235   1.641  14.144  0.5225 -0.5619 -0.2412
 7890TIP3   OH245084   0.777   5.839   4.799  0.4724 -0.0810  0.2416
 7890TIP3    H145085   0.753   5.819   4.890  1.4570  1.2449  0.8069
 7890TIP3    H245086   0.754   5.931   4.788 -0.4480 -0.4534 -1.1438
 7891TIP3   OH245087   4.940   3.662  13.071  0.2858  0.1971  0.0900
 7891TIP3    H145088   4.908   3.751  13.080 -1.3401 -0.4233  0.5954
 7891TIP3    H245089   4.930   3.642  12.978 -0.3638  0.1715  0.1645
 7892TIP3   OH245090   5.797   0.079  14.144  0.2617  0.1236  0.1781
 7892TIP3    H145091   5.749   0.099  14.225  1.6571 -0.1613  1.1053
 7892TIP3    H245092   5.872   0.140  14.145  1.4006 -1.2417  0.1341
 7893TIP3   OH245093   5.920   1.201  16.979 -0.4436 -0.0269 -0.6008
 7893TIP3    H145094   5.990   1.263  16.999  0.8140 -1.3237 -0.9423
 7893TIP3    H245095   5.840   1.254  16.981  0.5784  1.5454 -0.5879
 7894TIP3   OH245096   2.144   1.239  10.808  0.1743 -0.0844 -0.2481
 7894TIP3    H145097   2.195   1.162  10.836  1.0192 -0.0598 -1.6319
 7894TIP3    H245098   2.193   1.314  10.842  0.1632 -0.1205 -0.1541
 7895TIP3   OH245099   2.024   6.532   1.874 -0.2824  0.4104  0.1640
 7895TIP3    H145100   2.059   6.444   1.860 -0.4621 -0.1357  2.8585
 7895TIP3    H245101   1.939   6.518   1.915 -0.4585  1.8296  0.3125
 7896TIP3   OH245102   3.836   1.183   0.008 -0.5546  0.1180  0.4262
 7896TIP3    H145103   3.768   1.138   0.058  0.1137 -0.0482  1.1898
 7896TIP3    H245104   3.804   1.272  -0.001 -1.3215 -0.2066 -0.0425
 7897TIP3   OH245105   6.565   5.203   6.313  0.3408  0.3190  0.2899
 7897TIP3    H145106   6.630   5.155   6.365 -0.3217  0.1068  0.9338
 7897TIP3    H245107   6.521   5.136   6.261  1.7644  0.6694 -1.4036
 7898TIP3   OH245108   6.151   4.002   5.734  0.2745  0.2059 -0.2699
 7898TIP3    H145109   6.170   4.011   5.640 -0.4569 -2.9421 -0.7598
 7898TIP3    H245110   6.238   4.001   5.775  0.8215 -2.8842 -1.3903
 7899TIP3   OH245111   5.420   6.306   3.057 -0.5060  0.1961 -0.4517
 7899TIP3    H145112   5.505   6.320   3.098 -1.2366 -0.5052  1.3399
 7899TIP3    H245113   5.424   6.357   2.976  1.2294  1.0015  0.1192
 7900TIP3   OH245114   0.720   0.995  12.091  0.6691 -0.6027 -0.3116
 7900TIP3    H145115   0.635   1.027  12.063  0.2749 -0.5346  0.9626
 7900TIP3    H245116   0.702   0.911  12.134  1.0825 -0.0028  1.0696
 7901TIP3   OH245117   0.548   4.487  12.086 -0.1033 -0.2594  0.2480
 7901TIP3    H145118   0.609   4.498  12.014  3.3573 -1.7980  2.8355
 7901TIP3    H245119   0.499   4.569  12.089  2.1373  1.1789 -1.5737
 7902TIP3   OH245120   5.711   6.208   3.830 -0.1851 -0.3617  0.4641
 7902TIP3    H145121   5.692   6.294   3.793 -2.0350 -0.4346  1.2055
 7902TIP3    H245122   5.724   6.152   3.754 -1.8204 -0.0405 -0.0779
 7903TIP3   OH245123   4.291   3.739  16.008  0.1218  0.2550 -0.0964
 7903TIP3    H145124   4.196   3.752  16.005  0.0731 -0.4143 -2.2055
 7903TIP3    H245125   4.302   3.656  16.055 -0.4053 -0.1760 -0.7223
 7904TIP3   OH245126   6.665   2.711   0.519  0.2808  0.1615  0.2228
 7904TIP3    H145127   6.615   2.709   0.600  0.0249  2.0351  0.1159
 7904TIP3    H245128   6.603   2.741   0.453  1.1564  1.0945 -0.1820
 7905TIP3   OH245129   4.549   3.392   4.120 -0.1708  0.4110  0.0493
 7905TIP3    H145130   4.492   3.466   4.100 -0.2784 -0.0944 -1.5930
 7905TIP3    H245131   4.588   3.414   4.204 -0.2508  2.3128 -0.3882
 7906TIP3   OH245132   5.430   0.723   0.647  0.6927  0.6608 -0.3244
 7906TIP3    H145133   5.413   0.789   0.714 -0.6906  1.5565 -1.5386
 7906TIP3    H245134   5.514   0.750   0.608  0.4657  1.3114 -0.3615
 7907TIP3   OH245135   5.479   5.563   3.723 -0.2236 -0.1570 -0.2595
 7907TIP3    H145136   5.400   5.616   3.716 -1.0825 -1.5033 -0.8825
 7907TIP3    H245137   5.462   5.504   3.796  0.1667 -0.5087 -0.4495
 7908TIP3   OH245138   6.418   2.880   2.951 -0.2985 -0.6900 -0.2176
 7908TIP3    H145139   6.478   2.901   3.023 -0.3049  1.0879 -0.7118
 7908TIP3    H245140   6.398   2.787   2.963 -0.0879 -0.4857  1.9103
 7909TIP3   OH245141   0.610   0.910   3.899 -0.2142  0.0599  0.3417
 7909TIP3    H145142   0.551   0.844   3.862  0.2876  0.8439 -1.9849
 7909TIP3    H245143   0.655   0.865   3.970 -1.0832 -1.6075 -0.1277
 7910TIP3   OH245144   6.784   6.392   3.234  0.3413 -0.4404 -0.0099
 7910TIP3    H145145   6.701   6.421   3.272  0.8807  0.9063  0.1803
 7910TIP3    H245146   6.770   6.300   3.211 -1.5091  0.0303 -0.8481
 7911TIP3   OH245147   1.857   3.588  15.323 -0.4579 -0.0452 -0.0975
 7911TIP3    H145148   1.899   3.674  15.328 -0.1303 -0.2158  0.1460
 7911TIP3    H245149   1.931   3.527  15.313 -0.6933 -0.2890 -0.3484
 7912TIP3   OH245150   2.681   2.381   5.711 -0.6630  1.0011  0.1807
 7912TIP3    H145151   2.699   2.352   5.622  1.3354  0.7921  0.6118
 7912TIP3    H245152   2.734   2.322   5.766 -1.7677  1.2017  1.4880
 7913TIP3   OH245153   2.212   4.009  13.447  0.0114 -0.3111 -0.0159
 7913TIP3    H145154   2.297   4.051  13.432 -0.6355  1.0094 -0.0831
 7913TIP3    H245155   2.170   4.007  13.361  0.0522 -1.1507 -0.0186
 7914TIP3   OH245156   0.287   3.267  15.742  0.1770  0.2455 -0.3258
 7914TIP3    H145157   0.272   3.216  15.822 -0.9900 -0.5549 -1.0487
 7914TIP3    H245158   0.378   3.294  15.748 -0.2193  1.2115  1.8764
 7915TIP3   OH245159   0.856   0.302  15.841 -0.2888 -0.3802 -0.5351
 7915TIP3    H145160   0.833   0.222  15.887 -2.0736  0.0504 -0.6305
 7915TIP3    H245161   0.911   0.351  15.903  0.1630 -1.3221 -0.1885
 7916TIP3   OH245162   4.884   5.021  14.504  0.0160  0.3231  0.2217
 7916TIP3    H145163   4.884   4.926  14.487  1.7682  0.3170  0.2205
 7916TIP3    H245164   4.831   5.057  14.432  0.7069 -0.4913 -0.7173
 7917TIP3   OH245165   0.958   0.840  12.274  0.1055  0.2688  0.3478
 7917TIP3    H145166   1.051   0.821  12.269  0.1827  0.2536  1.6659
 7917TIP3    H245167   0.952   0.920  12.326 -0.6771 -0.3470  1.2352
 7918TIP3   OH245168   5.401   6.657  17.141  0.1150  0.3408  0.3823
 7918TIP3    H145169   5.311   6.689  17.149 -0.9956 -2.4336 -0.5858
 7918TIP3    H245170   5.409   6.590  17.209  0.3860 -1.6912 -1.5988
 7919TIP3   OH245171   0.221   3.135  16.635  0.1813 -0.3392 -0.8314
 7919TIP3    H145172   0.265   3.088  16.706 -0.2711 -0.1109 -0.4013
 7919TIP3    H245173   0.177   3.068  16.584 -1.7195 -0.2575  0.6489
 7920TIP3   OH245174   0.867   6.432   1.611  0.2190 -0.5788 -0.0390
 7920TIP3    H145175   0.865   6.427   1.515 -1.0415 -0.8180 -0.0120
 7920TIP3    H245176   0.874   6.341   1.639  1.1424 -0.4694  0.0922
 7921TIP3   OH245177   3.003   3.236   0.653  0.3822 -0.0094 -0.3250
 7921TIP3    H145178   3.018   3.177   0.580  0.9536  0.0894 -0.2879
 7921TIP3    H245179   3.078   3.223   0.711  1.5581  2.2232 -1.2845
 7922TIP3   OH245180   6.187   3.239   3.280  0.5965  0.5168 -0.3371
 7922TIP3    H145181   6.095   3.224   3.300  0.6677  0.6453  0.0936
 7922TIP3    H245182   6.186   3.307   3.212  0.3526  0.0588 -0.7990
 7923TIP3   OH245183   1.201   4.115   0.867 -0.4296  0.0188  0.6092
 7923TIP3    H145184   1.237   4.027   0.851 -1.7286 -0.3454 -0.4082
 7923TIP3    H245185   1.230   4.166   0.791 -0.4051  0.2500  0.7737
 7924TIP3   OH245186   5.737   0.374  15.578  0.2082 -0.6296 -0.1909
 7924TIP3    H145187   5.664   0.389  15.517  0.5747  0.7020 -0.3097
 7924TIP3    H245188   5.815   0.400  15.529  0.7869 -2.0930 -0.0758
 7925TIP3   OH245189   0.290   5.192  14.641 -0.1145  0.0136 -0.1178
 7925TIP3    H145190   0.202   5.156  14.643 -0.0411 -0.1075  1.4601
 7925TIP3    H245191   0.323   5.180  14.730  0.8405  1.6909 -0.2178
 7926TIP3   OH245192   2.819   1.901  15.395 -0.2210 -0.2980  0.0167
 7926TIP3    H145193   2.778   1.867  15.315 -2.2590 -0.1674  0.9804
 7926TIP3    H245194   2.838   1.822  15.446  0.4702 -0.3378 -0.2926
 7927TIP3   OH245195   3.607   5.831  10.939  0.0299 -0.8582 -0.1406
 7927TIP3    H145196   3.530   5.835  10.883 -0.3299 -0.7454  0.3598
 7927TIP3    H245197   3.672   5.885  10.894 -0.6789  0.2944  0.2038
 7928TIP3   OH245198   2.935   3.065  10.492 -0.0293 -0.1926 -0.3294
 7928TIP3    H145199   2.925   3.121  10.569 -0.7338  1.3143 -1.4975
 7928TIP3    H245200   3.028   3.040  10.492 -0.2320 -0.9988  1.5266
 7929TIP3   OH245201   0.036   4.430  15.400  1.0874  0.0706  0.3886
 7929TIP3    H145202   0.121   4.386  15.398 -0.2611 -2.6167 -1.2652
 7929TIP3    H245203   0.017   4.451  15.309 -1.2650 -2.0205  0.3129
 7930TIP3   OH245204   1.669   6.744  15.319  0.2265 -0.3993  0.6472
 7930TIP3    H145205   1.726   6.687  15.268 -1.6015 -1.4437 -0.2677
 7930TIP3    H245206   1.690   6.833  15.288  0.9115 -0.8108 -0.0833
 7931TIP3   OH245207   4.910   6.069   3.842  0.0197  0.0537 -0.0229
 7931TIP3    H145208   4.930   6.024   3.924  1.9179  1.0600  0.0930
 7931TIP3    H245209   4.838   6.128   3.863 -2.4296 -2.7736 -0.1453
 7932TIP3   OH245210   0.518   0.960  15.263 -0.2582 -0.6830  0.1514
 7932TIP3    H145211   0.490   0.896  15.329  0.3117  1.6799  2.7837
 7932TIP3    H245212   0.604   0.929  15.235 -0.1032 -1.2413  1.2134
 7933TIP3   OH245213   4.057   0.134   5.635  0.2062  0.0012 -0.0016
 7933TIP3    H145214   4.091   0.054   5.675 -1.5141 -0.3796  0.7748
 7933TIP3    H245215   4.127   0.198   5.644  0.8309 -0.8399  1.2561
 7934TIP3   OH245216   6.513   5.287   1.772 -0.6147 -0.3380  0.0929
 7934TIP3    H145217   6.581   5.328   1.826  0.1434 -0.3625 -0.8330
 7934TIP3    H245218   6.552   5.281   1.685 -2.0371  0.1655 -0.5783
 7935TIP3   OH245219   3.514   4.507   0.919 -0.2940  0.1313 -0.0547
 7935TIP3    H145220   3.454   4.435   0.938  0.0403  0.5196  2.5702
 7935TIP3    H245221   3.575   4.470   0.855 -1.2810 -1.2984 -0.2092
 7936TIP3   OH245222   0.810   1.150   3.419 -0.8559  0.3876  0.9178
 7936TIP3    H145223   0.864   1.208   3.472 -0.1091  1.1525 -0.6303
 7936TIP3    H245224   0.769   1.090   3.481  1.0465  0.4025  2.2124
 7937TIP3   OH245225   0.518   2.614  15.233  0.4235 -0.5156 -0.8595
 7937TIP3    H145226   0.563   2.680  15.286 -1.0651 -0.6790  0.6556
 7937TIP3    H245227   0.437   2.657  15.206 -0.0246 -1.3299 -0.8146
 7938TIP3   OH245228   1.217   4.825   3.846 -0.1904 -0.1059  0.0474
 7938TIP3    H145229   1.157   4.751   3.854  0.5010 -0.7724 -0.8228
 7938TIP3    H245230   1.267   4.807   3.766  2.2859 -0.4063  1.5980
 7939TIP3   OH245231   6.339   5.243   2.016  0.2187 -0.5113  0.9710
 7939TIP3    H145232   6.367   5.333   2.029  0.1410 -0.2999 -0.3514
 7939TIP3    H245233   6.310   5.215   2.103 -0.0800  0.8359  1.3203
 7940TIP3   OH245234   3.333   3.411   0.567 -0.7234 -0.2486  0.0633
 7940TIP3    H145235   3.412   3.412   0.513 -0.5576  0.7719  0.3221
 7940TIP3    H245236   3.263   3.382   0.508 -0.0682 -1.7118 -0.0259
 7941TIP3   OH245237   3.869   0.393  15.765  0.6754 -0.7126  0.1802
 7941TIP3    H145238   3.932   0.445  15.815  0.0291 -0.4983  0.7713
 7941TIP3    H245239   3.787   0.400  15.814  0.0683 -0.6051 -0.8441
 7942TIP3   OH245240   4.135   2.652  14.759  0.3336  0.1412 -0.4471
 7942TIP3    H145241   4.055   2.698  14.782  0.4036 -1.6131  3.6915
 7942TIP3    H245242   4.125   2.564  14.796  4.8426  0.4107  1.8051
 7943TIP3   OH245243   3.994   2.002  13.863 -0.0782 -0.2110 -0.2862
 7943TIP3    H145244   4.029   2.082  13.901  0.3824 -0.3745 -0.3646
 7943TIP3    H245245   3.971   1.948  13.939 -0.8357  0.1802 -0.2260
 7944TIP3   OH245246   2.787   4.772   1.948 -0.2104  0.7632 -0.3683
 7944TIP3    H145247   2.703   4.784   1.992 -0.3794  1.3477 -0.8450
 7944TIP3    H245248   2.792   4.678   1.931  0.7995  0.2036  2.7318
 7945TIP3   OH245249   3.972   4.512  13.240  0.0679  0.1343  0.2452
 7945TIP3    H145250   3.906   4.581  13.229  0.0084 -0.1646 -1.4561
 7945TIP3    H245251   4.053   4.558  13.260 -0.5068  0.5410  1.7433
 7946TIP3   OH245252   2.332   2.852  12.660  0.1244 -0.1390 -0.4816
 7946TIP3    H145253   2.264   2.900  12.610  0.3476  0.5096 -0.1711
 7946TIP3    H245254   2.414   2.892  12.632  0.3943 -1.0076 -0.9457
 7947TIP3   OH245255   2.421   5.684   0.283 -0.1192 -0.1371  0.8772
 7947TIP3    H145256   2.381   5.754   0.231  0.1755  0.3005  1.2370
 7947TIP3    H245257   2.360   5.671   0.356  0.4670  0.6463  1.5177
 7948TIP3   OH245258   2.135   1.209   6.349 -0.3542  0.0715 -0.1709
 7948TIP3    H145259   2.071   1.216   6.420  0.4731  1.4051  0.4792
 7948TIP3    H245260   2.118   1.285   6.293 -0.3324 -0.4114 -0.8422
 7949TIP3   OH245261   0.327   3.571   2.148  0.3325  0.2688 -0.1315
 7949TIP3    H145262   0.268   3.504   2.183 -0.5126  2.3272  2.5471
 7949TIP3    H245263   0.404   3.567   2.205  0.7642  0.8190 -0.6717
 7950TIP3   OH245264   3.813   2.050  14.172  0.1886 -0.2630  0.0172
 7950TIP3    H145265   3.820   2.111  14.099  0.3989 -0.4700 -0.1350
 7950TIP3    H245266   3.902   2.021  14.189  0.1171 -0.3633  0.2297
 7951TIP3   OH245267   0.394   3.356  16.004 -0.1236 -0.3024 -0.3883
 7951TIP3    H145268   0.403   3.448  15.983  0.3182 -0.6944 -1.9751
 7951TIP3    H245269   0.300   3.343  16.017 -0.2964  0.1462 -1.1941
 7952TIP3   OH245270   4.354   2.094  10.923 -0.4233  0.2604  0.8708
 7952TIP3    H145271   4.425   2.130  10.977 -0.4250  1.2559  0.2179
 7952TIP3    H245272   4.276   2.143  10.950 -0.5324  0.3696  0.3578
 7953TIP3   OH245273   5.825   0.956   0.948  0.1730  0.0454  0.2317
 7953TIP3    H145274   5.895   1.020   0.936  0.1218 -0.1740 -1.4210
 7953TIP3    H245275   5.835   0.895   0.875 -1.5067 -0.2069  0.1714
 7954TIP3   OH245276   0.418   5.656   4.121 -0.0832 -0.3775 -0.1959
 7954TIP3    H145277   0.503   5.642   4.163  0.0953  0.9150 -0.1075
 7954TIP3    H245278   0.426   5.612   4.037  0.9270  0.2878 -0.4711
 7955TIP3   OH245279   4.325   5.423  13.791  0.2108  0.0539  0.1665
 7955TIP3    H145280   4.362   5.499  13.835  0.0222 -1.1532  2.4722
 7955TIP3    H245281   4.399   5.386  13.742 -0.2201  2.9773 -2.9219
 7956TIP3   OH245282   5.172   0.753   5.980 -0.0520 -0.5318 -0.6024
 7956TIP3    H145283   5.265   0.748   6.004 -0.1227 -1.1147 -0.4448
 7956TIP3    H245284   5.134   0.674   6.017 -1.1218  0.9322  1.5185
 7957TIP3   OH245285   3.480   5.137   5.004 -0.3131  0.1435  0.3291
 7957TIP3    H145286   3.534   5.148   4.925 -2.1841  1.1430 -0.8700
 7957TIP3    H245287   3.427   5.059   4.986 -2.5582  1.8074 -0.5477
 7958TIP3   OH245288   2.714   2.264   5.437  0.3461  0.3242  0.1808
 7958TIP3    H145289   2.621   2.259   5.459  0.8649 -0.5828  2.3689
 7958TIP3    H245290   2.718   2.243   5.344 -1.6402  0.3248  0.0723
 7959TIP3   OH245291   4.467   1.935   2.596 -0.0892 -0.5477  0.5048
 7959TIP3    H145292   4.382   1.893   2.609 -0.9270  0.2391 -2.0613
 7959TIP3    H245293   4.499   1.901   2.513  1.2585  0.5420  0.5460
 7960TIP3   OH245294   5.200   4.614  12.387  0.7779 -0.7318  0.2055
 7960TIP3    H145295   5.186   4.568  12.304  0.9669  0.0680 -0.2809
 7960TIP3    H245296   5.289   4.590  12.412  0.6696 -1.0881  0.2449
 7961TIP3   OH245297   3.602   0.367  15.852 -0.1211  0.3964 -0.3516
 7961TIP3    H145298   3.568   0.450  15.819 -0.6386  0.2454 -0.2050
 7961TIP3    H245299   3.547   0.301  15.810  0.0211  0.1490 -0.1459
 7962TIP3   OH245300   0.355   4.955   0.680 -0.1088 -0.3540 -0.2272
 7962TIP3    H145301   0.343   5.003   0.762  2.8442 -0.6324  0.4293
 7962TIP3    H245302   0.450   4.942   0.673 -0.3733 -1.0953 -3.2647
 7963TIP3   OH245303   1.442   4.721  15.732 -0.2519 -0.2166  0.5296
 7963TIP3    H145304   1.494   4.668  15.671 -2.1112 -1.1283 -0.3376
 7963TIP3    H245305   1.409   4.658  15.796  0.8663  0.5807  1.9061
 7964TIP3   OH245306   5.439   0.815  13.536  0.0168  1.1953 -0.3284
 7964TIP3    H145307   5.444   0.723  13.563  1.0577  1.1070 -0.7959
 7964TIP3    H245308   5.351   0.843  13.562  0.3677  0.6216  1.5897
 7965TIP3   OH245309   5.255   2.024  13.314  1.2585  0.1447 -0.2498
 7965TIP3    H145310   5.215   2.110  13.326 -0.7281 -0.8601  0.4871
 7965TIP3    H245311   5.278   2.021  13.221 -1.2600  0.4038 -0.9159
 7966TIP3   OH245312   3.077   2.894   4.193  0.0584 -0.2180  0.0103
 7966TIP3    H145313   3.123   2.892   4.110  1.5093 -0.4677  0.7968
 7966TIP3    H245314   3.146   2.890   4.259 -1.1199 -1.5944  1.2228
 7967TIP3   OH245315   2.031   0.269  14.744  0.4006 -0.1625  0.1895
 7967TIP3    H145316   2.033   0.191  14.689  1.0998  0.4190 -0.6298
 7967TIP3    H245317   1.940   0.297  14.744  0.5070  0.2050 -1.2094
 7968TIP3   OH245318   6.175   2.798   4.613 -0.1666 -0.5066  0.1431
 7968TIP3    H145319   6.252   2.759   4.654 -0.6643 -0.2202  1.3487
 7968TIP3    H245320   6.180   2.891   4.634 -0.6328 -0.4206 -0.1175
 7969TIP3   OH245321   4.200   6.385   4.859 -0.4584 -0.0871 -0.3686
 7969TIP3    H145322   4.201   6.469   4.813  2.1926  0.6895  0.9967
 7969TIP3    H245323   4.118   6.344   4.832 -2.4995  3.5178 -0.0316
 7970TIP3   OH245324   6.477   1.556  15.474 -0.3281 -0.8719 -0.5802
 7970TIP3    H145325   6.406   1.504  15.437 -0.7568 -0.6395 -0.0963
 7970TIP3    H245326   6.436   1.638  15.501  0.1510 -0.6736 -0.4401
 7971TIP3   OH245327   6.752   3.514  11.784  0.0579 -0.5329 -0.2173
 7971TIP3    H145328   6.726   3.506  11.692 -1.5628 -0.1229  0.1986
 7971TIP3    H245329   6.723   3.601  11.810  1.3525 -0.2766  0.4404
 7972TIP3   OH245330   1.341   0.060   1.576 -0.6940 -0.3506 -0.5520
 7972TIP3    H145331   1.281   0.035   1.506 -1.7680 -0.0155  0.2503
 7972TIP3    H245332   1.289   0.113   1.636  0.0693 -1.1189  0.8134
 7973TIP3   OH245333   1.976   3.576   5.730 -0.4798 -0.0493  0.0351
 7973TIP3    H145334   1.892   3.612   5.756 -1.4126 -1.9141 -0.3370
 7973TIP3    H245335   1.993   3.613   5.643  0.4066  2.4564  1.2118
 7974TIP3   OH245336   3.781   1.302  12.916  0.1646  0.4905  0.5833
 7974TIP3    H145337   3.692   1.301  12.882  0.1187 -0.8174  0.7255
 7974TIP3    H245338   3.817   1.216  12.894  1.3126  0.9173  0.7324
 7975TIP3   OH245339   2.682   4.072  11.685 -0.0555 -0.1430 -0.0924
 7975TIP3    H145340   2.756   4.072  11.624 -0.6642  2.4456 -0.9216
 7975TIP3    H245341   2.606   4.054  11.629 -0.1725 -1.7118  0.5693
 7976TIP3   OH245342   5.651   4.220   5.427  0.1903 -0.0800 -0.4774
 7976TIP3    H145343   5.625   4.290   5.367  1.3642  2.0731  1.4354
 7976TIP3    H245344   5.583   4.220   5.494  0.2934 -0.6526 -0.3730
 7977TIP3   OH245345   4.917   5.875  17.223  0.3049 -0.1252  0.4082
 7977TIP3    H145346   4.973   5.915  17.289  2.0871 -1.3212 -0.3229
 7977TIP3    H245347   4.911   5.941  17.154  2.0805 -0.5245 -0.1688
 7978TIP3   OH245348   6.525   5.141   5.451 -0.0948 -0.3798  0.4851
 7978TIP3    H145349   6.460   5.159   5.520 -0.6774  1.5021 -0.5485
 7978TIP3    H245350   6.592   5.207   5.463  0.3278 -0.6978 -0.1167
 7979TIP3   OH245351   4.092   4.891  13.442  0.0890  0.0380 -0.2978
 7979TIP3    H145352   4.142   4.909  13.362 -2.1940 -1.2540 -2.0880
 7979TIP3    H245353   4.106   4.798  13.459  0.2814  0.2312  0.6230
 7980TIP3   OH245354   6.689   1.706  11.542 -0.6361  0.3763  0.7207
 7980TIP3    H145355   6.679   1.708  11.637  0.7180  0.7403  0.8739
 7980TIP3    H245356   6.681   1.614  11.519 -0.1559  0.1841  1.2965
 7981TIP3   OH245357   5.985   4.449  10.835 -0.5499 -0.5800 -0.0502
 7981TIP3    H145358   5.890   4.459  10.835 -0.3812  1.0414  0.0731
 7981TIP3    H245359   6.002   4.384  10.766 -1.6767 -0.3367 -0.5681
 7982TIP3   OH245360   5.713   0.116  15.684  0.5441 -0.3524  0.0262
 7982TIP3    H145361   5.749   0.201  15.659 -1.4199  1.1844  2.2031
 7982TIP3    H245362   5.667   0.084  15.606 -0.1750  1.3995 -0.2792
 7983TIP3   OH245363   6.519   2.102   3.345  0.1913 -0.1594  0.2375
 7983TIP3    H145364   6.461   2.135   3.413  0.8737 -0.7978  1.1363
 7983TIP3    H245365   6.552   2.019   3.380 -2.0232 -2.1813 -2.2395
 7984TIP3   OH245366   6.267   4.501  10.647 -0.3064  0.4133  0.0227
 7984TIP3    H145367   6.226   4.586  10.664 -0.2937  0.6780 -1.1891
 7984TIP3    H245368   6.195   4.446  10.616 -0.0009  0.4896 -0.8385
 7985TIP3   OH245369   6.348   4.585  12.808  0.1477 -0.1624  0.0390
 7985TIP3    H145370   6.350   4.603  12.714 -0.3829 -1.0260 -0.1404
 7985TIP3    H245371   6.429   4.624  12.841 -0.8107  2.3341 -0.3690
 7986TIP3   OH245372   5.333   6.147   1.900  0.1059 -0.2356 -0.5829
 7986TIP3    H145373   5.421   6.149   1.862  0.1326 -0.7821 -0.5445
 7986TIP3    H245374   5.348   6.143   1.995  0.0378  0.7603 -0.5226
 7987TIP3   OH245375   4.480   1.809   5.992  0.4347  0.2064  0.4327
 7987TIP3    H145376   4.408   1.747   6.003 -0.0320  0.9495  1.7362
 7987TIP3    H245377   4.557   1.754   5.979 -0.0808 -0.6467  0.9010
 7988TIP3   OH245378   5.451   3.543   0.847 -0.0536  0.0803  0.7675
 7988TIP3    H145379   5.379   3.480   0.854  0.3188 -0.3572  0.6335
 7988TIP3    H245380   5.407   3.628   0.849 -0.5740 -0.1812  0.7588
 7989TIP3   OH245381   0.527   1.928  13.432  0.2791 -0.2990 -0.0986
 7989TIP3    H145382   0.438   1.895  13.443  0.5258 -0.8336  0.3583
 7989TIP3    H245383   0.550   1.965  13.518  0.2203  0.5218 -0.4383
 7990TIP3   OH245384   6.749   3.851  13.661 -0.2673  0.8085  0.5044
 7990TIP3    H145385   6.753   3.877  13.753 -1.3043  0.3308  0.6946
 7990TIP3    H245386   6.839   3.831  13.637  0.0337  1.1508  1.3574
 7991TIP3   OH245387   5.682   2.143   3.955  0.7033 -0.4056 -0.3534
 7991TIP3    H145388   5.658   2.236   3.961  2.0378 -0.0690 -0.1559
 7991TIP3    H245389   5.601   2.100   3.928  0.0475  0.8033 -0.3811
 7992TIP3   OH245390   3.570   5.650  13.017 -0.6734 -0.1735 -0.3961
 7992TIP3    H145391   3.548   5.677  12.927 -2.3635  0.4772  0.1941
 7992TIP3    H245392   3.646   5.704  13.040  0.3447 -0.9848 -1.7353
 7993TIP3   OH245393   5.620   1.820  14.345  0.6364  0.0247 -0.2729
 7993TIP3    H145394   5.634   1.750  14.281  1.2963 -0.6583  0.6102
 7993TIP3    H245395   5.680   1.890  14.317  1.3015 -0.4711 -0.1119
 7994TIP3   OH245396   2.922   6.751  13.989 -0.4590 -0.0935  0.1366
 7994TIP3    H145397   2.869   6.808  13.934  2.6334  1.5461 -1.2671
 7994TIP3    H245398   2.918   6.791  14.076  0.3841  1.4085 -0.4900
 7995TIP3   OH245399   0.649   3.317  14.151  0.4737 -0.0224 -0.1771
 7995TIP3    H145400   0.582   3.265  14.107 -0.3787 -1.2155  2.4600
 7995TIP3    H245401   0.729   3.301  14.100 -0.6807 -0.5190 -1.8955
 7996TIP3   OH245402   4.531   1.652  15.775  0.8661 -0.2302  0.3480
 7996TIP3    H145403   4.590   1.664  15.701  2.1450 -1.2604  1.1723
 7996TIP3    H245404   4.462   1.595  15.742  2.2685 -1.9979  0.3443
 7997TIP3   OH245405   1.368   0.172   0.847  0.0914 -0.1039  0.2780
 7997TIP3    H145406   1.439   0.211   0.796  1.6101 -3.0131 -0.0068
 7997TIP3    H245407   1.335   0.102   0.791 -2.4155  0.6256  0.8094
 7998TIP3   OH245408   3.482   0.242   5.871 -0.4629 -0.3330  0.3659
 7998TIP3    H145409   3.435   0.158   5.870 -0.9094 -0.1076 -3.0177
 7998TIP3    H245410   3.422   0.303   5.827  0.7668  1.2328  0.8537
 7999TIP3   OH245411   2.773   0.590  12.256  0.6801  0.5351  0.1175
 7999TIP3    H145412   2.865   0.578  12.280  0.1815 -0.3328  1.6662
 7999TIP3    H245413   2.724   0.539  12.321 -0.7882 -0.9353 -2.0272
 8000TIP3   OH245414   6.640   1.800   1.650 -0.0898  0.0120 -0.2694
 8000TIP3    H145415   6.577   1.844   1.593 -2.1426 -0.3221  1.6781
 8000TIP3    H245416   6.674   1.870   1.706 -1.1186 -0.3267  0.8047
 8001TIP3   OH245417   6.334   0.297   4.765 -0.5538  0.0078  0.6980
 8001TIP3    H145418   6.263   0.361   4.756 -0.7224 -0.4655 -1.9048
 8001TIP3    H245419   6.410   0.340   4.724 -0.5370 -1.2038 -0.6001
 8002TIP3   OH245420   1.103   3.056  14.385  0.3502  0.1831  0.1722
 8002TIP3    H145421   1.131   3.135  14.338  0.4907 -1.6264 -2.9843
 8002TIP3    H245422   1.068   3.087  14.468  0.3008  3.5524 -1.0615
 8003TIP3   OH245423   3.291   0.798  16.499 -0.0107 -0.6386  0.4446
 8003TIP3    H145424   3.245   0.737  16.441 -1.7873 -0.0535  1.1984
 8003TIP3    H245425   3.280   0.759  16.586 -1.7479  1.0572  1.0278
 8004TIP3   OH245426   3.007   0.254   2.306 -0.2312 -0.0666  0.0327
 8004TIP3    H145427   3.091   0.296   2.288  0.8127 -1.7930  0.6925
 8004TIP3    H245428   3.007   0.240   2.401 -0.0520 -2.4934 -0.2889
 8005TIP3   OH245429   3.570   5.223  11.688  0.0144  0.0695 -0.1430
 8005TIP3    H145430   3.545   5.150  11.633 -2.1926 -0.2395  1.1965
 8005TIP3    H245431   3.612   5.182  11.764 -0.3793  0.2430  0.1703
 8006TIP3   OH245432   5.611   3.299  17.150  0.3678 -0.4817  0.1306
 8006TIP3    H145433   5.561   3.263  17.076 -0.0643  0.0285  0.1703
 8006TIP3    H245434   5.653   3.224  17.189 -0.7807 -0.9930  0.4075
 8007TIP3   OH245435   4.427   6.056   0.886  0.1316  0.6064 -0.2556
 8007TIP3    H145436   4.406   6.009   0.805  0.5866  0.9636 -0.5882
 8007TIP3    H245437   4.522   6.044   0.896  0.0885  0.6426  0.1747
 8008TIP3   OH245438   4.866   1.992   1.042  0.3542 -0.3020  0.4837
 8008TIP3    H145439   4.868   2.088   1.041 -1.7042 -0.2120  1.5422
 8008TIP3    H245440   4.933   1.966   0.979  0.5609  1.8350 -0.2319
 8009TIP3   OH245441   1.892   1.014  16.219  0.5735  0.0361 -1.0498
 8009TIP3    H145442   1.870   1.090  16.274  0.2122  0.4750 -1.7927
 8009TIP3    H245443   1.839   1.026  16.140  0.3882 -1.0910 -1.0954
 8010TIP3   OH245444   3.681   4.801  11.455 -0.4202 -0.2779 -0.3617
 8010TIP3    H145445   3.608   4.858  11.430 -0.2396 -1.1037 -2.9425
 8010TIP3    H245446   3.645   4.713  11.451 -0.0208 -0.5234  1.1461
 8011TIP3   OH245447   0.859   5.061   4.097 -0.3546 -0.0844  0.7255
 8011TIP3    H145448   0.947   5.041   4.128 -1.8993 -2.8482  3.6598
 8011TIP3    H245449   0.829   5.132   4.154 -0.3272  0.2888  0.2764
 8012TIP3   OH245450   4.660   2.392   4.575  0.0085 -0.0636 -0.1225
 8012TIP3    H145451   4.598   2.369   4.506 -0.3544  0.8627 -0.1079
 8012TIP3    H245452   4.743   2.405   4.529  0.1845 -1.2300 -0.1515
 8013TIP3   OH245453   3.912   0.488   1.106  0.3037 -0.0784 -0.0676
 8013TIP3    H145454   3.941   0.488   1.197  1.3923  0.2114 -0.4065
 8013TIP3    H245455   3.959   0.415   1.066 -2.3622 -2.0287  0.2649
 8014TIP3   OH245456   3.164   4.036   1.798  0.1913  0.3213 -0.3567
 8014TIP3    H145457   3.180   3.951   1.756  0.0062 -1.1398  2.4330
 8014TIP3    H245458   3.099   4.018   1.866  1.6024  2.2904  1.5812
 8015TIP3   OH245459   6.776   3.195  12.095  0.4463 -0.0687  0.1053
 8015TIP3    H145460   6.710   3.215  12.027  0.5784  0.5157  0.1460
 8015TIP3    H245461   6.853   3.245  12.069  1.3276 -1.7918 -0.6701
 8016TIP3   OH245462   0.576   1.452   4.751 -0.0903 -0.0567 -0.5055
 8016TIP3    H145463   0.670   1.440   4.755 -0.0777  0.3018  0.3057
 8016TIP3    H245464   0.563   1.524   4.690  0.1079 -0.7014 -1.3151
 8017TIP3   OH245465   6.012   4.006   4.184 -0.4590  0.1114 -0.2038
 8017TIP3    H145466   6.043   4.082   4.235  0.0686 -0.1680 -0.1132
 8017TIP3    H245467   5.969   4.045   4.108 -2.3197  0.5786  1.0394
 8018TIP3   OH245468   4.433   1.284   0.683  0.0510  0.4014  0.0847
 8018TIP3    H145469   4.373   1.211   0.699 -0.4232  0.9526  0.8960
 8018TIP3    H245470   4.406   1.351   0.747  1.2812  0.8060  0.1865
 8019TIP3   OH245471   2.604   4.270  14.675 -0.9096 -0.3205  0.9558
 8019TIP3    H145472   2.655   4.346  14.648 -0.7544 -0.3821  1.0765
 8019TIP3    H245473   2.665   4.217  14.726 -1.0999 -0.3821  1.1202
 8020TIP3   OH245474   5.643   5.795  11.942 -0.1503 -0.8309  0.2928
 8020TIP3    H145475   5.683   5.881  11.957 -1.1799 -0.1412 -0.8943
 8020TIP3    H245476   5.593   5.805  11.862 -0.8643 -2.3504  0.5338
 8021TIP3   OH245477   3.182   0.392   4.635 -0.9723  0.0434  0.5448
 8021TIP3    H145478   3.108   0.446   4.608 -1.8365 -0.5556  1.6590
 8021TIP3    H245479   3.230   0.446   4.697  0.0065  0.7445 -0.8019
 8022TIP3   OH245480   3.862   0.633  15.288  0.1626  0.3260  0.0122
 8022TIP3    H145481   3.915   0.710  15.270  1.9379 -0.9520 -0.3499
 8022TIP3    H245482   3.864   0.624  15.384  2.2022 -0.7744 -0.0935
 8023TIP3   OH245483   3.011   5.499   0.676 -0.5982  0.2277  0.2567
 8023TIP3    H145484   2.964   5.476   0.757 -0.5229  0.9765  0.5169
 8023TIP3    H245485   2.947   5.546   0.623 -0.2780  0.8613  0.4256
 8024TIP3   OH245486   2.151   1.213  14.661 -0.4820  0.5832 -0.6960
 8024TIP3    H145487   2.152   1.140  14.599 -0.0655  0.0588 -0.0715
 8024TIP3    H245488   2.192   1.179  14.740 -1.5189  1.0776  0.0804
 8025TIP3   OH245489   2.329   5.327  12.315 -0.4260  0.0182 -0.1507
 8025TIP3    H145490   2.339   5.244  12.362 -0.4607 -0.6749 -1.3441
 8025TIP3    H245491   2.405   5.332  12.258 -0.2215  1.0084  0.2031
 8026TIP3   OH245492   4.187   4.376  15.510  0.2274  0.3484 -0.1504
 8026TIP3    H145493   4.205   4.443  15.444 -1.7737 -0.4562 -1.5705
 8026TIP3    H245494   4.127   4.418  15.571  0.9710  0.6466  0.3810
 8027TIP3   OH245495   1.644   6.723   1.254 -0.5103  0.1761 -1.3428
 8027TIP3    H145496   1.694   6.743   1.333 -0.0603 -2.7610 -0.8392
 8027TIP3    H245497   1.665   6.795   1.194  0.3837  1.5984  0.6049
 8028TIP3   OH245498   3.184   2.907  12.454  0.2863 -1.1268 -0.6772
 8028TIP3    H145499   3.154   2.820  12.483 -3.4182 -0.7005 -2.9351
 8028TIP3    H245500   3.243   2.888  12.381 -1.6279 -1.7446 -2.0951
 8029TIP3   OH245501   0.102   3.493   4.823  0.7740  0.0115 -0.0101
 8029TIP3    H145502   0.140   3.546   4.894  0.4148  0.0902  0.1270
 8029TIP3    H245503   0.013   3.474   4.853  1.2848 -1.6800  0.4848
 8030TIP3   OH245504   2.153   0.131   4.230 -0.5842  0.5101 -0.4247
 8030TIP3    H145505   2.068   0.096   4.203  0.8714 -2.9322 -0.8200
 8030TIP3    H245506   2.169   0.204   4.171 -3.1911  1.1485 -0.4071
 8031TIP3   OH245507   6.296   5.290  13.162 -0.5576 -0.2630  0.1080
 8031TIP3    H145508   6.363   5.273  13.229 -0.6766  1.1484  0.6042
 8031TIP3    H245509   6.326   5.369  13.118 -1.1978 -0.4067 -0.5914
 8032TIP3   OH245510   2.273   0.263  11.170  0.0012 -0.0232 -0.5605
 8032TIP3    H145511   2.340   0.195  11.170  1.0205  0.9656  0.3299
 8032TIP3    H245512   2.205   0.229  11.112  0.2577 -2.0343  0.2560
 8033TIP3   OH245513   6.316   6.215  13.104  0.9163 -0.2092 -0.0952
 8033TIP3    H145514   6.326   6.211  13.200  2.2965 -0.5674 -0.2448
 8033TIP3    H245515   6.251   6.148  13.084 -1.5273  1.8012  0.8653
 8034TIP3   OH245516   5.968   5.928  12.558  0.2259 -0.2985 -0.0266
 8034TIP3    H145517   5.968   5.995  12.490  0.1141  0.3824  0.6441
 8034TIP3    H245518   6.020   5.856  12.520  1.2512  0.5877 -0.3252
 8035TIP3   OH245519   2.661   6.449  14.307 -0.3875 -0.7513  0.1048
 8035TIP3    H145520   2.664   6.381  14.239  1.9410  0.6686 -1.2979
 8035TIP3    H245521   2.741   6.435  14.357  0.2180  1.0416 -0.3207
 8036TIP3   OH245522   6.337   5.304   5.043 -0.1527  0.0639 -0.3147
 8036TIP3    H145523   6.416   5.356   5.059  0.5607 -0.8617 -0.7792
 8036TIP3    H245524   6.368   5.227   4.996 -1.1897 -0.8021  0.3815
 8037TIP3   OH245525   1.984   4.182   1.958 -0.1073 -0.1661 -0.2778
 8037TIP3    H145526   1.921   4.236   1.911 -0.0090 -1.5157 -2.0115
 8037TIP3    H245527   1.944   4.168   2.044 -1.3438  0.4681 -0.7366
 8038TIP3   OH245528   1.359   5.426  15.436 -0.1975  0.4581 -0.1586
 8038TIP3    H145529   1.422   5.443  15.367  0.8295  0.3103  0.7359
 8038TIP3    H245530   1.336   5.512  15.470 -1.9097  0.6620 -1.7097
 8039TIP3   OH245531   5.113   3.174   4.668 -0.6888  0.3183 -0.1772
 8039TIP3    H145532   5.074   3.174   4.755 -1.7416 -0.3783 -0.6523
 8039TIP3    H245533   5.138   3.266   4.654  0.0269  0.3285  1.0896
 8040TIP3   OH245534   0.750   1.504  11.411  0.4376 -0.0440 -0.2386
 8040TIP3    H145535   0.659   1.520  11.433  0.3484 -2.0672  1.0085
 8040TIP3    H245536   0.747   1.446  11.335  0.6569 -1.1855  0.6117
 8041TIP3   OH245537   1.899   2.144   4.989  0.3651  0.0330 -0.6027
 8041TIP3    H145538   1.848   2.076   5.033 -0.9703  1.0090 -0.5879
 8041TIP3    H245539   1.933   2.102   4.910 -1.5296 -0.3010 -1.2707
 8042TIP3   OH245540   0.162   2.377   1.247 -0.3472 -0.0439  0.2225
 8042TIP3    H145541   0.232   2.338   1.195 -0.0413  0.5306  0.1999
 8042TIP3    H245542   0.169   2.471   1.231  1.5928  0.4488  3.5546
 8043TIP3   OH245543   4.870   2.065   0.497 -0.2553  0.5600 -0.1141
 8043TIP3    H145544   4.835   1.994   0.552  1.0287  0.4412  0.5627
 8043TIP3    H245545   4.853   2.145   0.547  1.1327  0.4300  0.5927
 8044TIP3   OH245546   3.777   4.744   0.762 -0.3021 -0.2247 -0.0567
 8044TIP3    H145547   3.844   4.805   0.795 -0.7427  0.6439 -0.7245
 8044TIP3    H245548   3.739   4.705   0.840 -0.4548  0.8487  0.4218
 8045TIP3   OH245549   3.355   0.340  13.474  0.1291 -0.0247  0.3472
 8045TIP3    H145550   3.395   0.261  13.510 -1.7155 -1.4427 -0.5948
 8045TIP3    H245551   3.413   0.411  13.501  1.7525 -1.6765  1.3445
 8046TIP3   OH245552   4.507   2.026  12.796 -0.1122  0.2628 -0.1956
 8046TIP3    H145553   4.450   2.071  12.858  2.2272  0.1229  2.1615
 8046TIP3    H245554   4.555   2.097  12.752  0.1789  0.2770  0.1374
 8047TIP3   OH245555   4.462   4.217  14.249  0.2431  0.6081 -0.1597
 8047TIP3    H145556   4.395   4.148  14.246  1.0484 -0.2113  0.3478
 8047TIP3    H245557   4.421   4.289  14.295  0.2576 -0.5097  1.6541
 8048TIP3   OH245558   2.430   6.080   1.474  0.3794  0.7890  0.2944
 8048TIP3    H145559   2.386   6.083   1.559 -2.6115 -1.4076 -1.0857
 8048TIP3    H245560   2.496   6.011   1.483 -0.3914  0.0882  0.6851
 8049TIP3   OH245561   5.371   4.676  14.097 -0.0902  0.2086  0.8690
 8049TIP3    H145562   5.344   4.767  14.089 -1.4318 -0.2692 -0.3241
 8049TIP3    H245563   5.464   4.680  14.119 -0.5916  1.8623  2.7885
 8050TIP3   OH245564   1.530   6.204   5.938  0.5760 -0.3732 -0.0834
 8050TIP3    H145565   1.510   6.113   5.912  0.1031 -1.0630  2.5256
 8050TIP3    H245566   1.604   6.196   5.998  0.6913  1.0169 -0.0255
 8051TIP3   OH245567   0.477   6.241  13.286 -0.1453 -0.3453  0.4232
 8051TIP3    H145568   0.479   6.195  13.370 -0.1953 -2.0214 -0.4607
 8051TIP3    H245569   0.386   6.234  13.257  0.2589 -1.4001 -0.6273
 8052TIP3   OH245570   2.359   1.674   2.210 -0.8271  0.5100  0.1942
 8052TIP3    H145571   2.425   1.691   2.142 -0.0629 -1.4487  0.3967
 8052TIP3    H245572   2.390   1.722   2.286 -0.9715  1.6305 -0.4464
 8053TIP3   OH245573   5.690   0.848  12.977 -0.5209 -0.2624 -0.1131
 8053TIP3    H145574   5.689   0.933  13.022 -0.2971 -0.4247  0.1910
 8053TIP3    H245575   5.700   0.871  12.884 -0.0851  0.0258  0.0049
 8054TIP3   OH245576   2.312   1.456   0.834 -0.0801  0.7873 -0.5038
 8054TIP3    H145577   2.328   1.379   0.780 -0.5990  0.5919 -0.3763
 8054TIP3    H245578   2.259   1.513   0.780  1.0797  1.4664 -0.9481
 8055TIP3   OH245579   6.411   3.643  11.500  0.0630 -0.5112  0.2843
 8055TIP3    H145580   6.471   3.690  11.559 -0.9163 -1.4809  2.1024
 8055TIP3    H245581   6.335   3.623  11.555 -0.6684 -1.8801 -1.1951
 8056TIP3   OH245582   6.704   4.954  16.950  0.4466  0.2908 -0.2743
 8056TIP3    H145583   6.680   5.038  16.912 -0.5005  1.2195  2.2361
 8056TIP3    H245584   6.672   4.959  17.041  1.9621 -2.0724  0.4354
 8057TIP3   OH245585   1.428   6.226   5.485  0.0404  0.8500 -0.0368
 8057TIP3    H145586   1.365   6.204   5.416  0.1537 -1.1134  0.4589
 8057TIP3    H245587   1.377   6.227   5.565  0.5971 -0.7062  0.3599
 8058TIP3   OH245588   4.260   2.732  12.639  0.5652  0.0943  0.1732
 8058TIP3    H145589   4.197   2.666  12.611  1.2326 -0.3356 -0.3322
 8058TIP3    H245590   4.210   2.792  12.694 -0.4571  0.2124 -0.8912
 8059TIP3   OH245591   1.142   0.666   2.901  0.0397 -0.1646  0.4627
 8059TIP3    H145592   1.116   0.633   2.987 -0.4955 -1.7769 -0.3040
 8059TIP3    H245593   1.226   0.710   2.917  0.8069 -1.9385  1.5137
 8060TIP3   OH245594   1.632   5.027  13.990  0.3793  0.6521  0.1442
 8060TIP3    H145595   1.669   5.049  14.075 -1.1172  1.3738  0.6391
 8060TIP3    H245596   1.547   5.071  13.989 -0.6131 -1.1974 -0.8087
 8061TIP3   OH245597   6.645   5.724  13.523  0.4376 -0.5425 -0.1369
 8061TIP3    H145598   6.625   5.774  13.602  2.4988 -2.0723  1.4170
 8061TIP3    H245599   6.581   5.753  13.459 -0.7554  1.3348  1.8544
 8062TIP3   OH245600   5.545   5.414   2.661 -0.1821 -0.0740 -0.2184
 8062TIP3    H145601   5.450   5.403   2.656 -0.1110 -1.0521  0.3448
 8062TIP3    H245602   5.576   5.392   2.573 -0.3542 -1.2440  0.0029
 8063TIP3   OH245603   2.406   0.070  16.199 -0.0584 -0.5708 -0.5311
 8063TIP3    H145604   2.389   0.116  16.281  3.4736 -0.5194  0.2522
 8063TIP3    H245605   2.347   0.112  16.136 -0.7579  1.3713  1.3354
 8064TIP3   OH245606   5.333   6.197   6.000 -0.6052  0.3222  0.0983
 8064TIP3    H145607   5.290   6.111   6.005  0.5370 -0.2402  0.4339
 8064TIP3    H245608   5.316   6.238   6.085 -1.7503  0.7340 -0.3135
 8065TIP3   OH245609   5.798   1.639  13.409  0.2180 -0.0057  0.2413
 8065TIP3    H145610   5.809   1.709  13.474  0.9121 -2.5512  2.9996
 8065TIP3    H245611   5.871   1.650  13.349  1.2939  0.6201  1.6415
 8066TIP3   OH245612   1.880   5.781   3.931  0.2576 -0.2725  0.0230
 8066TIP3    H145613   1.851   5.828   3.853  2.0277 -2.0422 -1.7711
 8066TIP3    H245614   1.965   5.821   3.952  1.2881 -1.9235 -0.9053
 8067TIP3   OH245615   0.628   6.160   6.316 -0.4548  0.3299 -0.2913
 8067TIP3    H145616   0.702   6.218   6.333 -0.8002  0.4335  0.9136
 8067TIP3    H245617   0.666   6.085   6.271  0.1979  0.9106 -0.7059
 8068TIP3   OH245618   1.474   6.647   2.352 -0.8279 -0.3450  0.1438
 8068TIP3    H145619   1.555   6.676   2.392 -0.8440 -0.5511  0.3236
 8068TIP3    H245620   1.436   6.726   2.315 -0.0858 -0.3978 -0.7596
 8069TIP3   OH245621   1.727   5.013  14.665  0.3867  0.3302 -0.2553
 8069TIP3    H145622   1.721   5.038  14.573  0.7780 -1.1997 -0.7119
 8069TIP3    H245623   1.811   4.969  14.673 -0.0129 -0.2932  0.6434
 8070TIP3   OH245624   0.567   6.637   5.963 -0.4601  0.1465 -0.3800
 8070TIP3    H145625   0.563   6.717   6.015  2.7149  0.1408  0.0201
 8070TIP3    H245626   0.625   6.579   6.014 -1.3370 -1.7505 -1.4951
 8071TIP3   OH245627   4.526   4.299   5.121 -0.3365 -0.4623 -0.0080
 8071TIP3    H145628   4.616   4.333   5.121 -0.2247 -0.6842  2.1896
 8071TIP3    H245629   4.524   4.237   5.194 -2.9872  1.5394  1.7019
 8072TIP3   OH245630   6.417   6.786   1.611 -0.3700 -0.4420  0.2742
 8072TIP3    H145631   6.466   6.862   1.581 -0.1999 -1.0082 -0.8965
 8072TIP3    H245632   6.478   6.738   1.666  0.1514 -0.7472 -0.5652
 8073TIP3   OH245633   1.137   5.659  11.435 -0.3288  0.1192  0.4267
 8073TIP3    H145634   1.045   5.633  11.433 -0.0815 -0.7281 -0.7450
 8073TIP3    H245635   1.156   5.689  11.347  0.4249  0.6539  0.7598
 8074TIP3   OH245636   0.462   4.025   3.786  0.1360  0.4215  0.3268
 8074TIP3    H145637   0.403   4.016   3.861  0.5564  0.6560  0.6819
 8074TIP3    H245638   0.448   4.115   3.755  0.7037  0.6511  0.7394
 8075TIP3   OH245639   3.684   5.700   0.932  0.0886 -0.4102 -0.2786
 8075TIP3    H145640   3.594   5.702   0.964 -0.7376  0.5840 -2.5345
 8075TIP3    H245641   3.733   5.753   0.993 -1.1445  0.2400  0.1662
 8076TIP3   OH245642   3.452   4.548  16.548 -0.3532 -0.4425  0.0488
 8076TIP3    H145643   3.467   4.464  16.592  0.5393 -0.1964  0.2093
 8076TIP3    H245644   3.461   4.614  16.617 -0.9297 -0.2008 -0.1034
 8077TIP3   OH245645   1.564   5.524  15.262 -0.6078 -0.5183 -0.5280
 8077TIP3    H145646   1.650   5.486  15.246 -0.3833  0.2082 -1.0446
 8077TIP3    H245647   1.574   5.617  15.240 -1.6822 -0.5537 -1.1908
 8078TIP3   OH245648   5.094   2.502  14.186  0.1651 -0.1156  0.1500
 8078TIP3    H145649   5.116   2.539  14.271 -1.7125  1.1594  0.1185
 8078TIP3    H245650   5.004   2.471  14.196  0.0977 -0.4112 -1.2140
 8079TIP3   OH245651   0.269   0.104   4.704 -0.0459 -0.1730  0.4603
 8079TIP3    H145652   0.210   0.071   4.772  0.1944 -1.2981  0.1284
 8079TIP3    H245653   0.348   0.131   4.752 -0.9286  1.6178  0.9413
 8080TIP3   OH245654   6.628   4.882   5.543  0.1862 -0.1612  0.3786
 8080TIP3    H145655   6.575   4.951   5.505  0.7075 -0.4824 -0.9612
 8080TIP3    H245656   6.696   4.865   5.477  1.4990 -0.2702  1.7271
 8081TIP3   OH245657   0.996   3.706   4.176 -0.0195 -0.2904 -0.3250
 8081TIP3    H145658   0.914   3.674   4.215  1.5474 -1.4311  2.1841
 8081TIP3    H245659   1.020   3.638   4.112 -0.7872 -0.1807 -0.7364
 8082TIP3   OH245660   3.074   1.089  16.420  0.2096  0.5838 -0.4805
 8082TIP3    H145661   3.080   1.080  16.515  1.3842 -0.7186 -0.6504
 8082TIP3    H245662   2.987   1.124  16.404 -0.2379  0.1854  1.0401
 8083TIP3   OH245663   1.944   3.639  13.130 -0.4701 -0.0204 -0.6663
 8083TIP3    H145664   1.997   3.570  13.091  0.2986  0.6923 -0.8849
 8083TIP3    H245665   1.856   3.601  13.135  0.1664 -1.4481  0.2851
 8084TIP3   OH245666   2.043   3.393   0.438  0.7336  0.5389 -0.4992
 8084TIP3    H145667   2.031   3.404   0.532  1.4847  1.7442 -0.5296
 8084TIP3    H245668   2.064   3.481   0.406  0.9643  0.0564 -1.7189
 8085TIP3   OH245669   6.763   2.985   4.600  0.4935  0.0610 -0.3044
 8085TIP3    H145670   6.673   2.985   4.568 -0.2462 -0.0369  1.6928
 8085TIP3    H245671   6.792   2.894   4.589 -0.2611 -0.3063  0.6530
 8086TIP3   OH245672   4.596   1.147  11.801  0.1738 -0.1122  0.5426
 8086TIP3    H145673   4.568   1.224  11.850  0.6785 -1.1808  2.5601
 8086TIP3    H245674   4.691   1.156  11.793  0.1234 -0.0619 -0.0547
 8087TIP3   OH245675   4.327   3.460   1.409 -0.0462 -0.1531  0.6281
 8087TIP3    H145676   4.354   3.444   1.319  0.5593 -0.9265  0.9472
 8087TIP3    H245677   4.338   3.555   1.420  0.1368 -0.0934 -0.0225
 8088TIP3   OH245678   2.182   5.313   1.204  0.4963 -0.4083  0.0091
 8088TIP3    H145679   2.172   5.348   1.292 -1.4712  0.6862 -0.6064
 8088TIP3    H245680   2.156   5.221   1.211  2.4058 -0.9033  0.9628
 8089TIP3   OH245681   2.028   4.017   0.565 -0.6281 -0.1384  0.3832
 8089TIP3    H145682   2.096   4.001   0.500 -1.3450 -1.3258 -0.0787
 8089TIP3    H245683   2.063   3.979   0.646 -1.4953 -2.3895 -0.2648
 8090TIP3   OH245684   2.457   2.244  14.117  0.3450  0.2438  0.5485
 8090TIP3    H145685   2.474   2.207  14.031  1.4943 -1.2686  1.3964
 8090TIP3    H245686   2.495   2.332  14.113  0.4359  0.1607 -0.4782
 8091TIP3   OH245687   4.316   6.544  12.947 -0.5433  0.2716  0.1008
 8091TIP3    H145688   4.234   6.574  12.987 -0.9343 -2.7002  1.6823
 8091TIP3    H245689   4.289   6.500  12.867 -0.2878  0.9887 -0.3891
 8092TIP3   OH245690   3.740   1.857   1.577 -0.0174  0.0267  0.3617
 8092TIP3    H145691   3.740   1.906   1.495 -1.6353 -0.6166 -0.0365
 8092TIP3    H245692   3.665   1.891   1.626  0.3239 -0.3132  1.1303
 8093TIP3   OH245693   0.475   6.371  12.095  0.5287  0.1362 -0.3768
 8093TIP3    H145694   0.521   6.430  12.154  4.3125 -3.1939  0.1881
 8093TIP3    H245695   0.537   6.355  12.024 -0.0465 -3.6861 -0.1215
 8094TIP3   OH245696   3.150   1.039  15.232 -0.2378 -0.2176 -0.3894
 8094TIP3    H145697   3.221   0.985  15.197  0.3463 -0.8017  1.6284
 8094TIP3    H245698   3.194   1.118  15.264 -0.6999  0.0769 -0.4799
 8095TIP3   OH245699   1.036   0.736   3.290  0.4341  0.1126 -0.1240
 8095TIP3    H145700   1.097   0.678   3.245 -1.0638  0.7183 -3.0975
 8095TIP3    H245701   1.022   0.808   3.227  0.0824  2.2527  2.3147
 8096TIP3   OH245702   5.535   1.425   3.726 -0.8200 -0.7870 -0.4410
 8096TIP3    H145703   5.551   1.469   3.643  0.5283 -0.0857  0.1739
 8096TIP3    H245704   5.612   1.369   3.738 -0.2425  0.3215  1.1023
 8097TIP3   OH245705   5.911   2.849  13.941 -0.5656  0.2840 -0.5889
 8097TIP3    H145706   5.996   2.842  13.897 -0.2413 -4.1171  0.4190
 8097TIP3    H245707   5.933   2.849  14.035 -1.6507 -1.9951 -0.2989
 8098TIP3   OH245708   4.363   6.186  12.785 -0.3153 -0.2537  0.0657
 8098TIP3    H145709   4.449   6.220  12.761 -1.8063  2.1345 -2.2133
 8098TIP3    H245710   4.351   6.213  12.876  0.7594  0.6394 -0.0450
 8099TIP3   OH245711   0.253   2.307  15.466  0.0284 -0.4760 -0.7571
 8099TIP3    H145712   0.279   2.350  15.385 -1.1960 -0.8321 -1.3660
 8099TIP3    H245713   0.191   2.368  15.506  1.9525  0.5025  0.8179
 8100TIP3   OH245714   0.669   3.106   0.859  0.1777 -0.3285  0.4544
 8100TIP3    H145715   0.718   3.025   0.844  0.8076  0.5516 -2.3961
 8100TIP3    H245716   0.736   3.172   0.877 -0.2525 -0.0782  1.1876
 8101TIP3   OH245717   2.311   6.367   1.067 -0.0677  0.2740 -0.1115
 8101TIP3    H145718   2.336   6.326   0.984  1.2736  0.4774  0.1795
 8101TIP3    H245719   2.332   6.302   1.133 -0.0030  0.5734  0.1621
 8102TIP3   OH245720   0.179   6.127   5.875 -0.5830  0.0704 -0.2410
 8102TIP3    H145721   0.233   6.106   5.799 -0.2263 -2.2519  0.6075
 8102TIP3    H245722   0.159   6.042   5.915 -3.0986  1.0462  0.6873
 8103TIP3   OH245723   5.123   2.916   1.836  0.3537  0.8041  0.5635
 8103TIP3    H145724   5.031   2.940   1.848 -0.0298  0.5347 -1.6986
 8103TIP3    H245725   5.152   2.889   1.923 -1.6787  0.9465  1.3108
 8104TIP3   OH245726   3.750   3.791   0.460 -0.6182 -0.3193  0.1158
 8104TIP3    H145727   3.753   3.847   0.382  0.2776  0.3899  0.6559
 8104TIP3    H245728   3.679   3.729   0.442 -0.6702  0.0820 -1.1013
 8105TIP3   OH245729   6.413   1.788   2.624 -0.8662 -0.3048  0.3576
 8105TIP3    H145730   6.414   1.801   2.718 -1.3098 -0.7947  0.4346
 8105TIP3    H245731   6.441   1.872   2.587  0.5608 -0.5242  0.9542
 8106TIP3   OH245732   4.000   4.400  11.908  0.0878 -0.3240  0.0516
 8106TIP3    H145733   3.941   4.331  11.876  0.8003 -1.0428  0.2791
 8106TIP3    H245734   4.013   4.457  11.832 -1.4736  0.2598  0.1884
 8107TIP3   OH245735   0.373   2.829   1.091  0.3145  0.1628 -0.2087
 8107TIP3    H145736   0.287   2.866   1.070  0.6261  1.1806  0.2315
 8107TIP3    H245737   0.408   2.889   1.158  0.5961 -1.2886  0.9716
 8108TIP3   OH245738   4.669   5.650   4.433  0.3642  0.0449  0.5584
 8108TIP3    H145739   4.666   5.733   4.480 -0.7825  0.5367 -0.3402
 8108TIP3    H245740   4.761   5.624   4.434  0.6366  1.0132  1.3707
 8109TIP3   OH245741   6.061   0.938   1.509  0.5371 -0.2370 -0.0555
 8109TIP3    H145742   6.100   0.964   1.592  0.8232 -1.0138  0.0545
 8109TIP3    H245743   6.128   0.957   1.443  0.3635  0.2454 -0.0951
 8110TIP3   OH245744   6.268   6.024   3.794 -0.3356 -0.1056  0.1569
 8110TIP3    H145745   6.287   6.101   3.740  0.8441  0.4099  1.2810
 8110TIP3    H245746   6.261   5.952   3.731 -0.1267  0.6861 -0.7839
 8111TIP3   OH245747   3.015   1.274   5.242 -0.4236 -0.0613 -0.3994
 8111TIP3    H145748   3.107   1.249   5.248 -0.6226 -0.5785  0.6401
 8111TIP3    H245749   2.973   1.200   5.198  0.1665  1.5345 -3.8284
 8112TIP3   OH245750   6.264   2.117   5.866  0.1050 -0.3273 -0.0058
 8112TIP3    H145751   6.267   2.036   5.815  0.0190 -0.3117 -0.0348
 8112TIP3    H245752   6.352   2.152   5.860 -0.5233  0.9538 -2.1674
 8113TIP3   OH245753   4.614   4.764   0.297  0.2758 -0.1327 -0.6423
 8113TIP3    H145754   4.521   4.786   0.290 -0.2012 -1.8532  0.1417
 8113TIP3    H245755   4.659   4.844   0.268 -1.4303  0.2754 -2.2949
 8114TIP3   OH245756   2.900   5.730  12.767  0.0244  0.5800  0.0583
 8114TIP3    H145757   2.941   5.659  12.818 -0.7683  0.2041  0.1763
 8114TIP3    H245758   2.869   5.791  12.833  1.5580  1.5285 -0.0719
 8115TIP3   OH245759   5.884   4.600  12.173  0.3454 -0.6524 -0.1341
 8115TIP3    H145760   5.860   4.606  12.266  0.8340  1.5539 -0.1167
 8115TIP3    H245761   5.805   4.567  12.130 -0.3947 -0.2226  0.8684
 8116TIP3   OH245762   6.483   3.167   3.388 -0.7658 -0.2966  0.2076
 8116TIP3    H145763   6.539   3.145   3.313 -0.4366  0.0712  0.3418
 8116TIP3    H245764   6.410   3.217   3.350 -0.2341  0.4965  0.2182
 8117TIP3   OH245765   3.851   5.311  12.011 -0.6276 -0.3364  0.6076
 8117TIP3    H145766   3.818   5.222  11.998  1.6888 -1.1180 -0.4184
 8117TIP3    H245767   3.889   5.310  12.099 -0.1188 -0.5655  0.3936
 8118TIP3   OH245768   6.760   1.314   2.233  0.2203  0.1294  0.3939
 8118TIP3    H145769   6.777   1.387   2.175 -1.3666 -0.5592 -0.9822
 8118TIP3    H245770   6.801   1.239   2.191 -0.4157 -0.2596  0.4562
 8119TIP3   OH245771   1.996   2.141   0.149 -0.1392  0.5422  0.1664
 8119TIP3    H145772   2.021   2.134   0.057 -0.3447 -1.0531  0.2168
 8119TIP3    H245773   1.955   2.056   0.169  0.1411  0.7757  1.7910
 8120TIP3   OH245774   5.396   4.849   4.691  0.0627  0.4639  0.4320
 8120TIP3    H145775   5.442   4.845   4.775  0.2860  1.5870  0.3675
 8120TIP3    H245776   5.328   4.914   4.705  0.7584  1.4180 -0.5769
 8121TIP3   OH245777   5.431   2.220   2.678 -0.0131  0.1802  0.5244
 8121TIP3    H145778   5.366   2.241   2.610  0.7048  0.4569 -0.0823
 8121TIP3    H245779   5.413   2.284   2.748 -0.8781 -0.2274  0.6857
 8122TIP3   OH245780   6.673   0.185  14.168 -0.1361  0.8376  0.1036
 8122TIP3    H145781   6.582   0.184  14.141  0.7665  2.3154 -3.3124
 8122TIP3    H245782   6.697   0.092  14.178 -1.4835  0.3787 -0.8560
 8123TIP3   OH245783   4.781   4.196   5.865 -0.9214  0.1881  0.0582
 8123TIP3    H145784   4.735   4.145   5.931 -0.3304  0.9793  1.0922
 8123TIP3    H245785   4.872   4.198   5.896 -0.3990 -0.4733 -1.4041
 8124TIP3   OH245786   1.535   0.321   0.384  0.2803  0.1359 -0.2235
 8124TIP3    H145787   1.556   0.407   0.420  1.0382 -0.0843 -0.1274
 8124TIP3    H245788   1.511   0.339   0.293  0.1438  0.4765 -0.1245
 8125TIP3   OH245789   4.864   3.183   4.043  0.1036  0.3595 -0.0617
 8125TIP3    H145790   4.901   3.138   4.119  0.2244 -1.3764 -1.1195
 8125TIP3    H245791   4.777   3.211   4.072  0.8466  1.2875  1.2800
 8126TIP3   OH245792   2.499   5.684  16.637 -0.4652 -0.4639  0.4820
 8126TIP3    H145793   2.492   5.779  16.631 -0.5359 -0.4351  0.9658
 8126TIP3    H245794   2.546   5.669  16.719  0.0511 -0.8340  0.1222
 8127TIP3   OH245795   4.220   1.761  12.517 -0.0243  0.3674 -0.2726
 8127TIP3    H145796   4.217   1.735  12.609 -0.8291  1.7524  0.1009
 8127TIP3    H245797   4.312   1.780  12.501  0.2793 -0.8451 -0.0406
 8128TIP3   OH245798   0.782   2.296   0.046 -0.6549  0.3569  0.0681
 8128TIP3    H145799   0.793   2.223   0.107 -0.1326  0.0785 -0.3558
 8128TIP3    H245800   0.730   2.360   0.094 -2.6279 -1.0224 -0.1540
 8129TIP3   OH245801   4.472   5.182  14.637  0.0422 -0.1441  0.1785
 8129TIP3    H145802   4.506   5.101  14.675  1.1341 -0.8254 -2.1689
 8129TIP3    H245803   4.378   5.168  14.630  0.4376 -2.1065 -2.1166
 8130TIP3   OH245804   0.175   4.065   3.542  0.5745 -0.5128  0.5217
 8130TIP3    H145805   0.172   4.052   3.447  0.0446  0.9514  0.3250
 8130TIP3    H245806   0.096   4.023   3.575  0.4617 -0.5219  0.2395
 8131TIP3   OH245807   5.883   2.037   5.767 -0.4148 -0.5113  0.2176
 8131TIP3    H145808   5.878   2.108   5.831  1.1353  0.2806 -0.5108
 8131TIP3    H245809   5.868   1.958   5.819  1.2928  0.0854  1.6768
 8132TIP3   OH245810   5.186   0.916  14.171 -0.4107  0.6330  0.2358
 8132TIP3    H145811   5.214   0.898  14.261 -0.7723  0.4313  0.3128
 8132TIP3    H245812   5.267   0.921  14.121 -0.1470  1.9272  0.7846
 8133TIP3   OH245813   4.273   2.736  17.235 -0.4856  0.1029  0.8328
 8133TIP3    H145814   4.232   2.805  17.287  0.9488  0.8573  1.0160
 8133TIP3    H245815   4.275   2.660  17.293  2.2027  1.2793  2.3867
 8134TIP3   OH245816   3.860   0.982  14.818  0.3259  0.4569 -0.5115
 8134TIP3    H145817   3.855   0.912  14.753 -1.0522  0.3753 -0.3327
 8134TIP3    H245818   3.826   1.060  14.773 -1.3421  0.2260  0.3339
 8135TIP3   OH245819   2.998   3.934   2.006 -0.1854  0.3059 -0.0153
 8135TIP3    H145820   2.906   3.948   1.986  0.2832  0.7967 -1.8731
 8135TIP3    H245821   3.012   3.982   2.088 -2.2967 -2.3476  1.9794
 8136TIP3   OH245822   0.756   5.614  16.346  0.2846 -0.2099 -0.1252
 8136TIP3    H145823   0.749   5.534  16.294 -1.1957  0.8686 -1.6697
 8136TIP3    H245824   0.693   5.602  16.416  0.5817 -0.6956  0.0599
 8137TIP3   OH245825   3.345   3.262  15.103  0.2167  0.3907 -0.1449
 8137TIP3    H145826   3.339   3.302  15.016  0.3355 -0.3470 -0.4992
 8137TIP3    H245827   3.291   3.184  15.097 -0.5380  0.8347  0.7424
 8138TIP3   OH245828   1.944   1.517   5.278 -0.5750 -0.8280 -0.5105
 8138TIP3    H145829   1.979   1.536   5.365 -1.8156 -2.3075  0.3321
 8138TIP3    H245830   1.916   1.603   5.244  2.1986  0.1155 -0.5056
 8139TIP3   OH245831   0.735   0.799  15.192  0.0140  0.0468 -0.0528
 8139TIP3    H145832   0.754   0.706  15.186 -0.1709 -0.1341  1.8497
 8139TIP3    H245833   0.767   0.835  15.109  0.0137 -1.7047 -0.8400
 8140TIP3   OH245834   3.647   3.832   3.483 -0.1766 -0.2975  0.2117
 8140TIP3    H145835   3.594   3.753   3.470 -1.2136  0.4059  0.0837
 8140TIP3    H245836   3.641   3.878   3.399  2.5214 -1.3013 -0.5898
 8141TIP3   OH245837   3.399   2.172   5.823 -0.0214 -0.1168  0.2753
 8141TIP3    H145838   3.314   2.141   5.852  0.5456 -0.6081  1.4494
 8141TIP3    H245839   3.453   2.172   5.902  0.4179  2.4556  0.0335
 8142TIP3   OH245840   6.720   4.843   2.659 -0.1591  0.2743 -0.1905
 8142TIP3    H145841   6.733   4.915   2.722  0.8268 -1.4583  1.6453
 8142TIP3    H245842   6.806   4.802   2.652 -0.8940 -1.2118 -0.6175
 8143TIP3   OH245843   2.720   2.549  13.768  0.0030 -0.1962 -0.6699
 8143TIP3    H145844   2.742   2.642  13.771  0.1601 -0.2689  3.4580
 8143TIP3    H245845   2.645   2.541  13.828  0.8389 -2.9328  0.0644
 8144TIP3   OH245846   0.413   5.018  11.494 -0.1071 -0.1002  0.3576
 8144TIP3    H145847   0.332   5.069  11.496 -0.7159 -0.9281 -1.7938
 8144TIP3    H245848   0.411   4.972  11.410  1.8656 -1.3404  0.9408
 8145TIP3   OH245849   2.856   4.168  11.442 -1.0757 -0.3142 -0.1513
 8145TIP3    H145850   2.788   4.234  11.456 -0.3725  0.4132 -0.1441
 8145TIP3    H245851   2.885   4.182  11.352 -1.0649 -0.7425 -0.2130
 8146TIP3   OH245852   1.672   4.838   1.497 -0.0135  0.1703  0.0373
 8146TIP3    H145853   1.645   4.921   1.538 -1.6974 -0.1464 -0.3756
 8146TIP3    H245854   1.594   4.783   1.502  1.0434 -1.3352  0.1459
 8147TIP3   OH245855   0.640   1.285   3.185 -0.3683 -0.1494  0.5303
 8147TIP3    H145856   0.716   1.274   3.243  0.3294  0.3570 -0.2762
 8147TIP3    H245857   0.565   1.288   3.244  0.3069 -0.0093  1.3879
 8148TIP3   OH245858   1.281   4.719  15.030 -0.2963  0.2900  0.2869
 8148TIP3    H145859   1.347   4.651  15.042  0.8803  1.0089 -1.9349
 8148TIP3    H245860   1.309   4.767  14.952 -2.9594  1.1614 -0.1983
 8149TIP3   OH245861   1.872   4.578  12.216 -0.1706 -0.2894  0.7454
 8149TIP3    H145862   1.839   4.495  12.184  0.1110  0.0381 -0.3978
 8149TIP3    H245863   1.949   4.596  12.162 -1.2903  1.6195 -0.2574
 8150TIP3   OH245864   5.378   3.880  13.621  0.2398 -0.1044 -0.5158
 8150TIP3    H145865   5.397   3.921  13.706 -0.0792 -0.8190 -0.0971
 8150TIP3    H245866   5.287   3.852  13.628  0.2073 -0.1461 -1.1076
 8151TIP3   OH245867   4.111   6.729   2.350  0.9085 -0.4250 -0.4053
 8151TIP3    H145868   4.174   6.777   2.296 -1.6264  0.7683 -2.4712
 8151TIP3    H245869   4.147   6.641   2.358  3.0329  0.3644 -1.1533
 8152TIP3   OH245870   0.647   2.473  16.738 -0.1503  0.5848  0.2811
 8152TIP3    H145871   0.674   2.396  16.789 -1.3409  0.1931  0.3599
 8152TIP3    H245872   0.558   2.452  16.710 -0.6891  2.1527  0.7388
 8153TIP3   OH245873   1.719   5.101  11.942 -0.4181 -0.2771  0.6852
 8153TIP3    H145874   1.741   5.165  11.874  0.2912  2.4025  3.3022
 8153TIP3    H245875   1.760   5.020  11.913  1.2276  1.1896 -1.3012
 8154TIP3   OH245876   1.646   5.932  13.065 -0.2392 -0.0983  0.1386
 8154TIP3    H145877   1.670   5.841  13.082  1.1622  0.7059  2.5835
 8154TIP3    H245878   1.553   5.936  13.085  0.2565 -0.4058  2.6077
 8155TIP3   OH245879   6.706   0.787  14.623 -0.6303 -0.5340  0.3066
 8155TIP3    H145880   6.695   0.861  14.563 -3.4868 -1.1303  0.0343
 8155TIP3    H245881   6.705   0.826  14.710  0.8493  0.0374  0.0870
 8156TIP3   OH245882   0.904   4.187  13.946  0.2541  0.0654 -0.0300
 8156TIP3    H145883   0.982   4.199  14.000  1.1925 -3.1407 -0.6069
 8156TIP3    H245884   0.869   4.102  13.973 -0.0074 -0.9983 -3.5081
 8157TIP3   OH245885   5.773   5.427   3.748 -0.1635  0.5243 -0.5263
 8157TIP3    H145886   5.841   5.365   3.774  0.8027  1.3984 -0.9466
 8157TIP3    H245887   5.701   5.372   3.717  0.4070 -0.3969 -0.2258
 8158TIP3   OH245888   0.243   4.681  11.473  0.2406 -0.1015 -0.3092
 8158TIP3    H145889   0.190   4.656  11.549 -0.6889 -0.7785 -1.1681
 8158TIP3    H245890   0.226   4.774  11.462 -1.0837 -0.3978 -0.8121
 8159TIP3   OH245891   3.078   1.934   4.495 -0.5451 -0.1285 -0.3049
 8159TIP3    H145892   3.112   2.020   4.470  1.4176 -1.1594 -1.3869
 8159TIP3    H245893   3.040   1.899   4.414 -3.2584  0.5670  0.6447
 8160TIP3   OH245894   6.514   0.982   5.869 -0.5988  0.1140 -0.4131
 8160TIP3    H145895   6.509   0.975   5.773  0.1910  0.5636 -0.4930
 8160TIP3    H245896   6.585   1.043   5.884  1.7564 -2.7514  0.5472
 8161TIP3   OH245897   6.636   3.983  13.883 -0.1736  0.5435 -0.7151
 8161TIP3    H145898   6.686   4.055  13.921  1.8897 -2.5799  2.7515
 8161TIP3    H245899   6.556   3.980  13.936  1.0340 -1.4638  1.0497
 8162TIP3   OH245900   5.508   0.772  17.196  0.4568  0.4455  0.0109
 8162TIP3    H145901   5.424   0.816  17.210 -0.1080  0.0068 -1.8514
 8162TIP3    H245902   5.545   0.814  17.119  2.8706  1.9273  1.8915
 8163TIP3   OH245903   0.649   6.292  13.920  0.2552  0.3802  0.2998
 8163TIP3    H145904   0.713   6.235  13.963  0.2184  2.8534  3.8519
 8163TIP3    H245905   0.691   6.378  13.918 -1.9756  1.4982  0.4178
 8164TIP3   OH245906   2.991   3.665  10.944 -0.1940  0.1390 -0.4568
 8164TIP3    H145907   2.978   3.620  10.861  0.1382 -1.1129  0.1516
 8164TIP3    H245908   2.941   3.746  10.937  1.8885  1.2755 -2.8703
 8165TIP3   OH245909   5.385   4.904   0.351  0.2448  0.0370 -0.0648
 8165TIP3    H145910   5.443   4.828   0.348 -2.3113 -2.0326  0.8243
 8165TIP3    H245911   5.344   4.906   0.264 -2.4124 -1.8930  1.0725
 8166TIP3   OH245912   0.382   5.972   0.040 -0.1415 -0.8422 -0.0805
 8166TIP3    H145913   0.429   6.037  -0.013 -1.4401  0.9571  0.9177
 8166TIP3    H245914   0.382   5.893  -0.014  2.0697 -0.2284 -1.0329
 8167TIP3   OH245915   1.901   5.541  14.808  0.2392  0.4981 -0.0496
 8167TIP3    H145916   1.949   5.467  14.846 -1.6371 -1.3554 -1.1811
 8167TIP3    H245917   1.833   5.560  14.872  0.6567  1.2009  0.1895
 8168TIP3   OH245918   0.671   2.121  14.404  0.4728 -0.6291  0.1471
 8168TIP3    H145919   0.694   2.185  14.336  1.6947  0.3187  1.4232
 8168TIP3    H245920   0.750   2.067  14.414  0.2631 -0.8253  0.7393
 8169TIP3   OH245921   4.733   1.793   1.848  0.1370  0.2114  0.8023
 8169TIP3    H145922   4.665   1.726   1.855  1.5535 -1.1686  1.5497
 8169TIP3    H245923   4.777   1.774   1.766  0.1424  0.6099  0.7115
 8170TIP3   OH245924   1.125   2.146  14.057  0.2695 -0.0646  0.2833
 8170TIP3    H145925   1.108   2.072  13.999  0.3129 -0.3716  0.6592
 8170TIP3    H245926   1.180   2.110  14.127  1.0021  0.5144  0.0161
 8171TIP3   OH245927   1.873   1.890   2.037 -0.0589  0.2815 -0.7786
 8171TIP3    H145928   1.877   1.862   2.128 -0.0261 -1.1944 -1.2183
 8171TIP3    H245929   1.786   1.929   2.027  0.5031  1.8541  0.2618
 8172TIP3   OH245930   1.906   6.342   3.956  0.6342  0.1321  0.1511
 8172TIP3    H145931   1.936   6.432   3.963  0.5138  0.2504 -0.7560
 8172TIP3    H245932   1.984   6.289   3.974  0.1692  0.3688  3.1135
 8173TIP3   OH245933   4.321   2.334  16.060 -0.0628  0.0282  0.2132
 8173TIP3    H145934   4.337   2.429  16.052  0.0112 -0.1235 -1.5628
 8173TIP3    H245935   4.403   2.294  16.031 -0.0733 -0.5960  1.0263
 8174TIP3   OH245936   3.421   5.374   4.373 -0.0415 -0.1324 -0.3532
 8174TIP3    H145937   3.450   5.403   4.287  1.7774 -2.0545 -0.4496
 8174TIP3    H245938   3.345   5.319   4.356 -0.6921  0.8403 -0.5824
 8175TIP3   OH245939   0.008   2.634  16.006 -0.2438  0.6739  0.0744
 8175TIP3    H145940  -0.043   2.715  15.994  0.1120  0.9611  0.4692
 8175TIP3    H245941   0.095   2.655  15.971  0.0231  0.6610  0.7254
 8176TIP3   OH245942   1.636   1.383  12.168  0.1197 -0.6020 -0.2686
 8176TIP3    H145943   1.608   1.367  12.078 -0.2335  1.1826 -0.4911
 8176TIP3    H245944   1.728   1.409  12.160  0.0060 -0.1576 -0.1407
 8177TIP3   OH245945   4.695   2.413  14.510  0.4248 -0.1252 -0.4570
 8177TIP3    H145946   4.770   2.461  14.474 -0.2600 -0.2278 -2.0355
 8177TIP3    H245947   4.647   2.478  14.559  2.0674 -0.2672  1.4190
 8178TIP3   OH245948   4.546   5.865  13.612 -0.4364  0.0376 -1.0408
 8178TIP3    H145949   4.624   5.839  13.563 -0.6033 -1.0589 -0.7457
 8178TIP3    H245950   4.562   5.957  13.635  0.4535  0.0290 -1.5765
 8179TIP3   OH245951   1.887   4.318  16.443 -0.5400 -0.4664  0.5751
 8179TIP3    H145952   1.802   4.336  16.403  0.1322  2.1325  0.2109
 8179TIP3    H245953   1.945   4.300  16.370 -0.2294  0.1981  0.6576
 8180TIP3   OH245954   6.049   0.510  17.194  0.3104 -0.4568  0.3087
 8180TIP3    H145955   6.134   0.554  17.187  0.3267 -0.4105  0.8088
 8180TIP3    H245956   6.026   0.489  17.104  0.0766  1.0348 -0.0064
 8181TIP3   OH245957   3.474   1.308  13.820 -0.1416 -0.1206  0.1309
 8181TIP3    H145958   3.545   1.323  13.758 -0.6876  0.4346 -0.3660
 8181TIP3    H245959   3.472   1.388  13.873  1.6333 -1.3940  2.2048
 8182TIP3   OH245960   1.999   5.410   2.919 -0.3390 -0.4118 -0.3347
 8182TIP3    H145961   2.003   5.332   2.864 -0.7924  0.8819 -2.2426
 8182TIP3    H245962   2.073   5.464   2.890  0.3890 -0.4201  1.4402
 8183TIP3   OH245963   2.396   2.906   6.519  0.0466 -0.4153  0.0879
 8183TIP3    H145964   2.371   2.815   6.502 -1.4822 -0.1196  0.7092
 8183TIP3    H245965   2.320   2.957   6.494  1.1033  0.7639 -0.7898
 8184TIP3   OH245966   5.770   1.081   6.361  0.2734 -0.4916  0.2255
 8184TIP3    H145967   5.813   1.124   6.435  2.3504 -1.1873 -0.5488
 8184TIP3    H245968   5.735   1.153   6.308 -2.2606 -0.0207  2.4402
 8185TIP3   OH245969   3.437   2.357   0.743  0.3228 -0.2242 -0.0474
 8185TIP3    H145970   3.507   2.293   0.755  0.9229  0.4811  0.2809
 8185TIP3    H245971   3.394   2.330   0.661  2.0510  0.2911 -1.1640
 8186TIP3   OH245972   2.683   5.763  10.617 -0.4430  0.5754 -0.6372
 8186TIP3    H145973   2.682   5.824  10.690  0.2574 -0.4262  0.2253
 8186TIP3    H245974   2.592   5.736  10.606 -0.3340 -0.5370  0.9671
 8187TIP3   OH245975   3.414   1.801   4.468 -0.2894 -0.5372 -0.2751
 8187TIP3    H145976   3.440   1.809   4.376  0.9062  0.9631  0.1872
 8187TIP3    H245977   3.441   1.712   4.492 -1.1726 -1.1680 -1.5294
 8188TIP3   OH245978   3.628   2.027   5.977 -0.5428  0.0400 -0.3978
 8188TIP3    H145979   3.687   2.067   6.040  0.6918  0.7386 -1.9787
 8188TIP3    H245980   3.542   2.029   6.019  0.2304  0.6965  1.1567
 8189TIP3   OH245981   3.733   5.268  15.423  0.1818  0.3788  0.5404
 8189TIP3    H145982   3.758   5.175  15.423 -1.3757 -0.0763  2.1271
 8189TIP3    H245983   3.645   5.269  15.386  1.2816  1.6058 -2.1632
 8190TIP3   OH245984   6.407   5.157  14.036 -0.5586 -0.1658 -0.0764
 8190TIP3    H145985   6.485   5.210  14.051 -0.8655 -0.0648  1.1729
 8190TIP3    H245986   6.334   5.218  14.042 -0.7463 -0.2471 -1.3135
 8191TIP3   OH245987   3.826   1.568   0.358 -0.4297 -0.1014  0.3523
 8191TIP3    H145988   3.904   1.597   0.404  0.0717 -0.4873 -0.2536
 8191TIP3    H245989   3.849   1.572   0.265 -1.4491  0.7128  0.1258
 8192TIP3   OH245990   1.055   3.556  13.197 -0.1148  0.0762  0.5182
 8192TIP3    H145991   1.000   3.627  13.229  0.9644  1.4986 -0.6984
 8192TIP3    H245992   0.994   3.497  13.152 -0.5251  2.3749 -2.0889
 8193TIP3   OH245993   2.597   6.533   5.404 -0.1316  0.3113  0.1390
 8193TIP3    H145994   2.666   6.467   5.414 -0.1339  0.3315  0.2847
 8193TIP3    H245995   2.520   6.484   5.378 -0.0997  0.2716  0.1197
 8194TIP3   OH245996   1.327   6.681  10.853  0.5236 -0.2627  0.1738
 8194TIP3    H145997   1.299   6.767  10.821  2.6390 -0.0892 -1.3654
 8194TIP3    H245998   1.418   6.694  10.879  0.3845 -1.6821  1.4675
 8195TIP3   OH245999   6.333   1.461   2.127 -0.5969 -0.3273 -0.0719
 8195TIP3    H146000   6.245   1.452   2.165 -0.8937  0.2124 -0.6385
 8195TIP3    H246001   6.387   1.402   2.180 -1.1472 -0.1005  0.7638
 8196TIP3   OH246002   6.042   0.680  11.203  0.1598 -0.5189 -0.4524
 8196TIP3    H146003   5.987   0.611  11.240  0.1253 -0.9970 -1.3931
 8196TIP3    H246004   6.128   0.665  11.242 -0.1047 -0.4303  0.1750
 8197TIP3   OH246005   3.598   6.315  11.711  0.4390  0.0332 -0.4163
 8197TIP3    H146006   3.637   6.261  11.780 -0.0622  2.2959  1.6842
 8197TIP3    H246007   3.514   6.274  11.692 -0.6300  0.9267  2.2671
 8198TIP3   OH246008   1.540   5.408   2.372  0.7278  0.6014 -0.1114
 8198TIP3    H146009   1.579   5.344   2.433  0.1206  0.3813  0.0486
 8198TIP3    H246010   1.578   5.491   2.399  1.9255  0.2439 -0.6509
 8199TIP3   OH246011   3.033   4.528  11.181  0.2648  1.0856 -0.0607
 8199TIP3    H146012   2.957   4.532  11.124  0.3803  1.3401 -0.1985
 8199TIP3    H246013   3.030   4.609  11.232  0.9030  1.5021 -0.6640
 8200TIP3   OH246014   2.980   1.823   4.241  0.8734 -0.5307 -0.0573
 8200TIP3    H146015   3.027   1.740   4.244  0.0394 -1.1635 -2.6820
 8200TIP3    H246016   2.888   1.799   4.248  0.5933  0.1074 -1.3470
 8201TIP3   OH246017   2.056   0.867   1.719  0.2305  0.0494 -0.1084
 8201TIP3    H146018   2.023   0.778   1.737  1.6907 -0.9753 -2.2380
 8201TIP3    H246019   1.998   0.900   1.651 -0.1286  0.6137  0.4738
 8202TIP3   OH246020   1.649   1.402  17.116  0.1096 -0.7765 -0.4285
 8202TIP3    H146021   1.736   1.362  17.116 -0.4157 -1.9775 -2.7001
 8202TIP3    H246022   1.607   1.370  17.036 -1.5463  1.6988 -0.6116
 8203TIP3   OH246023   0.426   4.424  13.349 -0.0245  0.4933 -0.4441
 8203TIP3    H146024   0.489   4.484  13.388  0.4063  0.4876 -1.1142
 8203TIP3    H246025   0.422   4.451  13.257 -1.7971  1.1835 -0.1944
 8204TIP3   OH246026   6.132   1.804  17.230 -0.6087 -0.5131  0.2931
 8204TIP3    H146027   6.226   1.788  17.223 -0.7022 -2.3599  2.8168
 8204TIP3    H246028   6.093   1.736  17.175 -0.5425 -1.2424  1.1403
 8205TIP3   OH246029   3.153   1.303   2.134 -0.2570  0.5237 -0.1847
 8205TIP3    H146030   3.187   1.268   2.052  0.9476  2.3501 -0.4923
 8205TIP3    H246031   3.219   1.280   2.200 -0.7215 -0.0231  0.1016
 8206TIP3   OH246032   2.776   2.889   2.472 -0.2508 -0.1278  0.1028
 8206TIP3    H146033   2.854   2.937   2.446 -0.6127  1.3517  1.6988
 8206TIP3    H246034   2.726   2.877   2.391  0.6833  0.6372 -0.5879
 8207TIP3   OH246035   0.095   0.587  16.746  0.6583 -0.0785 -0.2039
 8207TIP3    H146036   0.006   0.589  16.783  0.1119  1.6621 -1.5400
 8207TIP3    H246037   0.150   0.555  16.817 -1.0667 -1.3796  0.5792
 8208TIP3   OH246038   2.509   5.149   1.930  0.0622  1.0181  0.3519
 8208TIP3    H146039   2.493   5.102   2.012  3.1864 -0.3705  0.2560
 8208TIP3    H246040   2.549   5.231   1.957 -2.1703  2.1416  0.3442
 8209TIP3   OH246041   4.242   6.493   5.277 -0.6569 -0.6311 -0.2205
 8209TIP3    H146042   4.282   6.522   5.359 -1.1218  2.1239 -0.8983
 8209TIP3    H246043   4.162   6.448   5.304 -0.4974 -0.2699  0.8689
 8210TIP3   OH246044   0.922   5.762   5.150 -0.2624 -0.5276  0.5126
 8210TIP3    H146045   0.957   5.840   5.107 -2.9431 -0.1428 -1.0825
 8210TIP3    H246046   0.923   5.695   5.081 -0.9696 -0.9855  0.9432
 8211TIP3   OH246047   1.940   0.787  13.650 -0.4639  0.8318 -0.3321
 8211TIP3    H146048   2.005   0.857  13.638  2.4131 -0.9796  3.5530
 8211TIP3    H246049   1.943   0.737  13.569  0.4895  2.7810 -1.5320
 8212TIP3   OH246050   2.551   2.416   0.077 -0.7433  0.5396 -0.7882
 8212TIP3    H146051   2.493   2.468   0.133 -0.9621  1.0310 -1.4581
 8212TIP3    H246052   2.545   2.327   0.111 -2.1371  0.5232 -1.0395
 8213TIP3   OH246053   4.289   4.430   0.483  0.2950 -0.2436  0.0705
 8213TIP3    H146054   4.260   4.351   0.438  2.7451 -1.7339  0.9953
 8213TIP3    H246055   4.370   4.454   0.439  0.3624  0.8863  0.7820
 8214TIP3   OH246056   3.624   1.954  16.465  0.1554 -0.4469  0.1294
 8214TIP3    H146057   3.659   1.941  16.553  0.7572  1.4500  0.1953
 8214TIP3    H246058   3.566   1.879  16.451  2.3176 -2.3115  0.9731
 8215TIP3   OH246059   3.722   3.340   1.495 -0.0421  0.5077 -0.3157
 8215TIP3    H146060   3.665   3.325   1.420  0.6148  3.1942 -1.4209
 8215TIP3    H246061   3.705   3.431   1.520  0.9991  0.1814  1.7446
 8216TIP3   OH246062   1.896   6.147   0.703 -0.6556 -0.0151 -0.3771
 8216TIP3    H146063   1.811   6.191   0.702 -0.3234  0.6613  0.5149
 8216TIP3    H246064   1.904   6.111   0.792  0.7821  1.5008  0.1275
 8217TIP3   OH246065   0.581   5.538   0.855  0.1216  0.7376  0.0013
 8217TIP3    H146066   0.514   5.544   0.924  0.8281 -0.3600  0.8018
 8217TIP3    H246067   0.600   5.629   0.832  0.1390  1.1395  1.5435
 8218TIP3   OH246068   2.412   2.960  15.430 -0.4575  0.0263 -0.9820
 8218TIP3    H146069   2.348   3.013  15.383 -1.0820 -0.0304 -0.2142
 8218TIP3    H246070   2.433   2.889  15.370  0.7889  1.4362 -2.2246
 8219TIP3   OH246071   3.785   2.648  13.862 -0.1081 -0.0097 -0.1177
 8219TIP3    H146072   3.790   2.572  13.920 -0.8524 -0.3713 -0.5271
 8219TIP3    H246073   3.693   2.676  13.868 -0.3358 -0.4170 -1.5939
 8220TIP3   OH246074   5.444   2.026   5.079  0.2917  0.1684 -0.2667
 8220TIP3    H146075   5.483   1.977   5.151 -1.7635  1.4853  1.8202
 8220TIP3    H246076   5.477   1.983   5.000  1.4614 -2.2242  1.4560
 8221TIP3   OH246077   5.607   4.729   0.317 -0.4357  0.1295  0.3404
 8221TIP3    H146078   5.605   4.657   0.381 -2.4437  1.1983  1.5024
 8221TIP3    H246079   5.678   4.786   0.347  1.7438 -1.7374 -1.0597
 8222TIP3   OH246080   5.013   6.096   1.190  0.7794 -0.2349 -0.4877
 8222TIP3    H146081   5.044   6.102   1.280  1.5156 -0.3612 -0.7229
 8222TIP3    H246082   4.976   6.008   1.183 -2.0642  0.8436  0.5301
 8223TIP3   OH246083   6.342   4.619  12.544  0.0199  0.3481 -0.8396
 8223TIP3    H146084   6.278   4.580  12.485 -1.1710  1.3112 -0.2172
 8223TIP3    H246085   6.408   4.657  12.486  0.0180 -0.6290 -1.4876
 8224TIP3   OH246086   0.192   0.545   4.986 -0.1734  0.3840 -0.3346
 8224TIP3    H146087   0.199   0.639   5.001 -2.0324  0.5213 -0.2002
 8224TIP3    H246088   0.243   0.506   5.058 -0.1147  1.2621  0.1081
 8225TIP3   OH246089   5.320   4.860   5.270 -0.2462 -0.7073 -0.4074
 8225TIP3    H146090   5.339   4.842   5.362 -1.4110 -2.4687 -0.4795
 8225TIP3    H246091   5.249   4.924   5.273 -0.9349 -1.4722 -0.0499
 8226TIP3   OH246092   2.936   1.010  11.921  0.1620 -0.5482  0.6653
 8226TIP3    H146093   2.964   1.002  11.830  0.0018 -0.6509  0.6243
 8226TIP3    H246094   2.881   0.933  11.936  0.4141 -0.6754  0.9337
 8227TIP3   OH246095   0.127   3.431   3.565 -0.0710 -0.1169  0.0281
 8227TIP3    H146096   0.201   3.413   3.507  0.6617  0.4855  0.7643
 8227TIP3    H246097   0.092   3.514   3.533 -0.0305 -0.0785  0.0836
 8228TIP3   OH246098   0.685   0.182  15.552 -0.9416 -1.3755  0.3903
 8228TIP3    H146099   0.718   0.219  15.634 -0.0740 -1.7947  0.2382
 8228TIP3    H246100   0.625   0.248  15.518 -0.6076 -0.8014  0.9060
 8229TIP3   OH246101   1.846   3.366   0.918 -0.1632 -0.2108  0.0400
 8229TIP3    H146102   1.829   3.439   0.977  2.2271  0.1203  0.3901
 8229TIP3    H246103   1.782   3.299   0.943 -1.4180  1.2107  0.6876
 8230TIP3   OH246104   2.418   0.896  15.254  0.0747 -0.0153 -0.0598
 8230TIP3    H146105   2.486   0.928  15.194  0.4888  0.3204  0.5904
 8230TIP3    H246106   2.454   0.816  15.292 -0.4924 -0.6398 -0.8127
 8231TIP3   OH246107   4.157   2.847  12.015 -0.2164  0.2620  0.2614
 8231TIP3    H146108   4.144   2.824  12.107  0.3527  1.3967  0.6331
 8231TIP3    H246109   4.101   2.923  12.001 -0.7107 -0.2394 -0.4712
 8232TIP3   OH246110   5.381   4.478   1.726  0.2923 -0.6347  0.0041
 8232TIP3    H146111   5.411   4.524   1.648 -1.6638 -2.0627 -1.6529
 8232TIP3    H246112   5.458   4.431   1.758  1.4207  0.9749 -0.3145
 8233TIP3   OH246113   5.653   0.290   3.904 -0.4897 -0.0026  0.1671
 8233TIP3    H146114   5.724   0.340   3.865 -1.1637 -0.3150 -1.4938
 8233TIP3    H246115   5.673   0.288   3.998  0.9554  1.0623 -0.1154
 8234TIP3   OH246116   0.554   1.044  14.228  0.4938 -0.3122 -0.0993
 8234TIP3    H146117   0.634   1.067  14.274  2.5217 -0.6169 -3.2825
 8234TIP3    H246118   0.561   0.949  14.214 -0.1123 -0.2408 -0.9436
 8235TIP3   OH246119   5.845   0.247   2.572  0.1322 -0.1560 -0.1793
 8235TIP3    H146120   5.829   0.153   2.576 -2.7588  0.1714 -2.1272
 8235TIP3    H246121   5.880   0.263   2.484  0.2514  0.6176 -0.0013
 8236TIP3   OH246122   2.352   0.106   5.493  0.9030 -0.5224 -0.1998
 8236TIP3    H146123   2.426   0.057   5.457  0.3312 -1.8910  0.4755
 8236TIP3    H246124   2.306   0.044   5.548 -2.1268 -0.4178 -2.4509
 8237TIP3   OH246125   5.758   2.117   5.119 -0.4426 -0.5110 -0.2631
 8237TIP3    H146126   5.733   2.198   5.075  2.4653  1.1574  1.0417
 8237TIP3    H246127   5.689   2.102   5.183 -0.2008  1.7822  0.5415
 8238TIP3   OH246128   3.064   2.789   0.929 -0.2040  0.0101 -0.2272
 8238TIP3    H146129   3.033   2.708   0.887  1.1362 -0.5468 -0.1739
 8238TIP3    H246130   3.003   2.856   0.899 -1.3345 -1.0235 -0.2803
 8239TIP3   OH246131   2.357   4.534  12.718 -0.4171  0.5091  1.3757
 8239TIP3    H146132   2.307   4.548  12.798  0.7319  1.2364  1.9918
 8239TIP3    H246133   2.303   4.573  12.649 -0.9005  0.8891  1.9595
 8240TIP3   OH246134   0.511   2.075  10.376  0.1549  0.2297  0.2442
 8240TIP3    H146135   0.548   2.143  10.320  0.8347  0.2408  0.6919
 8240TIP3    H246136   0.585   2.045  10.429 -0.0453 -1.1704 -0.2510
 8241TIP3   OH246137   0.424   1.155   6.023 -0.4220  0.1511 -0.3611
 8241TIP3    H146138   0.452   1.240   6.056  0.7025 -0.1837 -0.3974
 8241TIP3    H246139   0.435   1.161   5.928  1.7364 -0.7084 -0.2153
 8242TIP3   OH246140   6.387   0.350  15.212 -0.2024 -0.6590  0.3157
 8242TIP3    H146141   6.317   0.321  15.154 -0.5026  0.3993  0.1407
 8242TIP3    H246142   6.467   0.324  15.168 -0.4486 -0.6148 -0.1596
 8243TIP3   OH246143   2.080   4.425  11.457  0.5138  0.1332 -0.6066
 8243TIP3    H146144   2.176   4.413  11.456  0.3624 -1.4332  1.2125
 8243TIP3    H246145   2.049   4.366  11.525 -1.4117  3.5520  1.6022
 8244TIP3   OH246146   2.129   3.707   2.363  0.3676 -0.1894  0.1842
 8244TIP3    H146147   2.169   3.698   2.276 -1.0967 -0.8800 -0.4308
 8244TIP3    H246148   2.159   3.630   2.411 -0.2211 -0.7197 -0.2850
 8245TIP3   OH246149   6.690   5.575  10.858 -0.1201  0.4891 -0.3791
 8245TIP3    H146150   6.682   5.521  10.780  1.2658  0.3984 -0.4847
 8245TIP3    H246151   6.721   5.660  10.826 -2.1815  1.3322 -0.2014
 8246TIP3   OH246152   1.458   4.265  14.441  0.2840 -0.2441 -0.1781
 8246TIP3    H146153   1.374   4.312  14.446 -0.6115 -1.7919 -0.3186
 8246TIP3    H246154   1.486   4.277  14.351 -0.1000 -0.2425 -0.3005
 8247TIP3   OH246155   0.846   6.776   0.910 -0.1278 -0.1431 -0.6117
 8247TIP3    H146156   0.877   6.803   0.996 -2.5822 -0.6015  0.4684
 8247TIP3    H246157   0.914   6.716   0.878 -0.1185 -1.5826  1.9026
 8248TIP3   OH246158   5.935   3.155   3.360  0.0940  0.3112 -0.5192
 8248TIP3    H146159   5.857   3.137   3.307  0.9443 -2.3888 -0.9295
 8248TIP3    H246160   5.907   3.223   3.421 -2.5397 -0.4749 -0.7853
 8249TIP3   OH246161   4.319   0.398  14.803  0.3321 -0.2833  0.1265
 8249TIP3    H146162   4.308   0.340  14.728  0.3075  1.3254 -1.1530
 8249TIP3    H246163   4.232   0.403  14.843  0.1131 -0.3700 -0.3390
 8250TIP3   OH246164   0.187   6.579   4.724 -0.5299 -0.8378 -0.2883
 8250TIP3    H146165   0.241   6.574   4.646  1.1225  0.7826  0.7224
 8250TIP3    H246166   0.103   6.612   4.693  0.5393  1.1200 -1.1951
 8251TIP3   OH246167   5.452   4.016  13.188  0.3522  0.2233  0.0611
 8251TIP3    H146168   5.503   4.004  13.269 -0.7384 -0.8891  0.5978
 8251TIP3    H246169   5.361   4.010  13.216 -0.0316 -1.0298 -1.3858
 8252TIP3   OH246170   2.387   0.331   1.932 -0.0020  0.9176  0.0993
 8252TIP3    H146171   2.392   0.259   1.995 -1.4912  0.9245  0.2563
 8252TIP3    H246172   2.320   0.302   1.869  1.6574  0.7891 -1.6518
 8253TIP3   OH246173   0.771   0.849   4.221 -0.5825  0.3050  0.3415
 8253TIP3    H146174   0.785   0.772   4.275  0.9092  0.4996  0.2414
 8253TIP3    H246175   0.851   0.900   4.230 -2.3185  2.8679  2.0376
 8254TIP3   OH246176   6.715   0.763  12.679  0.6281 -0.0414  0.1119
 8254TIP3    H146177   6.777   0.788  12.611 -0.4833 -0.4958 -1.1116
 8254TIP3    H246178   6.676   0.845  12.708 -0.1791  0.0142 -1.0910
 8255TIP3   OH246179   6.568   0.133  13.682 -0.3609  0.4256  0.5455
 8255TIP3    H146180   6.641   0.184  13.646 -0.4471  0.7951  0.8905
 8255TIP3    H246181   6.503   0.133  13.612  0.9045 -1.9502 -0.7199
 8256TIP3   OH246182   5.317   3.365  17.054 -0.4253 -0.1927 -0.9912
 8256TIP3    H146183   5.277   3.366  17.140  0.1360  1.0574 -0.7271
 8256TIP3    H246184   5.318   3.273  17.028  0.5694 -0.7338  0.8907
 8257TIP3   OH246185   3.515   2.537   4.137  0.5803 -0.1168  0.3175
 8257TIP3    H146186   3.517   2.473   4.209 -1.4807 -1.9022 -1.1235
 8257TIP3    H246187   3.429   2.525   4.098  2.0436  0.0979 -3.1093
 8258TIP3   OH246188   6.356   0.367  17.042 -0.0265 -0.0726  0.7288
 8258TIP3    H146189   6.346   0.273  17.030  1.6312 -0.3229  1.2039
 8258TIP3    H246190   6.366   0.401  16.953  2.4607 -0.7504  0.6983
 8259TIP3   OH246191   4.419   2.590  12.236 -0.1308 -0.3504 -0.0150
 8259TIP3    H146192   4.326   2.610  12.229  0.0002  0.2479 -0.1293
 8259TIP3    H246193   4.450   2.643  12.310  0.2371 -0.0696 -0.3618
 8260TIP3   OH246194   3.288   5.322   5.528  0.3998  0.3925  0.0611
 8260TIP3    H146195   3.328   5.288   5.608 -1.6084  0.4774  1.1513
 8260TIP3    H246196   3.360   5.363   5.480  1.6079  0.4974  1.9056
 8261TIP3   OH246197   0.429   1.192   3.985  0.0671  0.6530 -0.2976
 8261TIP3    H146198   0.503   1.173   4.042 -0.8015  1.7091  1.2132
 8261TIP3    H246199   0.359   1.136   4.018 -0.0461  0.2537 -1.2050
 8262TIP3   OH246200   1.603   0.288   2.227 -0.3517  0.3725  0.4746
 8262TIP3    H146201   1.582   0.358   2.165 -0.0609 -2.2347 -2.6996
 8262TIP3    H246202   1.698   0.292   2.237 -0.3955  0.7778  0.7425
 8263TIP3   OH246203   3.754   6.722  13.742 -0.2893  0.2707 -0.6902
 8263TIP3    H146204   3.777   6.739  13.650  1.0585  1.0900 -0.2134
 8263TIP3    H246205   3.756   6.627  13.750 -1.0500  0.1629 -1.6716
 8264TIP3   OH246206   4.647   5.637   3.732  0.5135  0.1584  0.3265
 8264TIP3    H146207   4.670   5.554   3.773 -0.1473  0.4982  1.3863
 8264TIP3    H246208   4.568   5.618   3.682 -0.9429  0.6659  2.3831
 8265TIP3   OH246209   6.629   0.321  15.077 -0.6521 -0.0198 -0.0645
 8265TIP3    H146210   6.677   0.354  15.001 -0.6207 -0.7958 -0.3854
 8265TIP3    H246211   6.694   0.319  15.147 -0.3143 -0.6885 -0.3950
 8266TIP3   OH246212   4.241   3.499   0.566 -0.0700 -0.3244 -0.3407
 8266TIP3    H146213   4.329   3.475   0.594 -0.4104 -1.0432  0.1105
 8266TIP3    H246214   4.209   3.558   0.635  0.1862  0.2248 -0.6836
 8267TIP3   OH246215   5.902   6.556  11.051  0.0349 -0.0752  1.2478
 8267TIP3    H146216   5.891   6.490  10.983  0.8211 -0.3257  1.3513
 8267TIP3    H246217   5.866   6.636  11.014  0.7465 -0.1402  0.4138
 8268TIP3   OH246218   5.874   1.819  15.348  0.5411  0.3330  0.2986
 8268TIP3    H146219   5.933   1.871  15.293 -1.8238  1.7045 -1.0675
 8268TIP3    H246220   5.872   1.733  15.306 -1.9225  1.6119 -2.4501
 8269TIP3   OH246221   4.220   6.601  11.811  0.3240  0.2296  0.3573
 8269TIP3    H146222   4.238   6.596  11.905  0.4662 -0.1013  0.3139
 8269TIP3    H246223   4.302   6.630  11.773  0.2930  0.2766  0.3268
 8270TIP3   OH246224   4.474   2.614  11.728  0.5957  0.7841  0.1618
 8270TIP3    H146225   4.523   2.662  11.795  0.7907 -0.0095  0.5911
 8270TIP3    H246226   4.485   2.522  11.751  1.3772  0.4518 -1.4541
 8271TIP3   OH246227   1.529   2.869  15.136  0.0980 -0.0918 -0.1544
 8271TIP3    H146228   1.562   2.957  15.151  0.3160 -0.2685  0.4483
 8271TIP3    H246229   1.542   2.824  15.220  0.5379 -0.8678 -0.6210
 8272TIP3   OH246230   3.255   2.662  11.834  0.0762 -0.5181  0.0708
 8272TIP3    H146231   3.174   2.694  11.795  1.5181  1.7547 -1.1460
 8272TIP3    H246232   3.274   2.581  11.788  0.3797  0.8089 -2.2041
 8273TIP3   OH246233   4.404   0.902   0.853 -0.1104  0.2675  0.1922
 8273TIP3    H146234   4.437   0.816   0.830  0.7911  0.4523  0.7806
 8273TIP3    H246235   4.379   0.895   0.945  2.8685  1.4702  1.1573
 8274TIP3   OH246236   4.573   4.728   1.380  0.0732 -0.2505 -0.5237
 8274TIP3    H146237   4.528   4.733   1.296 -0.2157  0.0224 -0.3511
 8274TIP3    H246238   4.660   4.764   1.363 -0.8701  2.3107 -0.0776
 8275TIP3   OH246239   5.597   6.608   5.179  0.1946 -0.3071 -0.0667
 8275TIP3    H146240   5.683   6.633   5.213  0.2742 -0.9423  0.2250
 8275TIP3    H246241   5.546   6.590   5.258 -0.1890  0.0211 -0.2430
 8276TIP3   OH246242   5.967   0.209   3.433 -1.1023 -0.3501 -0.5579
 8276TIP3    H146243   6.046   0.261   3.419 -0.1929 -2.0509 -1.8584
 8276TIP3    H246244   5.937   0.234   3.521  1.3567 -0.3396  0.3113
 8277TIP3   OH246245   3.927   3.510  15.641 -0.0936 -0.2621 -0.5067
 8277TIP3    H146246   3.936   3.598  15.604  1.3685 -0.0845  0.2467
 8277TIP3    H246247   3.995   3.458  15.597  1.6883 -0.0481  1.8935
 8278TIP3   OH246248   3.358   4.729  11.586  0.6549 -0.2917  0.5922
 8278TIP3    H146249   3.368   4.635  11.599  0.0698 -0.2701  1.2302
 8278TIP3    H246250   3.273   4.739  11.542  0.9697 -0.0992  0.0181
 8279TIP3   OH246251   0.707   5.630   4.165  0.1911 -0.0722  0.5468
 8279TIP3    H146252   0.718   5.536   4.155 -1.3704 -0.1055 -1.1645
 8279TIP3    H246253   0.772   5.669   4.106  0.8164 -0.0768  1.2314
 8280TIP3   OH246254   1.218   3.431  13.475  0.3348  0.1051 -0.1309
 8280TIP3    H146255   1.236   3.521  13.448  0.8549 -0.4106 -1.5237
 8280TIP3    H246256   1.123   3.429  13.486  0.3798  0.9733  0.4413
 8281TIP3   OH246257   4.551   6.730   4.881  0.5564  0.1387 -0.2976
 8281TIP3    H146258   4.565   6.679   4.802  0.2819  0.8209 -0.7875
 8281TIP3    H246259   4.618   6.699   4.942 -0.7064 -2.0628  0.0273
 8282TIP3   OH246260   4.132   1.475   0.636 -0.2677 -0.5556  0.0955
 8282TIP3    H146261   4.136   1.525   0.555  1.4775  0.8571  1.0102
 8282TIP3    H246262   4.162   1.387   0.612 -0.3074 -0.2992 -0.9019
 8283TIP3   OH246263   3.809   4.429   0.882 -0.0934 -0.0569  0.0549
 8283TIP3    H146264   3.752   4.387   0.947 -2.6216 -0.4499 -2.3328
 8283TIP3    H246265   3.822   4.362   0.815  1.1348  0.8909 -0.6765
 8284TIP3   OH246266   3.927   5.901   5.236 -0.7383 -0.4052 -0.4257
 8284TIP3    H146267   3.893   5.985   5.267 -0.0050 -0.1229 -0.3691
 8284TIP3    H246268   3.857   5.866   5.181 -1.2122  0.0585 -0.1279
 8285TIP3   OH246269   6.416   0.339  11.759 -0.0557  0.0438 -0.2420
 8285TIP3    H146270   6.473   0.262  11.758 -1.9883 -1.4190 -0.1103
 8285TIP3    H246271   6.368   0.334  11.677 -1.4352  0.1420  0.5415
 8286TIP3   OH246272   3.774   2.538   3.776 -0.2544 -0.4850 -0.1520
 8286TIP3    H146273   3.758   2.514   3.867  0.8847  0.8747  0.4196
 8286TIP3    H246274   3.869   2.537   3.767 -0.2084  2.2308 -0.5240
 8287TIP3   OH246275   5.997   4.861   2.376  0.1384  0.2740  0.3475
 8287TIP3    H146276   5.934   4.924   2.340  0.1128 -0.4373 -0.8886
 8287TIP3    H246277   6.036   4.906   2.451 -0.6108  1.3745  0.0928
 8288TIP3   OH246278   2.884   4.645  12.912 -0.7472  0.2409 -0.3595
 8288TIP3    H146279   2.883   4.700  12.990 -1.6158 -2.4734  1.5790
 8288TIP3    H246280   2.804   4.669  12.865 -2.4858 -1.1818  1.8020
 8289TIP3   OH246281   4.430   6.464   3.657 -0.5260  0.1775 -0.4760
 8289TIP3    H146282   4.337   6.440   3.660  0.1363 -2.3444  1.8050
 8289TIP3    H246283   4.463   6.419   3.579 -0.3334 -2.5336  1.1202
 8290TIP3   OH246284   6.672   1.801   5.877  0.0783 -0.6133 -0.2573
 8290TIP3    H146285   6.693   1.735   5.811 -0.1815 -2.0656  1.0814
 8290TIP3    H246286   6.687   1.757   5.960  1.5247  1.5421  0.6796
 8291TIP3   OH246287   2.097   3.679  16.004  0.3204 -0.7802 -0.1921
 8291TIP3    H146288   2.164   3.621  16.039  0.4184 -0.1549  0.6831
 8291TIP3    H246289   2.018   3.626  16.000  0.8146 -1.4530 -0.9978
 8292TIP3   OH246290   4.832   3.637  12.819 -0.3677  0.6133 -0.6540
 8292TIP3    H146291   4.872   3.585  12.749  1.1107  1.0939 -0.1892
 8292TIP3    H246292   4.743   3.654  12.788  0.0323  0.2185 -2.0940
 8293TIP3   OH246293   6.199   0.367  13.824 -0.5292  0.0878  0.0430
 8293TIP3    H146294   6.154   0.412  13.896 -1.3723 -0.7196  0.0245
 8293TIP3    H246295   6.240   0.290  13.866  0.5822  0.6387  0.0033
 8294TIP3   OH246296   4.032   4.579  11.694 -0.2675  0.2378 -0.2824
 8294TIP3    H146297   3.949   4.538  11.668 -0.1190  1.1882 -2.3378
 8294TIP3    H246298   4.050   4.643  11.625  1.5609  0.9105  0.7844
 8295TIP3   OH246299   2.791   2.232  11.333 -0.6201  0.1477 -0.6500
 8295TIP3    H146300   2.855   2.166  11.360 -0.1543  1.2881  1.1176
 8295TIP3    H246301   2.710   2.205  11.376 -0.1327  1.3785  1.0910
 8296TIP3   OH246302   4.016   4.003   5.872 -0.8552 -0.0706 -0.0627
 8296TIP3    H146303   3.951   4.009   5.943 -1.0478  0.9065 -0.3137
 8296TIP3    H246304   4.043   3.912   5.873 -0.9560 -0.1086  1.1957
 8297TIP3   OH246305   5.790   3.191   2.121  0.2495 -0.2349  0.3015
 8297TIP3    H146306   5.787   3.117   2.182  0.4034 -1.2925 -0.9603
 8297TIP3    H246307   5.883   3.200   2.098  0.2951  0.6457  0.7896
 8298TIP3   OH246308   5.250   5.607   4.365 -0.4301 -0.1835 -0.2265
 8298TIP3    H146309   5.253   5.592   4.460 -0.8927  1.1665  0.0147
 8298TIP3    H246310   5.272   5.522   4.327  1.6908 -0.2782  1.0946
 8299TIP3   OH246311   6.584   5.998  16.924 -0.1046  0.3750  0.2032
 8299TIP3    H146312   6.665   6.029  16.966  0.8459 -1.8994  0.1327
 8299TIP3    H246313   6.600   6.009  16.830 -0.1700  0.6424  0.2247
 8300TIP3   OH246314   5.979   2.394   4.385  0.3027  0.2565 -0.1490
 8300TIP3    H146315   6.021   2.326   4.332  0.9392  0.9944 -0.6051
 8300TIP3    H246316   6.050   2.455   4.405 -0.2639  0.7811  0.2746
 8301TIP3   OH246317   0.026   3.465  15.325 -0.3396  0.0126 -0.5835
 8301TIP3    H146318   0.030   3.388  15.383 -1.3971  0.0190 -0.4745
 8301TIP3    H246319   0.116   3.478  15.296 -0.0854 -1.0727 -0.3399
 8302TIP3   OH246320   5.267   6.768  13.147 -0.1893 -0.3289  0.5236
 8302TIP3    H146321   5.320   6.743  13.072  0.1700  0.9397  0.3457
 8302TIP3    H246322   5.329   6.773  13.220 -0.3776 -0.6167  0.7059
 8303TIP3   OH246323   0.090   1.106   4.366 -0.2543  0.2887 -0.1777
 8303TIP3    H146324   0.034   1.096   4.289  2.2267  1.1414 -2.1656
 8303TIP3    H246325   0.114   1.016   4.390  0.1726  0.0852 -1.3346
 8304TIP3   OH246326   2.091   0.383  13.265  0.1713 -0.3683  0.5632
 8304TIP3    H146327   2.110   0.294  13.294 -0.8523 -1.0343 -0.7371
 8304TIP3    H246328   2.175   0.417  13.233  0.6699 -0.6763  1.5417
 8305TIP3   OH246329   5.692   3.209   2.655  0.0331  0.5591 -0.5612
 8305TIP3    H146330   5.675   3.137   2.595 -0.8904  1.6346 -1.6062
 8305TIP3    H246331   5.623   3.272   2.638  0.1174  1.1610  1.2125
 8306TIP3   OH246332   3.629   5.053   3.184 -0.5575 -0.2243 -0.1262
 8306TIP3    H146333   3.674   5.131   3.151 -1.1285  0.5089  0.7767
 8306TIP3    H246334   3.571   5.026   3.113  0.7616 -0.7346 -1.0100
 8307TIP3   OH246335   5.701   1.226   2.995 -0.2331  0.4879 -0.1790
 8307TIP3    H146336   5.677   1.167   3.068 -1.3994  2.3571  0.9908
 8307TIP3    H246337   5.626   1.284   2.986 -0.4481 -0.2173 -3.4744
 8308TIP3   OH246338   3.016   1.873   0.298  0.1290  0.1147 -0.2702
 8308TIP3    H146339   2.941   1.817   0.278  0.7980 -0.4833 -1.1641
 8308TIP3    H246340   2.980   1.943   0.353 -0.4668 -1.8806  1.9346
 8309TIP3   OH246341   2.367   0.628   5.416  1.2955  0.0723  0.3159
 8309TIP3    H146342   2.323   0.564   5.360 -0.6075  0.8561  0.8972
 8309TIP3    H246343   2.297   0.680   5.454  2.8380  3.3500 -1.1139
 8310TIP3   OH246344   4.029   1.019  11.875  0.5664 -0.7994  0.2035
 8310TIP3    H146345   4.108   1.056  11.915  1.0261 -2.3020  0.7221
 8310TIP3    H246346   4.053   1.004  11.784  0.1160  0.9002 -0.2139
 8311TIP3   OH246347   3.957   0.588   3.738 -0.2237  0.1420  0.0902
 8311TIP3    H146348   3.876   0.629   3.708 -0.4484 -0.6362 -0.3971
 8311TIP3    H246349   4.024   0.655   3.726 -0.6670  0.5305 -0.2357
 8312TIP3   OH246350   6.256   6.308  11.346 -0.1745 -0.3987  0.5130
 8312TIP3    H146351   6.162   6.294  11.352 -0.4842  1.4464  0.2999
 8312TIP3    H246352   6.273   6.319  11.252 -0.2112  2.0804  0.7584
 8313TIP3   OH246353   5.269   4.525  13.913 -0.1174 -0.2634 -0.2678
 8313TIP3    H146354   5.194   4.498  13.966  0.8846  0.2236  1.4442
 8313TIP3    H246355   5.305   4.601  13.959  0.4373  0.5329 -1.9794
 8314TIP3   OH246356   4.989   4.349   6.360  0.2445  0.4028 -0.3744
 8314TIP3    H146357   5.060   4.295   6.325  0.6036 -0.1102  1.1313
 8314TIP3    H246358   4.931   4.287   6.404 -0.6195  0.9459 -0.7345
 8315TIP3   OH246359   6.244   2.979   3.508 -0.1043 -0.9439 -0.5187
 8315TIP3    H146360   6.299   3.021   3.441 -0.6972 -0.5998 -0.7847
 8315TIP3    H246361   6.277   3.013   3.591  0.7479 -1.4962 -0.6119
 8316TIP3   OH246362   2.652   4.487   2.020  0.1987 -0.1491  0.4505
 8316TIP3    H146363   2.599   4.412   2.050 -1.4606  1.0708  0.6095
 8316TIP3    H246364   2.632   4.495   1.927  1.6976 -0.9412  0.0320
 8317TIP3   OH246365   0.754   1.927  16.862  0.0943  0.1828 -0.2257
 8317TIP3    H146366   0.754   2.009  16.814 -1.9086 -0.3265 -1.1353
 8317TIP3    H246367   0.792   1.949  16.947 -0.8484  2.1485 -0.2958
 8318TIP3   OH246368   6.456   1.611   5.589 -0.1605  0.8309 -0.2812
 8318TIP3    H146369   6.434   1.594   5.681  0.7391  1.4081  0.0386
 8318TIP3    H246370   6.551   1.612   5.587 -0.1592 -0.5768 -1.4852
 8319TIP3   OH246371   4.490   1.832  12.563 -0.5186  0.3048 -0.2757
 8319TIP3    H146372   4.550   1.757  12.563 -2.1967 -1.0759  0.6864
 8319TIP3    H246373   4.528   1.892  12.628  0.3611 -0.0962 -0.4101
 8320TIP3   OH246374   2.296   1.355  13.185  0.4882  0.6539  0.5242
 8320TIP3    H146375   2.386   1.374  13.212  0.5538 -0.4956  1.1382
 8320TIP3    H246376   2.268   1.284  13.243 -0.1746 -0.2490 -0.8797
 8321TIP3   OH246377   1.518   1.153  10.928 -0.1805  0.3058 -0.4596
 8321TIP3    H146378   1.492   1.214  10.997  2.4317 -0.8014  1.5812
 8321TIP3    H246379   1.479   1.070  10.954 -1.9514  0.5839 -2.1113
 8322TIP3   OH246380   5.266   5.258  11.014 -0.2150 -0.4503 -0.0783
 8322TIP3    H146381   5.213   5.187  10.977 -1.2203 -0.0666  0.6064
 8322TIP3    H246382   5.207   5.333  11.018 -0.4121 -0.7010  3.0593
 8323TIP3   OH246383   0.326   3.265   1.873 -0.5003  0.9420  0.0381
 8323TIP3    H146384   0.382   3.305   1.939 -1.0052  1.6286  0.0610
 8323TIP3    H246385   0.264   3.334   1.849 -0.9647  0.3789 -0.4091
 8324TIP3   OH246386   3.338   5.823  16.522  0.0424  0.0323 -0.6262
 8324TIP3    H146387   3.360   5.916  16.524  0.2019 -0.0157 -0.1456
 8324TIP3    H246388   3.422   5.778  16.510  0.3187 -0.1819  1.8194
 8325TIP3   OH246389   1.070   2.315   0.034  0.8987 -0.6010 -0.5977
 8325TIP3    H146390   1.069   2.407   0.060  0.6910 -0.2864 -1.6736
 8325TIP3    H246391   0.984   2.301  -0.007  0.9647 -1.2441 -0.5266
 8326TIP3   OH246392   1.903   2.770  14.284  0.0757 -0.5308 -0.2677
 8326TIP3    H146393   1.890   2.741  14.374  0.3469 -0.9635 -0.3637
 8326TIP3    H246394   1.839   2.840  14.271 -1.2623 -1.7445 -0.3248
 8327TIP3   OH246395   3.886   5.451  12.462 -0.4732 -0.1745 -0.2947
 8327TIP3    H146396   3.821   5.519  12.442 -0.8512  0.2892  2.2909
 8327TIP3    H246397   3.901   5.460  12.556  0.9633 -2.3981 -0.2825
 8328TIP3   OH246398   5.558   4.949   3.637  0.1493  0.1845 -0.3245
 8328TIP3    H146399   5.530   4.940   3.728  2.1087  1.4624  0.4331
 8328TIP3    H246400   5.545   4.862   3.600 -1.6265 -0.0865  0.8960
 8329TIP3   OH246401   6.377   6.222   4.720  0.4755 -0.5112 -0.0801
 8329TIP3    H146402   6.345   6.186   4.638 -0.1023  0.1266 -0.1399
 8329TIP3    H246403   6.406   6.311   4.698 -0.4673 -0.0308  0.5580
 8330TIP3   OH246404   3.387   1.226  14.419  0.2329  0.4100  0.0805
 8330TIP3    H146405   3.434   1.309  14.409  1.0765 -0.0896 -0.1121
 8330TIP3    H246406   3.296   1.252  14.434  0.6606  1.4016  1.0433
 8331TIP3   OH246407   3.931   3.882   1.688 -0.5273  0.0276 -0.5880
 8331TIP3    H146408   3.953   3.967   1.725 -1.2496  0.0048 -0.0985
 8331TIP3    H246409   4.002   3.863   1.628  1.0382 -0.2388  1.2878
 8332TIP3   OH246410   3.865   2.201   3.702 -0.1641  0.2372  0.0054
 8332TIP3    H146411   3.880   2.131   3.639  0.1175 -0.6449  1.0382
 8332TIP3    H246412   3.903   2.279   3.661 -0.0681 -0.3081 -0.9474
 8333TIP3   OH246413   3.284   5.827   4.132  0.5848 -0.1037 -0.1990
 8333TIP3    H146414   3.227   5.779   4.192 -0.2817  3.2828  1.8116
 8333TIP3    H246415   3.253   5.802   4.045  0.1126 -3.0451  0.7610
 8334TIP3   OH246416   6.370   5.952   4.841  0.2297 -0.0901  0.1195
 8334TIP3    H146417   6.463   5.975   4.846  0.4279 -0.7901 -0.3654
 8334TIP3    H246418   6.326   6.036   4.828  0.8769  0.1400 -0.6117
 8335TIP3   OH246419   3.591   6.281  16.390 -0.3357 -0.3953 -0.0741
 8335TIP3    H146420   3.678   6.248  16.368  0.3420 -0.5213  2.6570
 8335TIP3    H246421   3.592   6.372  16.360  0.4232 -0.6641 -0.8816
 8336TIP3   OH246422   1.974   1.382  15.266 -0.0793 -0.5174  0.4856
 8336TIP3    H146423   1.913   1.346  15.201  1.3228 -1.6150 -0.2477
 8336TIP3    H246424   2.033   1.309  15.286  2.1884  1.0651 -0.2467
 8337TIP3   OH246425   4.715   3.128   5.377 -0.8280  0.6164 -0.1171
 8337TIP3    H146426   4.623   3.143   5.398 -1.2103 -2.3370  0.6423
 8337TIP3    H246427   4.713   3.070   5.301  0.4552  2.3925 -1.5361
 8338TIP3   OH246428   4.289   0.591   3.502  0.0839  0.1971 -0.4880
 8338TIP3    H146429   4.254   0.504   3.487 -3.4993  1.1888  1.4298
 8338TIP3    H246430   4.366   0.577   3.557 -0.4484 -1.7703 -0.2212
 8339TIP3   OH246431   5.974   4.554  16.644  0.1943 -0.3504 -0.0002
 8339TIP3    H146432   6.020   4.603  16.575 -0.8808 -0.2592 -0.6609
 8339TIP3    H246433   6.030   4.564  16.721  2.7471 -2.5806 -1.4599
 8340TIP3   OH246434   2.412   3.765   2.616 -0.1597  0.3527 -0.3715
 8340TIP3    H146435   2.327   3.759   2.659  0.9646 -3.4009  1.6341
 8340TIP3    H246436   2.420   3.682   2.569  1.9613  1.0703 -1.3178
 8341TIP3   OH246437   5.423   4.971  14.485 -0.2074  0.6267 -0.2391
 8341TIP3    H146438   5.396   4.908  14.552  2.8096 -2.1492 -1.4574
 8341TIP3    H246439   5.349   4.977  14.425 -0.7804 -1.3739  0.2304
 8342TIP3   OH246440   4.560   1.960   5.722  0.5415  0.6039  0.5078
 8342TIP3    H146441   4.486   1.923   5.769 -1.3228  2.6699 -0.6789
 8342TIP3    H246442   4.581   2.041   5.769  2.0141  0.0710  0.7963
 8343TIP3   OH246443   3.233   5.301  10.806 -0.1875 -0.3643  0.0390
 8343TIP3    H146444   3.251   5.207  10.808 -0.3714 -0.4502 -1.5669
 8343TIP3    H246445   3.198   5.316  10.719 -0.2898  1.1791  0.3442
 8344TIP3   OH246446   6.304   3.617  14.880 -0.3603  0.9097 -0.0490
 8344TIP3    H146447   6.263   3.634  14.965 -0.9622 -1.1610  0.1036
 8344TIP3    H246448   6.353   3.536  14.893  0.8507  1.4339 -1.2571
 8345TIP3   OH246449   2.117   1.000   5.349  0.2017 -0.0377 -0.0154
 8345TIP3    H146450   2.165   0.958   5.278 -1.2449 -1.7654 -0.0211
 8345TIP3    H246451   2.152   1.089   5.353  2.2940 -0.7862 -1.0097
 8346TIP3   OH246452   5.824   0.355   5.454  0.5196 -0.2565 -0.7829
 8346TIP3    H146453   5.768   0.429   5.432 -1.2196 -1.4583 -0.4559
 8346TIP3    H246454   5.832   0.357   5.549 -0.1692 -0.9318 -0.7041
 8347TIP3   OH246455   3.395   0.490  11.351  0.1948 -0.0122 -0.0520
 8347TIP3    H146456   3.357   0.486  11.263  0.6687 -0.9552 -0.2247
 8347TIP3    H246457   3.472   0.546  11.342 -1.2727  2.1079  0.3521
 8348TIP3   OH246458   6.173   5.980  14.331 -0.1702 -0.5662 -0.5346
 8348TIP3    H146459   6.183   6.070  14.301  1.2592 -0.5619 -0.0902
 8348TIP3    H246460   6.155   5.987  14.424  1.2953 -0.7748 -0.2245
 8349TIP3   OH246461   3.855   0.239  16.678  0.0967 -0.2813  0.0786
 8349TIP3    H146462   3.827   0.159  16.722  2.0448 -0.7639  0.4770
 8349TIP3    H246463   3.818   0.309  16.732  1.5450 -0.8818  1.9266
 8350TIP3   OH246464   5.236   0.016   3.970 -0.3253  0.1879 -0.2486
 8350TIP3    H146465   5.178  -0.049   3.930 -0.6040  0.7009 -0.6859
 8350TIP3    H246466   5.273   0.064   3.896  1.4556 -0.7891 -0.0408
 8351TIP3   OH246467   3.226   3.496   5.350  0.7108  0.5593  0.1764
 8351TIP3    H146468   3.316   3.482   5.319  0.0986 -2.4777 -0.4336
 8351TIP3    H246469   3.214   3.429   5.417 -1.8028 -0.5749 -1.3457
 8352TIP3   OH246470   4.799   3.432  11.160 -0.1111 -0.0545  0.6297
 8352TIP3    H146471   4.777   3.341  11.181  0.2850 -1.2732 -3.7901
 8352TIP3    H246472   4.890   3.428  11.130 -0.3270  1.7088 -0.3029
 8353TIP3   OH246473   6.628   0.829  13.773  0.3569  0.3365 -0.9374
 8353TIP3    H146474   6.568   0.810  13.701 -0.3129  1.1921 -0.6148
 8353TIP3    H246475   6.618   0.755  13.833 -1.5706  1.2305 -0.1076
 8354TIP3   OH246476   0.047   4.087  11.805  0.8483  0.1537 -0.2921
 8354TIP3    H146477  -0.031   4.061  11.855 -0.1829  0.3291 -1.7704
 8354TIP3    H246478   0.093   4.149  11.862 -0.9571  1.3068 -0.0515
 8355TIP3   OH246479   4.003   3.877   4.250 -0.3555 -0.1605 -0.1962
 8355TIP3    H146480   4.093   3.894   4.222  1.0480 -0.2159  3.9022
 8355TIP3    H246481   3.991   3.783   4.235  0.4936 -0.2664 -0.2648
 8356TIP3   OH246482   6.389   6.616   0.709  0.1718  0.0156 -0.1784
 8356TIP3    H146483   6.324   6.547   0.701 -0.5114  0.8672 -2.1978
 8356TIP3    H246484   6.471   6.570   0.730 -0.4651 -1.3089 -0.5493
 8357TIP3   OH246485   0.165   5.493  12.038 -0.0750  1.1242  0.1590
 8357TIP3    H146486   0.132   5.485  12.128 -2.0598 -0.4285 -0.6902
 8357TIP3    H246487   0.087   5.487  11.983  1.3003  0.5773 -1.7589
 8358TIP3   OH246488   6.743   4.426   0.402  0.1393  0.0343 -0.4931
 8358TIP3    H146489   6.672   4.447   0.462 -1.4350  1.2984 -2.7746
 8358TIP3    H246490   6.719   4.341   0.365  0.2500  0.0714 -0.6500
 8359TIP3   OH246491   0.023   5.817   5.494 -0.3045  0.1906 -0.2792
 8359TIP3    H146492  -0.059   5.849   5.456 -1.1914 -2.1022 -0.3778
 8359TIP3    H246493   0.003   5.802   5.586 -0.7052 -2.5224 -0.7609
 8360TIP3   OH246494   1.017   5.355   0.479 -1.0198 -0.3051  0.1245
 8360TIP3    H146495   0.982   5.354   0.390 -0.7901 -0.6435  0.0365
 8360TIP3    H246496   1.096   5.302   0.474 -2.2230 -2.2545  1.0318
 8361TIP3   OH246497   4.683   0.579   0.084  0.0359 -0.3834  0.3480
 8361TIP3    H146498   4.736   0.570   0.164  1.6675 -0.0353 -0.6603
 8361TIP3    H246499   4.649   0.491   0.068  1.8848 -1.0497 -0.0290
 8362TIP3   OH246500   0.581   4.812  12.005 -0.6320 -0.4869 -0.5490
 8362TIP3    H146501   0.529   4.877  11.957 -1.8756 -2.2332 -1.5996
 8362TIP3    H246502   0.598   4.743  11.941 -1.4316 -2.3587  1.2336
 8363TIP3   OH246503   2.549   5.016  13.106  0.3398  0.1327 -0.4885
 8363TIP3    H146504   2.644   5.016  13.110  0.3537  0.9661 -0.6847
 8363TIP3    H246505   2.527   4.940  13.052  0.9503  0.7386 -1.6009
 8364TIP3   OH246506   6.637   6.628   5.942 -0.1841  0.9511  0.4058
 8364TIP3    H146507   6.692   6.684   5.997 -0.0304  1.8764 -0.6716
 8364TIP3    H246508   6.617   6.682   5.865 -1.0969 -0.0219 -0.0543
 8365TIP3   OH246509   5.675   2.057   4.821 -0.9586 -0.0967  0.7080
 8365TIP3    H146510   5.714   2.141   4.796 -0.9535  0.3245  2.0731
 8365TIP3    H246511   5.691   2.000   4.746  2.3128  0.0562  1.2021
 8366TIP3   OH246512   4.030   1.365  12.898 -0.4027  0.2589 -0.1259
 8366TIP3    H146513   4.086   1.344  12.972 -0.5925 -2.1588 -0.6294
 8366TIP3    H246514   3.941   1.363  12.934 -0.4975 -0.9509 -0.4181
 8367TIP3   OH246515   2.248   0.022  12.723 -0.3337 -0.1158  0.3941
 8367TIP3    H146516   2.189   0.047  12.652  1.8657  0.9579 -1.1155
 8367TIP3    H246517   2.242  -0.074  12.727 -1.2530 -0.1087 -0.5452
 8368TIP3   OH246518   4.404   2.818  13.450 -0.5119  0.0121  0.0660
 8368TIP3    H146519   4.364   2.852  13.370  0.6035 -0.2722 -0.6138
 8368TIP3    H246520   4.330   2.803  13.509 -1.3373  0.2524 -0.9005
 8369TIP3   OH246521   2.985   1.735   4.774 -0.1258 -0.0422  0.0809
 8369TIP3    H146522   3.070   1.702   4.745 -0.8969 -1.2258 -0.9299
 8369TIP3    H246523   3.002   1.823   4.805  1.3373  0.0278 -0.8683
 8370TIP3   OH246524   2.097   0.124   0.109  0.2450 -0.2841  0.3691
 8370TIP3    H146525   2.011   0.088   0.089 -0.7600  1.9191  0.5447
 8370TIP3    H246526   2.135   0.146   0.023 -0.5324  1.2922  0.4128
 8371TIP3   OH246527   6.458   5.490  13.962 -0.3707  0.0822 -0.2160
 8371TIP3    H146528   6.421   5.547  14.030 -2.1121 -1.2553  0.0103
 8371TIP3    H246529   6.518   5.432  14.009 -0.1385  0.4087 -0.1149
 8372TIP3   OH246530   4.955   4.696  14.574  0.8028  0.1643 -0.2715
 8372TIP3    H146531   4.942   4.709  14.480  2.1345 -0.2283 -0.5331
 8372TIP3    H246532   4.871   4.663  14.606  0.5909 -0.5182 -1.4941
 8373TIP3   OH246533   4.090   0.478  14.930 -0.1051  0.2341  0.4825
 8373TIP3    H146534   4.097   0.467  15.025 -0.1007  0.0498  0.4608
 8373TIP3    H246535   4.025   0.413  14.903 -0.4930  0.6421  0.4267
 8374TIP3   OH246536   1.936   1.547   1.164  0.4605 -0.1612  0.5211
 8374TIP3    H146537   1.889   1.578   1.086 -0.2418 -1.2310  0.5013
 8374TIP3    H246538   1.929   1.452   1.159  1.1536 -0.2629  1.4474
 8375TIP3   OH246539   5.079   0.755  14.933 -0.0133  0.4240  0.1953
 8375TIP3    H146540   5.071   0.829  14.994  0.0073  1.4091 -0.9786
 8375TIP3    H246541   4.990   0.726  14.918 -0.2669  1.8759 -1.3251
 8376TIP3   OH246542   1.682   2.762   2.891 -0.4306 -0.0333 -0.1494
 8376TIP3    H146543   1.600   2.804   2.866 -0.1663  1.9446  2.1638
 8376TIP3    H246544   1.751   2.821   2.860  0.0139  0.0394  0.9354
 8377TIP3   OH246545   5.859   4.482   5.367  0.3480 -0.5369  0.1769
 8377TIP3    H146546   5.951   4.499   5.388  0.0930  2.4666 -0.9116
 8377TIP3    H246547   5.810   4.522   5.439 -0.1750 -0.7466 -0.0603
 8378TIP3   OH246548   0.094   5.866   0.671 -0.1211  0.1795 -0.2779
 8378TIP3    H146549   0.044   5.928   0.619 -0.7619  0.0796  0.2157
 8378TIP3    H246550   0.167   5.917   0.706 -0.8619  0.7429  0.4425
 8379TIP3   OH246551   0.640   0.333   2.919  0.2346 -0.1047  0.0066
 8379TIP3    H146552   0.705   0.392   2.956  2.1175 -1.4680 -1.0094
 8379TIP3    H246553   0.642   0.351   2.825 -0.7591 -0.2445 -0.0436
 8380TIP3   OH246554   1.837   6.111   3.266 -0.5822 -0.1039  0.3803
 8380TIP3    H146555   1.930   6.134   3.277 -0.3435 -1.1886  0.7113
 8380TIP3    H246556   1.830   6.023   3.305 -1.5005 -0.5180 -0.7047
 8381TIP3   OH246557   2.363   4.470  12.176  0.0994  0.2994 -0.0984
 8381TIP3    H146558   2.416   4.402  12.134 -0.7787  0.1056 -0.9110
 8381TIP3    H246559   2.411   4.551  12.159  2.2278 -0.2935  2.6098
 8382TIP3   OH246560   4.919   5.857   0.788  0.0319  0.0060 -0.6627
 8382TIP3    H146561   4.841   5.825   0.834  0.8850  0.8367  1.4057
 8382TIP3    H246562   4.961   5.778   0.755 -0.9621 -0.5535 -0.6082
 8383TIP3   OH246563   4.266   0.682   0.178  0.6147  0.0867 -0.3354
 8383TIP3    H146564   4.174   0.660   0.191  0.3013  1.0160 -0.9401
 8383TIP3    H246565   4.311   0.598   0.171 -0.4735 -0.3674 -2.0556
 8384TIP3   OH246566   0.752   0.084   2.086 -0.4807  0.0542 -0.3042
 8384TIP3    H146567   0.690   0.155   2.099 -0.7002 -0.0864 -0.5531
 8384TIP3    H246568   0.818   0.095   2.154 -1.6418 -0.7259  0.9760
 8385TIP3   OH246569   1.459   4.928  13.696  0.1068  0.4275  0.3624
 8385TIP3    H146570   1.553   4.920  13.682 -0.0794 -0.0104 -0.6757
 8385TIP3    H246571   1.425   4.955  13.611 -1.0964 -2.5339 -0.1295
 8386TIP3   OH246572   4.537   4.952   2.573 -0.2441 -0.0598  0.2658
 8386TIP3    H146573   4.546   5.044   2.548 -0.8709 -0.2237 -0.6017
 8386TIP3    H246574   4.627   4.922   2.587  0.0203  0.4683 -0.2689
 8387TIP3   OH246575   5.946   5.083  16.504  0.7036 -0.1779 -0.2027
 8387TIP3    H146576   5.931   5.156  16.563  0.1297  0.1380 -0.7271
 8387TIP3    H246577   6.038   5.060  16.516  1.5913  2.2732 -1.8640
 8388TIP3   OH246578   4.298   2.128   0.288  1.1986 -0.2705  0.2406
 8388TIP3    H146579   4.354   2.126   0.210  0.5566  1.9882 -0.3269
 8388TIP3    H246580   4.357   2.150   0.360  1.0767  2.1908 -0.3701
 8389TIP3   OH246581   0.729   1.021  10.536 -0.3136  0.0693  0.4798
 8389TIP3    H146582   0.683   0.938  10.534  0.8256 -0.5490 -0.8255
 8389TIP3    H246583   0.821   0.998  10.521  0.4319  1.2739  2.8785
 8390TIP3   OH246584   3.492   0.197  16.581  0.4794 -0.2065  0.3407
 8390TIP3    H146585   3.449   0.281  16.561 -2.0905 -1.4392  0.4824
 8390TIP3    H246586   3.450   0.168  16.662  0.2830 -2.3734 -0.5286
 8391TIP3   OH246587   5.843   1.641  11.285 -0.0482 -0.2653  0.1837
 8391TIP3    H146588   5.749   1.623  11.279 -0.6917  3.4272 -2.2447
 8391TIP3    H246589   5.849   1.725  11.331  2.0292 -0.3134  0.0451
 8392TIP3   OH246590   1.498   1.876   5.911 -0.2290  0.2954 -0.5211
 8392TIP3    H146591   1.445   1.858   5.989 -2.3121  0.0083 -1.9499
 8392TIP3    H246592   1.546   1.956   5.932  0.8136 -0.8839  1.8008
 8393TIP3   OH246593   4.914   6.631   0.294  0.1833 -0.1271  0.8934
 8393TIP3    H146594   4.924   6.619   0.388 -1.9587 -1.1208  1.0147
 8393TIP3    H246595   4.821   6.648   0.282  0.6979  1.6143 -0.8851
 8394TIP3   OH246596   6.120   5.802   0.787 -0.0462  0.1826 -0.6088
 8394TIP3    H146597   6.073   5.885   0.783  1.3385  1.1458  2.0416
 8394TIP3    H246598   6.052   5.736   0.779 -1.4296  1.5558 -0.5532
 8395TIP3   OH246599   1.135   4.879   2.653 -0.2912  0.3614  0.1257
 8395TIP3    H146600   1.136   4.950   2.589  0.4482  0.4827  0.2708
 8395TIP3    H246601   1.220   4.836   2.643 -0.8100 -0.6303 -0.1030
 8396TIP3   OH246602   0.314   2.710  13.371  0.6227  0.5275  0.0906
 8396TIP3    H146603   0.390   2.763  13.348 -0.3606  1.7068 -0.5426
 8396TIP3    H246604   0.302   2.725  13.465  0.1333  1.7675 -0.1474
 8397TIP3   OH246605   4.367   3.124   5.994  0.0656  0.3946  0.0295
 8397TIP3    H146606   4.289   3.167   5.959 -0.2886 -0.4400 -0.2245
 8397TIP3    H246607   4.421   3.104   5.918 -0.1415 -0.3199  0.0634
 8398TIP3   OH246608   4.355   0.055  15.977 -0.6572 -0.1221  0.2125
 8398TIP3    H146609   4.397   0.107  15.909  0.9955 -1.8767 -0.1339
 8398TIP3    H246610   4.262   0.058  15.955  0.0466 -2.4374 -3.4145
 8399TIP3   OH246611   2.255   4.972  12.330 -0.2179  0.8516  0.2821
 8399TIP3    H146612   2.331   5.026  12.309 -1.0586  1.4930 -1.1989
 8399TIP3    H246613   2.182   5.017  12.288 -1.0076 -1.2670 -0.6653
 8400TIP3   OH246614   2.556   1.480   6.252 -0.3948  0.2991  0.3196
 8400TIP3    H146615   2.488   1.522   6.200  0.2939  1.1594  0.1004
 8400TIP3    H246616   2.588   1.549   6.310  0.6327  0.0516  0.0650
 8401TIP3   OH246617   1.832   2.767   0.665 -0.0977 -0.1634  0.1936
 8401TIP3    H146618   1.750   2.781   0.713 -0.6132 -1.7875 -0.1721
 8401TIP3    H246619   1.851   2.852   0.624 -0.8010  0.6328  1.4922
 8402TIP3   OH246620   2.759   2.490   4.262  0.0551  0.0283  0.1023
 8402TIP3    H146621   2.679   2.472   4.310  1.2329 -0.5996  1.8795
 8402TIP3    H246622   2.740   2.463   4.172 -1.2601 -1.4156  0.7907
 8403TIP3   OH246623   0.822   6.238   1.988  0.2906  0.2341 -0.3163
 8403TIP3    H146624   0.900   6.243   2.044 -0.7838 -0.0171  1.2628
 8403TIP3    H246625   0.759   6.298   2.029 -0.9612 -0.9003 -0.5256
 8404TIP3   OH246626   3.764   0.601   4.640 -0.0170 -0.1588 -0.1559
 8404TIP3    H146627   3.769   0.665   4.710 -0.7122  2.7291 -2.6509
 8404TIP3    H246628   3.841   0.617   4.586  2.0751 -4.2459  1.3689
 8405TIP3   OH246629   2.155   2.645   0.688 -0.0754 -0.5895  0.3254
 8405TIP3    H146630   2.108   2.578   0.638 -0.7607 -0.2546  0.5056
 8405TIP3    H246631   2.240   2.607   0.707  0.0676 -0.8540 -0.8184
 8406TIP3   OH246632   5.981   4.280   0.592  0.0989  0.3396  0.2576
 8406TIP3    H146633   6.045   4.327   0.539 -0.8805  1.5731  0.1629
 8406TIP3    H246634   6.001   4.187   0.578  1.8169  0.7192  0.1869
 8407TIP3   OH246635   6.623   2.755   4.062 -0.4252  0.0159  0.3052
 8407TIP3    H146636   6.700   2.763   4.120  1.4904 -2.7221 -1.7674
 8407TIP3    H246637   6.577   2.678   4.094 -0.9642  0.2145  0.0057
 8408TIP3   OH246638   5.176   2.242  15.841 -0.2795  0.0188 -0.1270
 8408TIP3    H146639   5.150   2.276  15.756  0.0632  0.7854  0.0738
 8408TIP3    H246640   5.211   2.317  15.888 -0.0679 -0.4852  0.5386
 8409TIP3   OH246641   1.629   4.164   0.222 -0.1600 -0.2344 -0.2068
 8409TIP3    H146642   1.684   4.203   0.154  0.6399 -0.0662  0.5289
 8409TIP3    H246643   1.688   4.108   0.271 -1.0685 -1.5295 -0.5707
 8410TIP3   OH246644   2.143   6.463   0.277 -0.2628  0.0381 -0.5447
 8410TIP3    H146645   2.173   6.553   0.268 -0.0613 -0.1611 -1.9621
 8410TIP3    H246646   2.074   6.467   0.343 -1.3253  1.4786 -1.7123
 8411TIP3   OH246647   4.139   5.557  10.389  0.0110 -0.7470  0.5082
 8411TIP3    H146648   4.169   5.644  10.362  1.6694 -1.9314 -1.5357
 8411TIP3    H246649   4.080   5.575  10.463 -1.1081  2.2302 -1.0063
 8412TIP3   OH246650   1.400   1.978  10.643 -0.2590  0.1846  0.6342
 8412TIP3    H146651   1.340   1.914  10.682  1.3366 -0.0470  2.8490
 8412TIP3    H246652   1.398   1.960  10.549 -1.2270 -1.9169  1.0276
 8413TIP3   OH246653   2.035   5.298   1.971 -0.4297 -0.3489 -0.0145
 8413TIP3    H146654   2.020   5.379   1.921  0.4444  0.1139  0.4654
 8413TIP3    H246655   2.112   5.258   1.930 -0.4082 -0.5560  0.2272
 8414TIP3   OH246656   1.126   2.594   0.707  0.0223 -0.7508 -0.5246
 8414TIP3    H146657   1.088   2.670   0.664  1.2090 -0.2561 -0.7273
 8414TIP3    H246658   1.159   2.627   0.791  1.1093 -0.8829 -0.8828
 8415TIP3   OH246659   2.549   2.613   5.613  0.1312  0.1418 -0.4081
 8415TIP3    H146660   2.559   2.527   5.655  0.4221 -0.2428 -1.2616
 8415TIP3    H246661   2.609   2.670   5.661  0.6585 -0.3564 -0.4742
 8416TIP3   OH246662   4.364   1.328   6.158  0.0185 -0.9672  0.5604
 8416TIP3    H146663   4.315   1.249   6.134 -0.3803 -0.6235  0.2398
 8416TIP3    H246664   4.367   1.326   6.254  0.0654 -1.4066  0.5497
 8417TIP3   OH246665   2.247   5.606   6.435 -0.1050  0.6063 -0.4236
 8417TIP3    H146666   2.330   5.601   6.389  1.2730  1.8679  1.8235
 8417TIP3    H246667   2.230   5.700   6.446 -1.4806  0.3607 -0.2734
 8418TIP3   OH246668   1.906   1.470  12.023 -0.4149 -0.2501  0.0191
 8418TIP3    H146669   1.945   1.389  11.991  0.0199  0.0939 -0.3273
 8418TIP3    H246670   1.935   1.537  11.960 -0.4194  0.2418  0.5380
 8419TIP3   OH246671   1.629   5.086   5.178 -0.5581 -0.0926  0.1579
 8419TIP3    H146672   1.545   5.051   5.206 -0.5653  0.2421  0.5653
 8419TIP3    H246673   1.636   5.171   5.223  0.7536 -0.8725  1.4980
 8420TIP3   OH246674   5.609   4.249   3.057  0.0615 -0.3588 -0.1377
 8420TIP3    H146675   5.579   4.331   3.018 -0.7412 -0.4530  0.2743
 8420TIP3    H246676   5.704   4.258   3.060  0.0548  0.0861 -1.1415
 8421TIP3   OH246677   1.753   0.812  15.905 -0.9481  0.0828 -0.5128
 8421TIP3    H146678   1.804   0.842  15.830 -3.9438  1.4297 -2.0800
 8421TIP3    H246679   1.714   0.891  15.942 -0.8364 -0.7597  1.4818
 8422TIP3   OH246680   1.437   3.569   5.886  0.0732  0.0605 -0.3931
 8422TIP3    H146681   1.516   3.544   5.934 -0.2198  0.0962  0.1122
 8422TIP3    H246682   1.413   3.655   5.923 -0.6645 -0.3225  0.0261
 8423TIP3   OH246683   5.470   6.360   5.604 -0.4654  0.1295  0.3220
 8423TIP3    H146684   5.489   6.407   5.685  0.8080  0.9539 -0.4250
 8423TIP3    H246685   5.503   6.271   5.620  2.0107  0.9224 -0.1073
 8424TIP3   OH246686   4.377   1.723   3.693  1.2278  0.1745  0.8236
 8424TIP3    H146687   4.357   1.802   3.643  0.2617 -0.9122 -0.5433
 8424TIP3    H246688   4.414   1.663   3.628  1.2582 -0.7726  1.7089
 8425TIP3   OH246689   0.809   2.379  11.979 -0.0135 -0.2591  0.0968
 8425TIP3    H146690   0.720   2.395  12.009  0.0517  0.9276 -0.3290
 8425TIP3    H246691   0.853   2.463  11.988  0.1747  0.0077 -2.7777
 8426TIP3   OH246692   1.369   5.865  12.991  0.0979  0.3193  0.7343
 8426TIP3    H146693   1.274   5.877  12.993  0.0712  0.1854  0.1639
 8426TIP3    H246694   1.391   5.856  12.899  0.5943 -0.1986  0.8992
 8427TIP3   OH246695   5.106   6.746  15.683  0.1040 -0.1211 -0.3082
 8427TIP3    H146696   5.130   6.786  15.600 -0.3810 -2.2469 -1.5318
 8427TIP3    H246697   5.188   6.739  15.732  0.3311  1.4780 -0.4380
 8428TIP3   OH246698   5.235   5.357  17.131  0.0036  0.0247 -0.1517
 8428TIP3    H146699   5.260   5.449  17.122  0.7405 -0.3408 -2.1531
 8428TIP3    H246700   5.289   5.312  17.066 -1.2628 -1.6583 -0.0475
 8429TIP3   OH246701   6.103   0.080   4.546 -0.3010 -0.0501 -0.1918
 8429TIP3    H146702   6.015   0.074   4.510 -0.6354 -0.4893  0.6922
 8429TIP3    H246703   6.120  -0.006   4.584  0.3548  0.1551 -0.0072
 8430TIP3   OH246704   3.853   0.388  12.440 -0.0657 -0.1901 -0.4439
 8430TIP3    H146705   3.818   0.319  12.497  1.0444 -1.3774 -1.1949
 8430TIP3    H246706   3.872   0.344  12.358  0.8897  0.9680 -0.8537
 8431TIP3   OH246707   2.801   4.315  10.815  0.9431  0.2718  0.3905
 8431TIP3    H146708   2.826   4.223  10.825  0.4447  0.3206  2.3353
 8431TIP3    H246709   2.878   4.358  10.779  1.8347 -0.5593  1.3014
 8432TIP3   OH246710   0.662   5.834   1.647 -0.0555 -0.1504 -0.2171
 8432TIP3    H146711   0.620   5.879   1.721 -1.7386 -0.7293 -0.8167
 8432TIP3    H246712   0.681   5.904   1.584  0.5161  0.2015  0.3272
 8433TIP3   OH246713   1.165   2.148   2.263 -0.6120 -0.1519 -0.2522
 8433TIP3    H146714   1.168   2.244   2.257  1.5646 -0.1305  0.5667
 8433TIP3    H246715   1.236   2.119   2.206 -1.2925 -1.2987 -0.5230
 8434TIP3   OH246716   5.366   2.389   1.501  0.4824  0.1550 -0.2022
 8434TIP3    H146717   5.444   2.334   1.494 -0.4830 -1.0351 -2.0648
 8434TIP3    H246718   5.304   2.350   1.440 -0.4880  2.8937 -1.0355
 8435TIP3   OH246719   4.402   0.194   6.211 -0.4781  0.5184  0.0129
 8435TIP3    H146720   4.413   0.100   6.226  1.6616  0.5059 -1.4733
 8435TIP3    H246721   4.475   0.234   6.259  0.4110  1.1827 -1.8535
 8436TIP3   OH246722   4.028   1.438  15.953  0.2733  0.1778 -0.7831
 8436TIP3    H146723   4.058   1.358  15.996  1.4633  0.0686 -1.7956
 8436TIP3    H246724   3.949   1.411  15.905 -0.6044  0.1235  0.6597
 8437TIP3   OH246725   5.274   6.773   1.826 -0.0235  0.3711  0.9650
 8437TIP3    H146726   5.300   6.703   1.767  0.6631  1.4797 -0.0724
 8437TIP3    H246727   5.234   6.839   1.770  0.6219  1.4332  1.7155
 8438TIP3   OH246728   2.560   0.443   3.350  0.2832 -0.1642  0.4622
 8438TIP3    H146729   2.522   0.513   3.296  1.1112 -0.3947 -0.4387
 8438TIP3    H246730   2.638   0.483   3.388 -1.2666  0.5747  2.9856
 8439TIP3   OH246731   6.482   4.714  10.738  0.3168  0.4745 -0.0485
 8439TIP3    H146732   6.418   4.644  10.729  2.7433 -1.9370  0.7201
 8439TIP3    H246733   6.529   4.715  10.655  3.4768 -2.1943  1.5654
 8440TIP3   OH246734   2.024   4.610  15.435 -0.4704  0.1742  0.4712
 8440TIP3    H146735   1.955   4.575  15.491 -1.6116 -0.6302 -1.3770
 8440TIP3    H246736   2.084   4.536  15.421 -0.8235  0.0247 -0.3021
 8441TIP3   OH246737   3.222   4.351   2.038 -0.1117 -0.3046 -0.2446
 8441TIP3    H146738   3.314   4.355   2.015 -0.2442 -0.2104 -0.7742
 8441TIP3    H246739   3.211   4.415   2.108  1.0140 -3.0646  2.5638
 8442TIP3   OH246740   4.672   6.661   3.506  0.3257  0.4496  0.3649
 8442TIP3    H146741   4.607   6.654   3.437  0.7462 -1.7848  0.1629
 8442TIP3    H246742   4.699   6.753   3.504 -1.4444  0.9623 -0.7883
 8443TIP3   OH246743   1.534   2.763  11.785 -0.1053 -0.0757 -0.1060
 8443TIP3    H146744   1.451   2.791  11.746 -1.1110  0.9598  2.6190
 8443TIP3    H246745   1.532   2.667  11.779 -2.1621 -0.1442  1.1442
 8444TIP3   OH246746   0.525   3.960  13.547 -0.0795  0.2555  0.3523
 8444TIP3    H146747   0.528   3.906  13.468 -0.6563 -0.7193  0.9852
 8444TIP3    H246748   0.500   4.047  13.515  0.8268  0.1577 -0.6688
 8445TIP3   OH246749   6.304   4.683   4.202 -0.1861  0.2692  0.0403
 8445TIP3    H146750   6.317   4.602   4.152  1.1236 -0.3925  1.4371
 8445TIP3    H246751   6.333   4.752   4.142 -0.0212 -0.3901 -0.6603
 8446TIP3   OH246752   2.106   2.698   5.373  0.9604  0.0412 -0.1567
 8446TIP3    H146753   2.061   2.654   5.446  1.9663  1.8027  1.5749
 8446TIP3    H246754   2.194   2.662   5.375  0.6291 -0.8697 -1.3706
 8447TIP3   OH246755   1.298   3.391   5.229 -0.9944 -0.2478  0.4737
 8447TIP3    H146756   1.284   3.431   5.315 -1.7171  0.9471 -0.1858
 8447TIP3    H246757   1.392   3.400   5.214 -0.8164 -0.7358  1.2732
 8448TIP3   OH246758   3.810   4.343   4.848 -0.8194  0.6482 -0.5310
 8448TIP3    H146759   3.825   4.436   4.831 -0.5098  0.2518 -2.5782
 8448TIP3    H246760   3.730   4.341   4.902 -1.3448  2.0501 -1.2280
 8449TIP3   OH246761   6.391   4.991  10.941  0.3712 -0.5160 -0.2637
 8449TIP3    H146762   6.368   5.079  10.910  0.8295  0.3874  1.8725
 8449TIP3    H246763   6.353   4.932  10.875 -2.7555  1.1550 -0.0588
 8450TIP3   OH246764   6.037   2.643   0.653 -0.1065 -0.3986  0.3978
 8450TIP3    H146765   6.117   2.688   0.625 -1.0347  0.4052 -1.0716
 8450TIP3    H246766   6.019   2.580   0.583 -0.3344 -1.1245  1.1042
 8451TIP3   OH246767   4.059   0.979   1.734 -0.1839 -0.4212  0.6436
 8451TIP3    H146768   4.135   0.979   1.792 -0.6519 -0.8467  1.2636
 8451TIP3    H246769   3.989   1.019   1.785 -0.5744 -0.7005  0.3350
 8452TIP3   OH246770   3.517   0.433  10.394 -0.2575 -0.4327  0.1426
 8452TIP3    H146771   3.565   0.421  10.312  0.0743 -0.1994  0.2962
 8452TIP3    H246772   3.586   0.454  10.458 -0.6955  1.2953  0.0802
 8453TIP3   OH246773   4.449   5.716  12.808  0.3747 -0.1356  0.1219
 8453TIP3    H146774   4.485   5.632  12.836  2.3564  0.2942 -1.0615
 8453TIP3    H246775   4.445   5.768  12.888  0.8976 -0.7331  0.5455
 8454TIP3   OH246776   0.951   4.673  13.086  0.2522 -0.3358  0.2753
 8454TIP3    H146777   0.861   4.697  13.064  0.1822 -0.8664 -0.0103
 8454TIP3    H246778   0.996   4.757  13.097 -0.8999 -0.0377  3.0403
 8455TIP3   OH246779   0.308   4.777  15.583 -0.0095 -0.2258 -0.3779
 8455TIP3    H146780   0.282   4.696  15.627  1.1286 -0.1618  0.4433
 8455TIP3    H246781   0.320   4.752  15.491 -0.0366 -0.9105 -0.2003
 8456TIP3   OH246782   5.210   0.173  12.873 -0.1023  0.5705 -0.2268
 8456TIP3    H146783   5.153   0.196  12.946 -0.2604 -0.5657  0.0137
 8456TIP3    H246784   5.207   0.077  12.869  2.1670  0.4585  0.0975
 8457TIP3   OH246785   4.885   1.501  15.987  0.3711  0.1855 -0.4129
 8457TIP3    H146786   4.811   1.456  15.947 -0.6677  1.5134 -0.0352
 8457TIP3    H246787   4.915   1.563  15.920  0.2620  0.6079 -0.0773
 8458TIP3   OH246788   0.510   4.809  17.104  0.4238 -0.0285  0.0029
 8458TIP3    H146789   0.489   4.716  17.090  0.1044  0.0407  0.0053
 8458TIP3    H246790   0.425   4.849  17.126  0.5367  0.2883 -0.1349
 8459TIP3   OH246791   4.997   0.431   4.658 -0.4169  0.0173 -0.1726
 8459TIP3    H146792   4.920   0.481   4.686  0.9854  0.7187  2.5828
 8459TIP3    H246793   5.049   0.493   4.606 -0.4739  0.2874  0.0939
 8460TIP3   OH246794   4.366   5.905  13.393  0.0140 -0.1271  0.1771
 8460TIP3    H146795   4.358   5.810  13.382 -1.3362  0.1294 -1.1146
 8460TIP3    H246796   4.440   5.915  13.453 -1.1068 -2.0615  1.9385
 8461TIP3   OH246797   1.512   0.792  10.470  0.6189  0.1477 -0.1733
 8461TIP3    H146798   1.590   0.739  10.459 -0.3174 -1.5003  0.9581
 8461TIP3    H246799   1.453   0.763  10.401 -0.5959 -1.6272  1.5663
 8462TIP3   OH246800   3.995   0.082  16.891 -0.4616 -0.0537  0.1988
 8462TIP3    H146801   4.057   0.087  16.963  0.5049 -0.2759 -0.6163
 8462TIP3    H246802   3.932   0.015  16.918 -0.2233  0.0065  0.9169
 8463TIP3   OH246803   4.573   3.655  12.197  0.3736 -0.5130 -0.0565
 8463TIP3    H146804   4.587   3.595  12.269  0.8318  0.4094  0.6334
 8463TIP3    H246805   4.480   3.680  12.204  0.4929 -0.1912  0.4004
 8464TIP3   OH246806   6.362   3.611  15.956  0.2064 -0.0128  0.1247
 8464TIP3    H146807   6.268   3.603  15.970 -0.0339 -0.1821 -1.4648
 8464TIP3    H246808   6.399   3.626  16.043 -1.1863 -0.8868  0.8704
 8465TIP3   OH246809   4.420   3.385  11.479 -0.2683  0.0177 -0.0445
 8465TIP3    H146810   4.464   3.364  11.562  2.3409 -0.9930 -1.6212
 8465TIP3    H246811   4.401   3.478  11.485 -1.6638 -0.3682  2.3713
 8466TIP3   OH246812   2.958   1.105   5.605 -0.5337 -0.6055  0.4608
 8466TIP3    H146813   2.984   1.084   5.694  1.1933 -1.7908 -0.2834
 8466TIP3    H246814   2.985   1.196   5.593 -1.0289 -0.3560  1.2363
 8467TIP3   OH246815   3.123   1.871  13.249  0.0362 -0.4739 -0.0059
 8467TIP3    H146816   3.189   1.920  13.298  0.6105  0.2521 -1.4777
 8467TIP3    H246817   3.163   1.785  13.234  0.4035 -0.2424 -0.3604
 8468TIP3   OH246818   5.927   6.073   1.770  0.3106 -0.7357  0.1177
 8468TIP3    H146819   5.943   5.979   1.775 -0.3690 -0.8932 -0.7439
 8468TIP3    H246820   5.959   6.099   1.684  2.6165  0.2457  1.1930
 8469TIP3   OH246821   1.759   5.349   5.621  0.2892  0.4330 -0.3220
 8469TIP3    H146822   1.727   5.316   5.705 -1.2488 -0.4105 -1.2277
 8469TIP3    H246823   1.691   5.410   5.592  0.4227  0.0925 -1.3531
 8470TIP3   OH246824   4.334   3.395   6.789  0.3603  0.3823 -0.3588
 8470TIP3    H146825   4.258   3.396   6.847  0.8587 -0.8625  0.3305
 8470TIP3    H246826   4.299   3.418   6.703 -0.7592  0.0137 -0.0121
 8471TIP3   OH246827   0.459   3.212  13.451 -0.4648 -0.1440  0.7760
 8471TIP3    H146828   0.527   3.147  13.469 -1.4050 -1.3010  0.2419
 8471TIP3    H246829   0.407   3.214  13.531  0.2074  0.7701  1.1987
 8472TIP3   OH246830   0.414   5.878  13.247 -0.0552 -0.1780  0.0069
 8472TIP3    H146831   0.366   5.798  13.226 -0.0493 -0.4110  0.8628
 8472TIP3    H246832   0.346   5.943  13.266 -0.0677 -0.8962  2.6796
 8473TIP3   OH246833   0.408   0.689  16.253 -0.4189  0.0885  0.4378
 8473TIP3    H146834   0.501   0.702  16.230 -0.5553  0.1212 -0.1123
 8473TIP3    H246835   0.361   0.715  16.174 -0.8549 -0.8366  0.3865
 8474TIP3   OH246836   4.592   3.090  16.886 -0.3119  0.0752  0.4071
 8474TIP3    H146837   4.499   3.070  16.878 -0.3443  0.7099 -1.0010
 8474TIP3    H246838   4.635   3.032  16.824  0.1163  0.5871  0.2220
 8475TIP3   OH246839   4.956   2.152  17.077 -1.0503 -0.0721  0.7274
 8475TIP3    H146840   4.949   2.059  17.099 -2.0089 -0.0093  0.6780
 8475TIP3    H246841   4.871   2.175  17.041 -0.9688  0.9438  1.1705
 8476TIP3   OH246842   1.480   2.526  12.691  0.4746 -0.2319  1.1431
 8476TIP3    H146843   1.550   2.551  12.750  0.0943  1.4664  0.8976
 8476TIP3    H246844   1.489   2.585  12.616 -0.4184 -0.8628  0.5238
 8477TIP3   OH246845   5.911   4.813   5.803  0.4414 -0.0530  0.0923
 8477TIP3    H146846   5.948   4.767   5.728 -1.3068 -2.9431  0.8998
 8477TIP3    H246847   5.985   4.857   5.844  2.3192 -2.5711 -0.4721
 8478TIP3   OH246848   6.287   2.273   1.312  0.7430  0.3746 -0.8516
 8478TIP3    H146849   6.211   2.332   1.322 -1.0162 -1.9972  0.3354
 8478TIP3    H246850   6.311   2.251   1.401  1.4998 -0.5606 -1.2860
 8479TIP3   OH246851   4.163   4.366  12.129  0.1561 -0.3789 -0.1914
 8479TIP3    H146852   4.185   4.443  12.181  1.3745 -0.2082 -0.9412
 8479TIP3    H246853   4.100   4.398  12.064 -0.4041 -0.3238  0.3767
 8480TIP3   OH246854   1.800   5.413  12.585  0.4647 -0.0457  0.1589
 8480TIP3    H146855   1.840   5.343  12.533  1.3697  0.5969 -0.0032
 8480TIP3    H246856   1.834   5.399  12.673  0.1749 -0.1611  0.2560
 8481TIP3   OH246857   6.313   2.630   3.745  0.8409  0.3278 -1.3239
 8481TIP3    H146858   6.305   2.704   3.806  3.2214 -0.1778 -0.3558
 8481TIP3    H246859   6.281   2.664   3.662 -1.0187  1.4942 -0.1758
 8482TIP3   OH246860   5.606   3.239  15.077 -0.6918 -0.1465  0.2321
 8482TIP3    H146861   5.598   3.325  15.120  1.2583 -1.2186  2.9100
 8482TIP3    H246862   5.626   3.260  14.986 -0.8521  2.2512  0.6954
 8483TIP3   OH246863   4.335   5.401   4.205  0.0415  0.1774  0.9161
 8483TIP3    H146864   4.259   5.398   4.263  2.0058 -0.5771  3.5710
 8483TIP3    H246865   4.395   5.335   4.241  2.3535  1.4388 -0.5104
 8484TIP3   OH246866   0.516   4.970  12.235 -0.2748  0.6931 -0.3342
 8484TIP3    H146867   0.598   4.998  12.276  0.3534 -0.6799 -0.6332
 8484TIP3    H246868   0.542   4.932  12.152 -1.0768 -0.9768  0.1494
 8485TIP3   OH246869   4.534   0.485  10.717 -0.0033  0.1487  0.2881
 8485TIP3    H146870   4.597   0.528  10.774 -0.9053  0.3773  1.1438
 8485TIP3    H246871   4.587   0.435  10.654  1.0113  0.5850  0.7920
 8486TIP3   OH246872   5.317   4.601   0.553 -0.1340  0.8809 -0.2841
 8486TIP3    H146873   5.263   4.629   0.627 -1.2982  1.6096 -1.3713
 8486TIP3    H246874   5.406   4.627   0.577 -0.4759  0.9929  0.9070
 8487TIP3   OH246875   4.039   2.345  15.807 -0.1719  0.7541 -0.0609
 8487TIP3    H146876   3.949   2.367  15.783 -0.0094  0.7635 -0.6572
 8487TIP3    H246877   4.065   2.415  15.868 -0.0299  1.6290 -1.1041
 8488TIP3   OH246878   1.591   5.884  15.487 -0.0796 -0.3084  0.0669
 8488TIP3    H146879   1.633   5.968  15.471  0.2309 -0.3977  0.4275
 8488TIP3    H246880   1.597   5.871  15.581 -1.4979 -0.0067  0.2137
 8489TIP3   OH246881   1.804   4.504  11.879 -0.3001  0.1379  0.2079
 8489TIP3    H146882   1.808   4.469  11.969  2.1094  1.4630  0.6725
 8489TIP3    H246883   1.792   4.427  11.824 -1.9909 -0.6754  1.6747
 8490TIP3   OH246884   1.711   5.830  12.510  0.3740  0.1834  0.1672
 8490TIP3    H146885   1.651   5.891  12.552 -0.0027 -0.1076  0.0656
 8490TIP3    H246886   1.659   5.749  12.500  1.0009 -0.2843  0.6937
 8491TIP3   OH246887   6.605   3.120   0.200 -0.0755 -0.6005 -0.5085
 8491TIP3    H146888   6.597   3.136   0.294 -1.8418 -0.0757 -0.7316
 8491TIP3    H246889   6.653   3.196   0.167  0.3732 -0.6871 -0.0616
 8492TIP3   OH246890   0.001   0.999   1.455 -0.6791  0.3501  0.5090
 8492TIP3    H146891   0.037   0.933   1.514 -1.0263 -1.2233 -1.0082
 8492TIP3    H246892   0.042   1.081   1.483  3.0490 -1.1365 -0.2306
 8493TIP3   OH246893   1.855   1.924  15.269 -0.0549  0.2719  0.4273
 8493TIP3    H146894   1.937   1.890  15.306 -1.3376  1.1717  4.3715
 8493TIP3    H246895   1.872   2.017  15.254 -0.1990  0.3612  0.8112
 8494TIP3   OH246896   1.367   6.767   5.636  0.9071 -0.1139  0.0072
 8494TIP3    H146897   1.332   6.748   5.723  1.5771  0.7504  0.4802
 8494TIP3    H246898   1.455   6.801   5.653  0.9981  0.1667 -1.0044
 8495TIP3   OH246899   2.199   0.889   1.425 -0.1058 -0.2014 -0.3225
 8495TIP3    H146900   2.224   0.898   1.517 -1.5244  1.2902 -0.0616
 8495TIP3    H246901   2.282   0.898   1.377  0.4439  0.4688  0.7261
 8496TIP3   OH246902   2.786   5.445   2.696  0.0967  0.1153  0.1512
 8496TIP3    H146903   2.875   5.475   2.708 -0.1428  1.8700 -2.1180
 8496TIP3    H246904   2.747   5.507   2.634 -2.0258 -1.8526 -0.5949
 8497TIP3   OH246905   0.658   5.895  11.725  0.0140 -0.3359  0.3108
 8497TIP3    H146906   0.735   5.837  11.728 -0.1635 -0.5064  2.1527
 8497TIP3    H246907   0.594   5.852  11.781 -0.9191  0.5563 -0.0591
 8498TIP3   OH246908   1.126   0.828  14.934 -0.1055  0.6736 -0.0663
 8498TIP3    H146909   1.158   0.782  14.857 -0.1752 -0.9058  0.8304
 8498TIP3    H246910   1.100   0.759  14.995 -0.3797  1.8906  1.2405
 8499TIP3   OH246911   2.358   4.429  15.304  0.0302 -0.3692  0.1811
 8499TIP3    H146912   2.367   4.523  15.320 -2.5059  0.1259 -1.0163
 8499TIP3    H246913   2.431   4.407  15.247  2.1796  0.2983  2.5731
 8500TIP3   OH246914   1.237   3.184   0.018 -0.4762  0.3142 -0.6850
 8500TIP3    H146915   1.259   3.091   0.028  0.6247  0.3716 -2.2039
 8500TIP3    H246916   1.209   3.212   0.104 -0.0503 -1.2481 -0.0180
 8501TIP3   OH246917   0.474   4.365   5.977  0.0296 -0.6036 -0.6326
 8501TIP3    H146918   0.401   4.303   5.978 -1.4137  1.1088  0.4064
 8501TIP3    H246919   0.456   4.426   6.048  0.7985  1.7543 -2.4042
 8502TIP3   OH246920   4.404   1.795  10.908 -0.3412  0.1478 -0.4773
 8502TIP3    H146921   4.320   1.784  10.862 -2.2873  2.7847  2.2050
 8502TIP3    H246922   4.446   1.869  10.864 -0.9320  0.8867  0.1803
 8503TIP3   OH246923   3.691   4.169   0.749 -0.1090  0.6760  0.3455
 8503TIP3    H146924   3.784   4.149   0.742 -0.0360  0.8608  0.7904
 8503TIP3    H246925   3.664   4.133   0.834 -0.7796 -0.7049 -0.4332
 8504TIP3   OH246926   1.925   4.518  16.794  0.3422 -0.0355 -0.2636
 8504TIP3    H146927   1.859   4.550  16.732  0.1233  0.2300  0.1051
 8504TIP3    H246928   1.907   4.566  16.875  0.3398 -0.7171  0.1445
 8505TIP3   OH246929   6.215   2.630   6.263  0.0529  0.4159  0.1153
 8505TIP3    H146930   6.265   2.704   6.297  0.0948  1.2342 -1.6729
 8505TIP3    H246931   6.204   2.572   6.339  2.8476  0.6610  0.7623
 8506TIP3   OH246932   6.411   3.473  15.309  0.2994  0.5209  0.2358
 8506TIP3    H146933   6.489   3.418  15.308  0.4767  0.7043  1.8795
 8506TIP3    H246934   6.342   3.417  15.346  0.0006  0.7959  0.1025
 8507TIP3   OH246935   2.619   4.279  13.928 -0.7228 -0.3903  0.4507
 8507TIP3    H146936   2.553   4.347  13.915 -0.8606 -0.2770  1.7235
 8507TIP3    H246937   2.687   4.321  13.980 -0.9222 -1.2969  1.4538
 8508TIP3   OH246938   5.338   5.737   5.240  0.2115 -0.5549 -0.1596
 8508TIP3    H146939   5.351   5.807   5.176  1.8780 -1.5258 -0.9107
 8508TIP3    H246940   5.338   5.781   5.325  1.4283  0.3330 -0.6115
 8509TIP3   OH246941   0.254   5.661  13.156  0.7448  0.4861  0.4151
 8509TIP3    H146942   0.291   5.582  13.196  0.2981 -0.1928 -0.4948
 8509TIP3    H246943   0.260   5.645  13.062 -0.0409  1.2240  0.2336
 8510TIP3   OH246944   4.045   4.610  16.743  0.1355 -0.7242  0.0210
 8510TIP3    H146945   4.021   4.525  16.779 -1.7687  0.2523  1.1698
 8510TIP3    H246946   4.127   4.633  16.786 -0.2706 -1.1835  1.0441
 8511TIP3   OH246947   4.005   0.251   4.908  0.2286  0.3529 -0.4340
 8511TIP3    H146948   4.066   0.179   4.927 -0.1236  0.0048 -0.6049
 8511TIP3    H246949   3.976   0.280   4.994  0.7308  0.6073 -0.3448
 8512TIP3   OH246950   5.886   1.833  14.596  0.2640 -0.4880 -0.5471
 8512TIP3    H146951   5.810   1.889  14.584  1.5854  1.2922 -0.8416
 8512TIP3    H246952   5.907   1.799  14.509  0.6810  0.2025 -0.7196
 8513TIP3   OH246953   5.521   5.322   4.858 -0.1154 -0.0790 -0.0346
 8513TIP3    H146954   5.606   5.311   4.817  0.4698  1.8651  0.6092
 8513TIP3    H246955   5.540   5.325   4.952 -0.6889  2.1005  0.0233
 8514TIP3   OH246956   5.719   2.645  16.238 -0.2785 -0.1925  0.8864
 8514TIP3    H146957   5.715   2.707  16.164  1.4793  1.0126  1.7502
 8514TIP3    H246958   5.687   2.695  16.312  0.3657 -0.5834  1.4306
 8515TIP3   OH246959   1.973   1.286  12.371  0.2008  0.2328  0.7625
 8515TIP3    H146960   2.002   1.245  12.290  1.2737  0.5972  0.9511
 8515TIP3    H246961   1.878   1.290  12.364  0.2642 -0.1182 -0.2917
 8516TIP3   OH246962   4.968   2.087  14.998  0.1734  0.2125 -0.1230
 8516TIP3    H146963   4.938   2.051  15.081 -0.4815  1.5404  0.2407
 8516TIP3    H246964   4.938   2.024  14.932 -1.0706  0.1461  0.4813
 8517TIP3   OH246965   2.056   6.232  13.805  0.9684 -0.0460  0.2505
 8517TIP3    H146966   2.125   6.237  13.872  1.0882  2.3478 -0.0142
 8517TIP3    H246967   1.988   6.178  13.845  0.4687  2.4229  2.8566
 8518TIP3   OH246968   0.705   2.732  11.038  0.4428  0.8813  0.0610
 8518TIP3    H146969   0.790   2.701  11.005  0.8467  0.4644  1.4543
 8518TIP3    H246970   0.683   2.806  10.981  0.8412 -0.1659 -1.4949
 8519TIP3   OH246971   3.220   2.162   2.850  0.7851 -0.1906  0.4009
 8519TIP3    H146972   3.307   2.123   2.860  0.4129 -1.1296  0.0465
 8519TIP3    H246973   3.234   2.238   2.793  1.3086 -0.5582  0.0404
 8520TIP3   OH246974   2.892   3.874  14.582  0.2459 -0.8430 -0.2061
 8520TIP3    H146975   2.837   3.939  14.538 -0.3972 -0.4576  1.1382
 8520TIP3    H246976   2.955   3.847  14.515 -0.6099 -0.1592 -1.3095
 8521TIP3   OH246977   1.456   6.009   1.702  0.1902  0.3442 -0.5524
 8521TIP3    H146978   1.382   6.033   1.758 -0.4617 -0.3456 -1.1035
 8521TIP3    H246979   1.532   6.046   1.746 -0.3861  0.3591  0.4633
 8522TIP3   OH246980   4.026   6.273   0.329  0.0195 -0.4687  0.2626
 8522TIP3    H146981   3.968   6.339   0.290  1.1410  0.4723  0.1814
 8522TIP3    H246982   4.053   6.219   0.255  0.9904  0.4358 -0.0574
 8523TIP3   OH246983   2.822   5.754   3.639 -0.0229 -0.5488 -0.1793
 8523TIP3    H146984   2.898   5.799   3.676  0.6831 -1.7776 -0.0834
 8523TIP3    H246985   2.781   5.818   3.581  0.7286  0.3313  0.2613
 8524TIP3   OH246986   4.188   2.936   0.173  0.4833  0.2510 -0.3215
 8524TIP3    H146987   4.154   2.930   0.263  1.1999 -1.5085 -0.1360
 8524TIP3    H246988   4.114   2.968   0.122 -0.3699 -0.0745  0.6854
 8525TIP3   OH246989   1.112   5.032   1.757  0.4567  0.4603  0.5145
 8525TIP3    H146990   1.131   5.124   1.776  0.7867  0.5871 -0.3841
 8525TIP3    H246991   1.119   5.026   1.662 -1.4030 -0.0920  0.4028
 8526TIP3   OH246992   3.722   0.780  14.942  0.3682 -0.4389 -0.1759
 8526TIP3    H146993   3.788   0.840  14.907 -0.0428  0.3866  0.4322
 8526TIP3    H246994   3.651   0.783  14.878  0.6392 -0.8059 -0.4913
 8527TIP3   OH246995   0.341   1.115   2.791 -0.0389  0.2924 -0.0762
 8527TIP3    H146996   0.371   1.025   2.785  0.8370  0.5388  0.5988
 8527TIP3    H246997   0.401   1.165   2.736 -0.3700  0.4982 -0.2529
 8528TIP3   OH246998   5.735   2.329  14.133  0.6361  0.2472 -0.4622
 8528TIP3    H146999   5.650   2.295  14.105  1.4489 -1.5537 -0.8326
 8528TIP3    H247000   5.733   2.422  14.108 -0.8651  0.0150 -1.2815
 8529TIP3   OH247001   6.200   1.360  12.359 -0.5553 -0.0091 -0.0433
 8529TIP3    H147002   6.186   1.286  12.418  1.5110 -0.5564 -0.1922
 8529TIP3    H247003   6.274   1.333  12.303 -1.2506  1.2454 -1.6294
 8530TIP3   OH247004   6.065   5.164   1.392  0.2649  0.0202 -0.1068
 8530TIP3    H147005   6.008   5.106   1.341  3.4514 -2.5989 -0.8494
 8530TIP3    H247006   6.106   5.221   1.327  0.4237  0.1633  0.1193
 8531TIP3   OH247007   1.023   1.673   1.874  0.5172  0.5921 -0.2623
 8531TIP3    H147008   1.116   1.662   1.894  0.7422  1.3827 -0.8137
 8531TIP3    H247009   0.993   1.740   1.935 -0.1910 -1.0975  1.2811
 8532TIP3   OH247010   4.171   3.545  14.821 -0.5793 -0.1263  0.2528
 8532TIP3    H147011   4.083   3.572  14.844 -1.2987 -2.3982  0.3038
 8532TIP3    H247012   4.159   3.475  14.756  1.2424  1.0294 -1.3968
 8533TIP3   OH247013   5.076   6.349  14.540  0.1493 -0.2536  0.3606
 8533TIP3    H147014   5.021   6.306  14.475 -0.1450 -0.3684  0.6867
 8533TIP3    H247015   5.071   6.293  14.617 -0.3749  0.4569  0.8480
 8534TIP3   OH247016   1.271   3.942   0.380 -0.7983 -0.7808 -0.5868
 8534TIP3    H147017   1.223   3.991   0.313  0.6626  0.6731 -0.6113
 8534TIP3    H247018   1.210   3.934   0.453 -1.1926  0.7782 -0.7389
 8535TIP3   OH247019   3.033   0.800  13.354 -0.3813  0.0660  0.4646
 8535TIP3    H147020   3.020   0.723  13.410  4.6830 -2.2524 -1.2309
 8535TIP3    H247021   3.084   0.860  13.408  0.1865 -0.0226  0.0286
 8536TIP3   OH247022   5.586   3.536  14.559  0.0466  0.9208  0.2903
 8536TIP3    H147023   5.601   3.497  14.646  0.0263 -0.9600 -0.5176
 8536TIP3    H247024   5.491   3.553  14.557  0.0323  0.8894  0.5993
 8537TIP3   OH247025   0.927   5.316   1.116 -0.3956  0.2945 -0.1180
 8537TIP3    H147026   0.881   5.356   1.190  0.6184 -0.3782  0.9048
 8537TIP3    H247027   0.897   5.364   1.039 -2.9148 -0.2152  0.4966
 8538TIP3   OH247028   2.110   1.932   6.611  0.6798 -0.1684  0.0422
 8538TIP3    H147029   2.154   1.949   6.527 -1.6564 -0.7080 -1.3353
 8538TIP3    H247030   2.118   2.014   6.659  2.3879  0.0257 -0.5479
 8539TIP3   OH247031   5.058   6.647  11.908 -0.5704 -0.2195  0.3279
 8539TIP3    H147032   5.092   6.559  11.892  1.0230  0.5182 -0.4418
 8539TIP3    H247033   5.134   6.705  11.898 -1.5973  1.2484  0.8067
 8540TIP3   OH247034   5.570   1.984  11.580 -0.6308 -0.1669  0.2195
 8540TIP3    H147035   5.520   1.923  11.634 -0.5468 -2.0361 -1.7450
 8540TIP3    H247036   5.534   2.070  11.602 -0.8703 -0.9042  2.9114
 8541TIP3   OH247037   0.007   2.001  13.982 -0.2256 -0.5399  0.6262
 8541TIP3    H147038   0.085   2.057  13.983 -0.9971  0.5671  0.3636
 8541TIP3    H247039  -0.060   2.055  13.940 -1.2640 -1.3011  1.2860
 8542TIP3   OH247040   1.748   6.051   2.685  0.2540  0.4725  0.2933
 8542TIP3    H147041   1.831   6.079   2.646 -0.1728 -0.5690 -1.3991
 8542TIP3    H247042   1.682   6.105   2.642 -0.1039  0.2009  0.5016
 8543TIP3   OH247043   3.159   3.312  13.522 -0.0577 -0.0491 -0.4617
 8543TIP3    H147044   3.103   3.381  13.486 -0.3694  0.0030  0.1068
 8543TIP3    H247045   3.105   3.233  13.520 -0.2865  0.0748  0.4159
 8544TIP3   OH247046   3.655   4.629   2.203 -0.3523 -0.7693 -0.2214
 8544TIP3    H147047   3.690   4.706   2.157  0.0017 -0.2168  0.9674
 8544TIP3    H247048   3.585   4.664   2.259  0.8708 -1.0529  1.5178
 8545TIP3   OH247049   3.896   0.079   5.149 -0.2341  0.4891 -0.3043
 8545TIP3    H147050   3.989   0.062   5.134 -0.2630  0.4288 -0.4159
 8545TIP3    H247051   3.851   0.021   5.088 -0.4184 -2.1880  2.2271
 8546TIP3   OH247052   0.915   1.111   1.276 -0.2071  0.2717  0.5225
 8546TIP3    H147053   0.930   1.202   1.302  0.1838 -0.2459  2.1769
 8546TIP3    H247054   0.828   1.112   1.236  0.7033  1.7694 -1.5570
 8547TIP3   OH247055   3.698   5.614   3.966 -0.6468  0.4197  0.1739
 8547TIP3    H147056   3.625   5.666   3.997 -2.2251 -0.4645 -1.9411
 8547TIP3    H247057   3.751   5.598   4.044 -1.9746  2.2272  1.4747
 8548TIP3   OH247058   4.296   2.496   4.554 -0.1194 -0.3013 -0.4847
 8548TIP3    H147059   4.231   2.548   4.509 -1.2502 -0.2331  1.1690
 8548TIP3    H247060   4.312   2.543   4.636  0.2775 -1.5355  0.1594
 8549TIP3   OH247061   3.776   5.537   3.245 -0.0566  0.1001 -0.1396
 8549TIP3    H147062   3.698   5.488   3.272 -0.9041  0.0724 -2.5448
 8549TIP3    H247063   3.764   5.553   3.151  1.5371  2.5106  0.0144
 8550TIP3   OH247064   2.722   1.690   0.213 -0.0620  0.1566  0.1653
 8550TIP3    H147065   2.690   1.713   0.300 -2.4338 -0.3195 -0.5619
 8550TIP3    H247066   2.751   1.599   0.221 -0.1251  0.1647  0.4868
 8551TIP3   OH247067   1.309   2.186   5.444  0.0236  0.2702  0.0694
 8551TIP3    H147068   1.303   2.233   5.361 -1.4197  0.8572  0.4913
 8551TIP3    H247069   1.235   2.219   5.495 -1.8698 -3.4331 -0.1421
 8552TIP3   OH247070   3.313   5.242   2.868  0.1844  0.2841 -0.5830
 8552TIP3    H147071   3.355   5.156   2.866 -1.1394 -0.3660 -1.9947
 8552TIP3    H247072   3.222   5.223   2.892  0.3334  1.5048  1.0265
 8553TIP3   OH247073   5.017   5.235   2.724  0.0349  0.0752  0.0853
 8553TIP3    H147074   5.044   5.188   2.803  2.2083 -0.0926 -0.7214
 8553TIP3    H247075   4.967   5.310   2.756 -1.0762 -1.2412  1.5012
 8554TIP3   OH247076   4.778   2.372  16.074  0.3149 -0.2973 -0.8500
 8554TIP3    H147077   4.824   2.351  16.155  1.2136 -1.8052 -1.7322
 8554TIP3    H247078   4.804   2.462  16.054  0.7721 -0.2210  0.0687
 8555TIP3   OH247079   2.233   5.248  12.995 -0.4861  0.3128 -0.1301
 8555TIP3    H147080   2.269   5.199  12.921 -0.1883 -0.9772  0.8587
 8555TIP3    H247081   2.141   5.222  12.999 -0.0899 -0.9662  1.0182
 8556TIP3   OH247082   1.947   5.919   1.852 -0.0722  0.1258  0.0000
 8556TIP3    H147083   1.918   5.970   1.777  0.5327  0.9739  0.3299
 8556TIP3    H247084   2.042   5.933   1.856  0.2655 -1.8484 -0.5106
 8557TIP3   OH247085   4.218   4.342  15.032  0.3438  0.1778 -0.0923
 8557TIP3    H147086   4.175   4.310  14.952  1.1759 -0.1823 -0.3968
 8557TIP3    H247087   4.166   4.418  15.058 -0.3390 -0.1086 -0.5977
 8558TIP3   OH247088   5.516   4.714  14.982  0.4070 -0.0129  0.0570
 8558TIP3    H147089   5.533   4.742  15.072  0.0495  2.3033 -0.5801
 8558TIP3    H247090   5.436   4.662  14.988  0.4328  0.0426  1.0712
 8559TIP3   OH247091   4.844   2.776   2.428 -0.3816 -0.1671 -0.6159
 8559TIP3    H147092   4.862   2.848   2.488  0.0237 -1.0191  0.3163
 8559TIP3    H247093   4.902   2.792   2.353  0.9336 -0.4067  0.3221
 8560TIP3   OH247094   3.643   1.072  10.858  0.2247  0.0398  0.0751
 8560TIP3    H147095   3.634   1.120  10.775  0.1489  0.3087  0.2394
 8560TIP3    H247096   3.588   0.994  10.847  1.2285 -0.5840 -0.6177
 8561TIP3   OH247097   5.796   2.695   4.155  0.0470  0.0226 -0.0155
 8561TIP3    H147098   5.800   2.656   4.068  0.1217  0.8007 -0.3687
 8561TIP3    H247099   5.887   2.699   4.184 -0.1780 -2.5649  1.1672
 8562TIP3   OH247100   5.440   5.345  16.913 -0.0751 -0.4230  0.2159
 8562TIP3    H147101   5.452   5.436  16.887  0.5657 -0.4388  0.4505
 8562TIP3    H247102   5.491   5.295  16.850 -2.2137 -0.7962 -1.2924
 8563TIP3   OH247103   3.205   6.141  15.000  0.6904 -0.2224 -0.0898
 8563TIP3    H147104   3.284   6.168  14.954  0.8271  1.6958  1.2156
 8563TIP3    H247105   3.213   6.179  15.087 -1.2826 -0.7069  0.3413
 8564TIP3   OH247106   5.481   0.063   1.349  0.1694  0.3569 -0.1880
 8564TIP3    H147107   5.397   0.037   1.311 -0.1010  1.0795 -0.0955
 8564TIP3    H247108   5.546   0.013   1.300 -0.1893  1.1572 -1.4795
 8565TIP3   OH247109   3.613   5.503   1.581  0.3701 -0.6282 -0.6157
 8565TIP3    H147110   3.561   5.469   1.509 -0.1840  1.3714 -1.1962
 8565TIP3    H247111   3.597   5.597   1.581 -0.3265 -0.6649  2.6876
 8566TIP3   OH247112   5.315   3.112   3.275 -0.6250  0.4117  0.2487
 8566TIP3    H147113   5.222   3.104   3.253 -1.2805  0.3869  2.8698
 8566TIP3    H247114   5.355   3.031   3.242 -1.8463 -0.3308  0.5559
 8567TIP3   OH247115   4.073   1.307  14.337 -0.1136 -0.3348 -0.1170
 8567TIP3    H147116   4.031   1.238  14.285  0.2482 -1.0349  0.5099
 8567TIP3    H247117   4.164   1.279  14.345 -0.0801 -0.0388  0.5597
 8568TIP3   OH247118   0.746   4.742   3.676 -0.1484  0.5729  0.2504
 8568TIP3    H147119   0.783   4.796   3.746  0.2139  1.3530 -0.5399
 8568TIP3    H247120   0.694   4.803   3.624 -1.6148 -0.2859  0.6794
 8569TIP3   OH247121   0.310   6.423  16.556  0.1328  0.0308 -0.1163
 8569TIP3    H147122   0.325   6.501  16.502  3.1068 -2.2397 -2.7385
 8569TIP3    H247123   0.222   6.395  16.533  0.1659  0.9132 -1.4200
 8570TIP3   OH247124   2.041   4.674   3.345  0.4751  0.1964  0.2468
 8570TIP3    H147125   2.084   4.728   3.279 -0.9356  1.3631  0.2489
 8570TIP3    H247126   2.044   4.726   3.425 -2.7302  1.2412 -0.2350
 8571TIP3   OH247127   5.299   4.156  15.302  0.6980 -0.3176  0.1546
 8571TIP3    H147128   5.259   4.151  15.390  0.3237  1.6051  0.1145
 8571TIP3    H247129   5.229   4.192  15.247  1.8962  1.3414 -0.3018
 8572TIP3   OH247130   6.370   4.197   3.714 -0.1864  0.1349 -0.1415
 8572TIP3    H147131   6.369   4.101   3.710  0.9145  0.1343 -0.5592
 8572TIP3    H247132   6.288   4.220   3.758 -0.4934 -0.9941 -0.1075
 8573TIP3   OH247133   6.585   3.073   3.147  0.3743 -0.0577  0.3095
 8573TIP3    H147134   6.567   3.135   3.077  0.0901  3.3122  3.2573
 8573TIP3    H247135   6.676   3.090   3.171 -0.0852  0.1137  1.9814
 8574TIP3   OH247136   0.884   1.556   3.654  0.0161 -0.2455  0.4685
 8574TIP3    H147137   0.942   1.563   3.579 -1.3201  0.3023 -0.5344
 8574TIP3    H247138   0.877   1.462   3.671  2.9170 -0.2259  1.9959
 8575TIP3   OH247139   5.406   3.189   5.917  0.1632  0.1703 -0.1439
 8575TIP3    H147140   5.354   3.165   5.994  1.4648 -0.6738  0.4824
 8575TIP3    H247141   5.470   3.251   5.949 -0.0884  0.7844 -0.8103
 8576TIP3   OH247142   1.916   2.215   4.409  0.3730  0.1340  0.2137
 8576TIP3    H147143   2.000   2.256   4.428  0.2563 -0.2718  1.6654
 8576TIP3    H247144   1.935   2.121   4.407 -0.1821 -0.0233  1.4317
 8577TIP3   OH247145   0.811   4.423  14.451 -0.1751  0.7214 -0.0834
 8577TIP3    H147146   0.830   4.515  14.434 -0.6826  0.6445 -1.0937
 8577TIP3    H247147   0.817   4.414  14.546 -1.8165  2.1794  0.1804
 8578TIP3   OH247148   5.963   6.510   3.825 -0.1647  0.0994  0.0595
 8578TIP3    H147149   6.040   6.565   3.819  0.6026 -0.9337  0.3173
 8578TIP3    H247150   5.947   6.501   3.919 -0.0149 -0.4817  0.0333
 8579TIP3   OH247151   5.188   6.069   4.298  0.6237  0.6029 -0.4788
 8579TIP3    H147152   5.195   6.038   4.208  0.0486 -2.2833  0.4251
 8579TIP3    H247153   5.115   6.131   4.297 -1.4871 -1.8105 -1.4113
 8580TIP3   OH247154   6.677   3.621  12.936 -0.0854  0.3534 -0.2294
 8580TIP3    H147155   6.592   3.576  12.931  0.7403 -1.3310  0.5691
 8580TIP3    H247156   6.655   3.714  12.923 -1.5161 -0.4847 -4.7082
 8581TIP3   OH247157   1.883   1.725  13.528  0.2411  0.0181  0.0871
 8581TIP3    H147158   1.808   1.706  13.584  0.9326  1.2786  1.4648
 8581TIP3    H247159   1.909   1.814  13.551  2.1702 -0.4026 -0.3764
 8582TIP3   OH247160   5.577   1.358   0.625  0.3162  0.4435 -0.5340
 8582TIP3    H147161   5.639   1.428   0.647 -1.1188  1.6709 -0.3030
 8582TIP3    H247162   5.547   1.379   0.537 -1.5877  1.2502  0.2768
 8583TIP3   OH247163   1.697   4.265   2.377 -0.2497  0.6459 -0.1701
 8583TIP3    H147164   1.643   4.267   2.456 -0.7701  1.4966 -0.5494
 8583TIP3    H247165   1.649   4.316   2.313 -0.2825 -0.8393 -1.3513
 8584TIP3   OH247166   0.707   0.030   4.357 -0.4033  0.1126  0.1462
 8584TIP3    H147167   0.669   0.040   4.444 -0.4770  0.9186  0.0208
 8584TIP3    H247168   0.649   0.079   4.299  0.5405  0.9340 -0.1195
 8585TIP3   OH247169   3.175   2.615  12.387 -0.3864 -0.4003  0.5817
 8585TIP3    H147170   3.246   2.608  12.322 -0.7821 -2.7436  0.3636
 8585TIP3    H247171   3.096   2.628  12.334 -0.4456 -0.3356  0.6876
 8586TIP3   OH247172   6.269   1.244   2.421  0.0783 -0.3928 -0.1467
 8586TIP3    H147173   6.256   1.177   2.488 -0.1246 -0.3957 -0.1889
 8586TIP3    H247174   6.338   1.208   2.364  1.5224  0.3924  1.0818
 8587TIP3   OH247175   3.565   6.525  10.240  0.0580  0.2827 -0.1617
 8587TIP3    H147176   3.596   6.610  10.211  0.9132 -0.4588 -1.5012
 8587TIP3    H247177   3.645   6.472  10.246 -0.2873  0.0100  2.1609
 8588TIP3   OH247178   3.258   1.895   1.278  0.6384  0.4164  0.1356
 8588TIP3    H147179   3.281   1.986   1.297  0.4207  0.5137 -0.0644
 8588TIP3    H247180   3.330   1.863   1.223  0.9545  0.3224  0.5946
 8589TIP3   OH247181   0.456   2.757  17.118 -0.1511 -0.0929  0.5501
 8589TIP3    H147182   0.552   2.751  17.111 -0.1993 -2.5250  1.5226
 8589TIP3    H247183   0.429   2.671  17.151 -2.4843  1.2980  2.3814
 8590TIP3   OH247184   2.795   2.910   1.960  0.2975  0.1513  0.4336
 8590TIP3    H147185   2.880   2.896   1.918  0.9278  1.8589  1.0898
 8590TIP3    H247186   2.739   2.842   1.923  1.6758 -0.3612 -0.7834
 8591TIP3   OH247187   5.987   2.648   1.248 -0.5097  0.2034  0.0857
 8591TIP3    H147188   5.947   2.720   1.201 -0.0349 -0.1926 -0.9345
 8591TIP3    H247189   6.046   2.607   1.185 -0.2466 -0.6471  0.8617
 8592TIP3   OH247190   5.514   0.912   4.758 -0.1258  0.5516 -0.1877
 8592TIP3    H147191   5.603   0.945   4.747 -0.5747  1.9569  0.2805
 8592TIP3    H247192   5.469   0.980   4.808 -1.4480 -0.1778 -0.3528
 8593TIP3   OH247193   6.763   0.653   2.683 -0.1660  0.1025  0.4788
 8593TIP3    H147194   6.677   0.674   2.646  1.1076  1.4424 -1.8509
 8593TIP3    H247195   6.797   0.737   2.714  0.8931 -0.1722  0.0840
 8594TIP3   OH247196   6.350   1.840  12.415  0.5696  0.0949  0.3712
 8594TIP3    H147197   6.341   1.751  12.379  2.1806 -0.2320  0.7198
 8594TIP3    H247198   6.271   1.852  12.469  0.1324 -0.9672 -0.0089
 8595TIP3   OH247199   0.105   1.309  11.711 -0.4517  0.4616 -0.3527
 8595TIP3    H147200   0.114   1.403  11.699  2.4385 -0.0243 -2.5420
 8595TIP3    H247201   0.172   1.271  11.654 -0.6495 -2.8760  1.5123
 8596TIP3   OH247202   5.151   3.899   5.333  0.0206  0.2751  0.1677
 8596TIP3    H147203   5.081   3.902   5.398 -1.1715  1.6921 -1.1419
 8596TIP3    H247204   5.184   3.989   5.330  0.2920  0.1378 -0.9398
 8597TIP3   OH247205   1.213   1.826   4.073  0.2321 -0.3802 -1.0735
 8597TIP3    H147206   1.131   1.809   4.118  0.7032  1.2064  0.4272
 8597TIP3    H247207   1.274   1.852   4.142  1.0317  1.9242 -2.5917
 8598TIP3   OH247208   1.462   2.446  16.284 -0.1978  0.0250 -0.6057
 8598TIP3    H147209   1.403   2.452  16.359  0.3323  0.7277 -0.2268
 8598TIP3    H247210   1.447   2.359  16.247 -0.0581 -0.5564  0.6692
 8599TIP3   OH247211   5.389   1.312  16.776  0.0065 -0.2191  0.0043
 8599TIP3    H147212   5.425   1.383  16.830 -0.9219 -0.7745  1.3698
 8599TIP3    H247213   5.372   1.241  16.838  1.4437 -1.8678 -1.4178
 8600TIP3   OH247214   3.706   1.981   2.356 -0.1752 -0.3242 -0.7703
 8600TIP3    H147215   3.710   1.954   2.265 -1.3328  0.1316 -0.9737
 8600TIP3    H247216   3.707   2.077   2.353  0.6250 -0.3074 -0.2514
 8601TIP3   OH247217   3.454   6.315  14.562  0.0046  0.1842 -0.2487
 8601TIP3    H147218   3.378   6.315  14.504  0.6905  0.2520 -1.1613
 8601TIP3    H247219   3.529   6.321  14.503  0.7922 -1.3621  0.5641
 8602TIP3   OH247220   3.692   3.288  13.407  0.3139 -0.0299 -0.5544
 8602TIP3    H147221   3.597   3.299  13.419  0.2657  0.6047 -1.4541
 8602TIP3    H247222   3.717   3.358  13.347  1.4887  0.2454  0.2439
 8603TIP3   OH247223   5.591   3.880   0.351 -0.4792  0.4373 -0.0108
 8603TIP3    H147224   5.528   3.948   0.329 -2.5884 -1.6793 -0.7252
 8603TIP3    H247225   5.551   3.832   0.424  1.1021  0.1211  0.6748
 8604TIP3   OH247226   4.849   2.636   3.929 -0.2244 -0.0733 -0.0848
 8604TIP3    H147227   4.781   2.607   3.869  0.3064 -2.1734  0.2914
 8604TIP3    H247228   4.889   2.556   3.961  1.1191  1.0782  1.2240
 8605TIP3   OH247229   5.105   0.123   0.665 -0.4353  0.2770  0.9690
 8605TIP3    H147230   5.059   0.174   0.597  0.4472  0.0083  0.1677
 8605TIP3    H247231   5.161   0.063   0.616  1.6949  1.4142  1.9319
 8606TIP3   OH247232   0.817   0.217  13.247  0.5869 -0.5943 -0.0176
 8606TIP3    H147233   0.783   0.228  13.336  2.2891  2.7830  0.3161
 8606TIP3    H247234   0.756   0.268  13.192  2.7884  2.2940  0.0893
 8607TIP3   OH247235   2.200   5.078   0.625  0.2573  0.7989 -0.0157
 8607TIP3    H147236   2.268   5.047   0.684 -0.8623  0.6071  1.1933
 8607TIP3    H247237   2.236   5.157   0.585  1.5437  0.1852 -0.0789
 8608TIP3   OH247238   5.823   0.041   3.043  0.4040 -0.1306  0.9201
 8608TIP3    H147239   5.807  -0.053   3.033  1.0677 -0.2958  1.3075
 8608TIP3    H247240   5.908   0.055   3.000 -0.3682  0.5688 -0.4295
 8609TIP3   OH247241   3.760   3.553   3.430 -0.0433 -0.1957 -0.2128
 8609TIP3    H147242   3.676   3.533   3.471 -0.5843  1.6787 -0.3459
 8609TIP3    H247243   3.792   3.630   3.478  1.2359 -0.4372 -0.6615
 8610TIP3   OH247244   3.361   3.336  11.178  0.0384 -0.1521 -0.3363
 8610TIP3    H147245   3.291   3.378  11.128  0.4897  1.0403  0.0188
 8610TIP3    H247246   3.396   3.406  11.233  0.4357 -1.1375  0.6628
 8611TIP3   OH247247   3.238   4.715   4.622 -0.1776 -0.4759 -0.4380
 8611TIP3    H147248   3.143   4.709   4.607 -0.3334 -1.3692  0.7996
 8611TIP3    H247249   3.275   4.644   4.570 -0.3553 -1.1539  0.3412
 8612TIP3   OH247250   1.555   0.952   4.392 -0.0507 -0.1591  0.1673
 8612TIP3    H147251   1.527   0.900   4.467  0.8213 -1.2206 -0.2268
 8612TIP3    H247252   1.633   1.000   4.422  0.5546 -0.9143 -0.1776
 8613TIP3   OH247253   3.696   5.490  17.105 -0.0004  0.1021  0.2023
 8613TIP3    H147254   3.774   5.444  17.074 -0.3756  0.7839 -1.8170
 8613TIP3    H247255   3.704   5.491  17.201  1.4400 -1.6076  0.1024
 8614TIP3   OH247256   3.318   0.326   6.211 -0.0351 -0.1911  0.0630
 8614TIP3    H147257   3.330   0.232   6.223  0.6997  0.0772  1.5434
 8614TIP3    H247258   3.224   0.341   6.225 -0.3641 -0.8545 -1.3551
 8615TIP3   OH247259   3.622   2.123  14.974  0.3582  0.0787 -0.1004
 8615TIP3    H147260   3.562   2.175  14.921  0.4843 -1.1505 -1.4982
 8615TIP3    H247261   3.588   2.033  14.965  0.1856 -0.1019  2.1827
 8616TIP3   OH247262   1.074   0.890  12.741  0.5574 -0.3726  0.0885
 8616TIP3    H147263   1.083   0.920  12.650 -0.9075  1.1826  0.4209
 8616TIP3    H247264   1.090   0.968  12.794  0.4690 -1.0440  1.1297
 8617TIP3   OH247265   3.520   3.276  16.198  0.0608 -0.5472  0.0792
 8617TIP3    H147266   3.582   3.210  16.167  1.4957  1.1362 -0.6950
 8617TIP3    H247267   3.468   3.299  16.121  0.8298  0.6066 -0.0942
 8618TIP3   OH247268   2.224   5.720   0.471  0.3529 -0.0579 -0.5122
 8618TIP3    H147269   2.264   5.738   0.556  0.4923 -0.8246 -0.4127
 8618TIP3    H247270   2.156   5.656   0.490  0.1472  0.0348 -0.9313
 8619TIP3   OH247271   1.149   4.321   2.170  0.1771 -0.4834  0.3167
 8619TIP3    H147272   1.222   4.306   2.110 -0.5360 -0.4050 -0.5656
 8619TIP3    H247273   1.082   4.364   2.118 -0.9442 -1.5634  0.8318
 8620TIP3   OH247274   2.213   4.795  14.461 -0.0302  0.0939  0.2426
 8620TIP3    H147275   2.138   4.850  14.482 -0.9688 -0.1369 -2.2279
 8620TIP3    H247276   2.236   4.820  14.371  1.6164 -1.2166  0.2766
 8621TIP3   OH247277   1.357   0.732  16.132  0.0954 -0.4443  0.9613
 8621TIP3    H147278   1.377   0.680  16.209  0.3668 -0.7438  0.6873
 8621TIP3    H247279   1.317   0.670  16.071 -0.8490 -0.0475  1.1584
 8622TIP3   OH247280   1.668   5.928   4.336 -0.1705 -0.1366 -0.3535
 8622TIP3    H147281   1.738   5.993   4.345 -1.1567  0.7244  1.2879
 8622TIP3    H247282   1.650   5.925   4.242  2.8532 -1.2468 -0.9899
 8623TIP3   OH247283   3.969   5.802  13.609 -0.4808  0.2631  0.1627
 8623TIP3    H147284   4.047   5.788  13.663 -0.5910  0.2573  0.3221
 8623TIP3    H247285   3.966   5.897  13.597  0.4157  0.1405 -1.1449
 8624TIP3   OH247286   2.747   0.439  11.075 -0.3004  0.8241  0.0852
 8624TIP3    H147287   2.679   0.490  11.119 -0.4178  1.4715 -0.8268
 8624TIP3    H247288   2.715   0.349  11.078 -0.3854  0.8864  1.1644
 8625TIP3   OH247289   0.123   0.077   5.656  0.2306  0.2737 -0.2105
 8625TIP3    H147290   0.192   0.053   5.717 -0.4153 -0.2159  0.3403
 8625TIP3    H247291   0.078  -0.006   5.637  0.2444  0.4683 -1.1189
 8626TIP3   OH247292   0.083   2.095  10.789  0.2642  0.8797  0.1560
 8626TIP3    H147293   0.063   2.076  10.698 -0.5889 -0.2364  0.5696
 8626TIP3    H247294   0.055   2.186  10.802  0.3297  1.0162 -0.6692
 8627TIP3   OH247295   1.863   4.996   4.062 -0.7324 -0.3317  0.3928
 8627TIP3    H147296   1.808   5.045   4.002 -2.6206 -1.6299  1.0166
 8627TIP3    H247297   1.814   4.915   4.080  0.8393 -1.0107  1.8611
 8628TIP3   OH247298   1.777   4.372   1.663 -0.1872 -0.0565  0.1045
 8628TIP3    H147299   1.830   4.300   1.630 -2.5108 -2.2032  0.8716
 8628TIP3    H247300   1.813   4.390   1.750  0.2735 -0.4366 -0.0056
 8629TIP3   OH247301   6.117   0.436  14.484  0.1596  0.2021 -0.0834
 8629TIP3    H147302   6.030   0.453  14.520 -0.2923 -1.2114 -0.4642
 8629TIP3    H247303   6.163   0.390  14.555 -0.8983 -3.0471 -1.3899
 8630TIP3   OH247304   5.411   3.898  11.634 -0.0081 -0.3015 -0.3604
 8630TIP3    H147305   5.453   3.972  11.677  0.3131 -0.1841 -0.8611
 8630TIP3    H247306   5.462   3.886  11.554 -0.2991 -0.8167 -0.4691
 8631TIP3   OH247307   0.560   3.217   6.120 -0.4338 -0.2630  0.0098
 8631TIP3    H147308   0.545   3.144   6.180 -1.4969 -0.6593 -0.7347
 8631TIP3    H247309   0.511   3.290   6.159  0.7459  0.1046  0.8298
 8632TIP3   OH247310   4.256   5.043   2.119 -0.4601 -0.1079  0.4898
 8632TIP3    H147311   4.346   5.013   2.135 -0.5799 -0.0514  1.2814
 8632TIP3    H247312   4.257   5.136   2.143 -0.4863  0.1357 -0.4438
 8633TIP3   OH247313   5.743   4.833  16.345  0.2802  0.2124  0.3561
 8633TIP3    H147314   5.829   4.834  16.304 -0.4629  0.8853 -1.2371
 8633TIP3    H247315   5.734   4.920  16.384  0.2188  0.2380  0.2859
 8634TIP3   OH247316   2.997   2.036   5.698 -0.5816  0.1730  0.2507
 8634TIP3    H147317   3.007   2.114   5.643 -1.4029  0.4951  0.5514
 8634TIP3    H247318   2.957   1.971   5.640  0.6699 -0.2395 -0.1771
 8635TIP3   OH247319   0.353   5.059   0.423  0.1486  0.3581 -0.0539
 8635TIP3    H147320   0.397   5.143   0.408 -0.3865  0.3029 -2.1606
 8635TIP3    H247321   0.395   5.023   0.501  2.2395  1.3497 -0.6941
 8636TIP3   OH247322   2.392   2.165  11.961 -0.2740  0.3159 -0.7738
 8636TIP3    H147323   2.437   2.220  12.025  1.2300 -0.2896 -1.2889
 8636TIP3    H247324   2.430   2.078  11.973 -0.4731  0.0498 -2.0189
 8637TIP3   OH247325   6.293   6.544  16.306 -0.3946  0.0762 -0.6680
 8637TIP3    H147326   6.311   6.557  16.399 -1.8686 -0.5904 -0.2754
 8637TIP3    H247327   6.201   6.569  16.295 -0.3827 -0.3542 -1.8377
 8638TIP3   OH247328   3.014   1.066  11.435  0.0584 -0.1759 -0.1520
 8638TIP3    H147329   3.073   1.141  11.423  0.1696 -0.3076 -0.4459
 8638TIP3    H247330   2.934   1.090  11.388 -0.2756  0.1749  0.5952
 8639TIP3   OH247331   4.588   4.185   4.146 -0.4350  0.4379  0.6098
 8639TIP3    H147332   4.607   4.277   4.127  0.6708 -0.0869 -0.8846
 8639TIP3    H247333   4.622   4.137   4.071  1.4568 -1.4422  2.5682
 8640TIP3   OH247334   0.716   5.929  12.345  0.6609  0.0596  0.3275
 8640TIP3    H147335   0.729   5.989  12.419 -0.2934  0.2232  0.3686
 8640TIP3    H247336   0.730   5.984  12.268  1.3998 -0.0515  0.3723
 8641TIP3   OH247337   1.471   5.654   4.214 -0.0905  0.3718  0.4352
 8641TIP3    H147338   1.549   5.653   4.159  0.5980 -0.3552  1.4204
 8641TIP3    H247339   1.419   5.579   4.185  0.1380  0.1547  0.5954
 8642TIP3   OH247340   0.755   2.876   3.305  0.2591 -0.5193 -0.4640
 8642TIP3    H147341   0.754   2.811   3.376  1.2621 -1.3119 -1.1567
 8642TIP3    H247342   0.672   2.863   3.260 -0.5935  0.3093  0.8449
 8643TIP3   OH247343   6.065   4.916  11.887  0.1563 -0.5497 -0.0218
 8643TIP3    H147344   6.058   4.876  11.973 -0.1592 -2.5665 -0.9538
 8643TIP3    H247345   6.124   4.990  11.900  2.7065 -2.7100  1.3237
 8644TIP3   OH247346   3.144   1.235   4.300  0.7952  0.3527 -0.3317
 8644TIP3    H147347   3.114   1.317   4.263  1.0255  1.6019  2.1625
 8644TIP3    H247348   3.186   1.189   4.227 -1.1351  1.5212 -2.2226
 8645TIP3   OH247349   0.979   2.449   5.274  0.0783 -0.1588 -0.5261
 8645TIP3    H147350   1.028   2.512   5.221 -1.2356 -0.3843 -2.0558
 8645TIP3    H247351   0.941   2.389   5.210  0.2418 -1.7471  0.8314
 8646TIP3   OH247352   5.460   3.851   5.379 -0.0593  0.5734 -0.1125
 8646TIP3    H147353   5.507   3.768   5.378 -1.1962 -0.0877 -0.3593
 8646TIP3    H247354   5.524   3.916   5.351  0.7069 -0.2902 -0.3783
 8647TIP3   OH247355   0.048   2.355  10.817  0.6192 -0.3197 -0.2427
 8647TIP3    H147356  -0.044   2.333  10.801  0.6531 -0.9512  0.4164
 8647TIP3    H247357   0.059   2.441  10.778 -0.1799 -0.3697 -0.5888
 8648TIP3   OH247358   5.247   0.496   5.546  0.2710  0.3702 -0.1755
 8648TIP3    H147359   5.259   0.589   5.526  1.4163 -0.1670 -2.0975
 8648TIP3    H247360   5.310   0.451   5.490 -1.6278 -1.7052 -0.7118
 8649TIP3   OH247361   3.133   6.756  10.629 -0.0177 -0.2040  0.0075
 8649TIP3    H147362   3.228   6.752  10.614 -0.2098 -1.6619 -0.8421
 8649TIP3    H247363   3.099   6.675  10.592 -1.6993  0.6357 -0.3507
 8650TIP3   OH247364   2.959   4.651   4.545 -0.2888  0.0179  0.6943
 8650TIP3    H147365   2.943   4.708   4.470  0.5565 -1.6239 -0.7870
 8650TIP3    H247366   2.872   4.624   4.574 -0.6287  0.7559  0.3834
 8651TIP3   OH247367   5.021   4.798   4.715  0.7153 -0.3229  0.0218
 8651TIP3    H147368   4.989   4.879   4.676  2.4883 -0.0034 -0.8757
 8651TIP3    H247369   4.954   4.733   4.694 -0.4872  0.7965  0.3238
 8652TIP3   OH247370   0.641   4.817  11.686  0.1151 -0.0535  0.2785
 8652TIP3    H147371   0.724   4.858  11.713  1.1722 -2.2571  0.5244
 8652TIP3    H247372   0.645   4.816  11.591  0.0774  0.4640  0.2740
 8653TIP3   OH247373   3.943   2.958  13.089 -0.1608  0.1052  0.4092
 8653TIP3    H147374   3.971   2.911  13.010  0.5172  0.3278  0.5089
 8653TIP3    H247375   3.974   2.903  13.161 -3.0791 -1.4503  0.5506
 8654TIP3   OH247376   3.315   3.068   3.329 -0.4936 -0.2046 -0.4206
 8654TIP3    H147377   3.389   3.010   3.314 -0.3868  0.1027 -1.1192
 8654TIP3    H247378   3.246   3.035   3.272  0.3147  1.7270 -2.6043
 8655TIP3   OH247379   1.804   2.537  14.168  0.1762 -0.5574  0.2684
 8655TIP3    H147380   1.847   2.618  14.197 -0.2637 -0.2241 -0.0121
 8655TIP3    H247381   1.856   2.508  14.094  0.3829 -0.5739  0.4191
 8656TIP3   OH247382   1.142   6.080   1.643 -0.3641  0.2954 -0.3620
 8656TIP3    H147383   1.201   6.111   1.575  0.9271 -0.8608  0.2074
 8656TIP3    H247384   1.126   5.988   1.622 -1.1637  0.3293  0.0555
 8657TIP3   OH247385   6.592   3.065  11.030  0.0787  0.2358  0.2070
 8657TIP3    H147386   6.507   3.031  11.059  0.5084 -0.2548  0.9057
 8657TIP3    H247387   6.656   3.014  11.080  0.8172 -0.3092 -1.2769
 8658TIP3   OH247388   3.212   3.049  11.605  0.7354 -0.1212  0.4323
 8658TIP3    H147389   3.186   3.123  11.550  0.2297 -1.6211 -1.4272
 8658TIP3    H247390   3.142   3.041  11.670  1.0121  1.2824  0.9169
 8659TIP3   OH247391   2.565   4.026  15.212  0.1618  0.2683 -0.6488
 8659TIP3    H147392   2.611   3.978  15.281  0.9144  1.6507 -0.1659
 8659TIP3    H247393   2.537   3.959  15.150  1.2532 -0.7780 -0.0224
 8660TIP3   OH247394   3.234   3.049  14.789  0.1834  0.6189 -0.0769
 8660TIP3    H147395   3.296   3.008  14.849  0.7059  0.4628 -0.7166
 8660TIP3    H247396   3.178   2.978  14.760 -2.1211  1.2310  2.6629
 8661TIP3   OH247397   4.767   6.157   2.768  0.1853  0.3379  0.3513
 8661TIP3    H147398   4.837   6.215   2.737 -2.1966  3.3222  0.3337
 8661TIP3    H247399   4.745   6.103   2.692 -0.4390  2.3444 -0.9208
 8662TIP3   OH247400   4.353   5.100  12.082  0.2196 -0.4832  0.2696
 8662TIP3    H147401   4.345   5.014  12.124  1.0241 -0.0153  1.4246
 8662TIP3    H247402   4.414   5.086  12.010 -0.3172 -1.0636 -0.0785
 8663TIP3   OH247403   1.954   3.346   3.013  0.3449 -0.2655  0.2221
 8663TIP3    H147404   1.897   3.269   3.019  0.5294 -0.3415  1.1223
 8663TIP3    H247405   1.998   3.350   3.098  1.9503 -0.4026 -0.5805
 8664TIP3   OH247406   4.593   1.985  11.948  0.2432 -0.4060 -0.1689
 8664TIP3    H147407   4.504   2.009  11.923  0.6203  2.2273  0.8828
 8664TIP3    H247408   4.600   2.011  12.040  1.7140 -1.7717  0.1367
 8665TIP3   OH247409   1.685   3.922   1.735 -0.7319  0.0336 -0.4376
 8665TIP3    H147410   1.708   3.895   1.824 -0.5994 -0.4358 -0.6147
 8665TIP3    H247411   1.657   4.013   1.744 -0.8760 -0.0660  0.1097
 8666TIP3   OH247412   3.914   4.639  16.498  0.1859  0.0697  0.3486
 8666TIP3    H147413   3.937   4.608  16.585  1.3463  1.3951  0.5368
 8666TIP3    H247414   3.933   4.565  16.440  1.0503 -0.2393  1.0211
 8667TIP3   OH247415   5.820   5.190   3.497  0.5994 -0.1252  0.3068
 8667TIP3    H147416   5.822   5.149   3.583  0.0662 -0.1467  0.3140
 8667TIP3    H247417   5.729   5.181   3.468  0.6996  0.1733 -0.1153
 8668TIP3   OH247418   4.223   1.660   2.384  0.1153  0.4179 -0.3529
 8668TIP3    H147419   4.239   1.700   2.469 -0.9349  2.7506 -1.2016
 8668TIP3    H247420   4.306   1.671   2.337  0.5521 -0.4687  0.1986
 8669TIP3   OH247421   4.027   2.794  17.072  0.7952  0.1750 -0.3544
 8669TIP3    H147422   4.079   2.717  17.097 -2.5332 -2.0940 -0.1164
 8669TIP3    H247423   4.041   2.802  16.978  0.7032 -1.0905 -0.4836
 8670TIP3   OH247424   1.002   2.742  14.630 -0.4823 -0.2042 -0.3801
 8670TIP3    H147425   1.068   2.812  14.627  0.5885 -1.2269 -1.0626
 8670TIP3    H247426   0.940   2.765  14.562  0.0024 -0.0482 -0.7734
 8671TIP3   OH247427   3.581   3.624  12.444 -0.8706  0.3218  0.5801
 8671TIP3    H147428   3.640   3.700  12.451 -1.4172  0.8916 -0.7237
 8671TIP3    H247429   3.608   3.566  12.515  0.3261  1.2221  0.8862
 8672TIP3   OH247430   5.097   4.885  11.349  0.3867 -0.6936 -0.3235
 8672TIP3    H147431   5.124   4.868  11.259 -1.7367 -3.1300 -0.5536
 8672TIP3    H247432   5.011   4.925  11.342  1.8200  2.6756  0.5475
 8673TIP3   OH247433   2.156   6.034   5.846 -0.4617  0.0770 -0.3012
 8673TIP3    H147434   2.068   6.017   5.880 -0.6091 -0.5368 -0.9750
 8673TIP3    H247435   2.178   5.955   5.795  0.8908 -0.2142  0.6989
 8674TIP3   OH247436   6.165   3.750   2.907 -0.1038  0.0212 -0.9191
 8674TIP3    H147437   6.211   3.794   2.835 -1.3683 -0.3429 -1.9657
 8674TIP3    H247438   6.107   3.687   2.864 -2.3208  1.1600  0.3126
 8675TIP3   OH247439   5.938   2.973   4.313  0.3769 -0.2983 -0.2697
 8675TIP3    H147440   6.032   2.967   4.327  0.1770 -2.9696  0.2160
 8675TIP3    H247441   5.900   2.916   4.380 -1.4750 -0.9274 -1.7953
 8676TIP3   OH247442   5.848   2.302  15.015 -0.0999 -0.3266  0.1951
 8676TIP3    H147443   5.769   2.355  15.014 -0.2653 -0.5936 -1.3995
 8676TIP3    H247444   5.840   2.249  15.095 -1.1270  0.2377  0.4742
 8677TIP3   OH247445   5.368   4.067   0.341  0.0020  0.2523 -0.2858
 8677TIP3    H147446   5.342   4.041   0.253  0.2538 -0.2157 -0.2220
 8677TIP3    H247447   5.290   4.054   0.395  0.6210 -2.0595  0.0985
 8678TIP3   OH247448   0.967   0.408  13.412  0.4790  0.2181 -0.3946
 8678TIP3    H147449   0.986   0.499  13.386 -0.8644  0.7662  0.5033
 8678TIP3    H247450   0.922   0.371  13.336  0.8853  0.3388 -0.7004
 8679TIP3   OH247451   5.082   0.833   0.671 -0.5525 -0.6823 -0.4069
 8679TIP3    H147452   5.044   0.831   0.759  1.7735  0.1348  0.6435
 8679TIP3    H247453   5.170   0.868   0.684 -0.9580  1.5977 -3.3499
 8680TIP3   OH247454   5.090   1.054   5.444 -0.1566 -0.3148 -0.5439
 8680TIP3    H147455   5.133   1.040   5.528  0.1135 -1.5071 -0.8739
 8680TIP3    H247456   5.039   1.134   5.456  0.6056  0.0289  0.4625
 8681TIP3   OH247457   1.986   5.906  12.520  0.0581 -0.0447 -0.5507
 8681TIP3    H147458   2.001   5.819  12.483 -0.8357 -0.0226 -0.9668
 8681TIP3    H247459   1.894   5.906  12.544  0.1666  0.6339 -0.1302
 8682TIP3   OH247460   1.943   2.164   3.520  0.2727  0.4340  0.3737
 8682TIP3    H147461   1.882   2.237   3.512 -0.6520 -0.2904  0.6963
 8682TIP3    H247462   1.893   2.087   3.493  1.4838  0.0242 -0.7421
 8683TIP3   OH247463   2.362   4.117   5.384  0.2882  0.3207 -0.1689
 8683TIP3    H147464   2.430   4.176   5.351  0.5931  0.0909  0.0566
 8683TIP3    H247465   2.404   4.031   5.388  1.3897  0.9734  4.2570
 8684TIP3   OH247466   2.841   3.105  15.619  0.0158  0.0272 -0.2678
 8684TIP3    H147467   2.822   3.036  15.556 -1.6276  1.1337 -1.0316
 8684TIP3    H247468   2.756   3.146  15.636  0.3252 -0.6043  3.1282
 8685TIP3   OH247469   1.544   5.063   2.293 -0.6935 -0.1859  0.8680
 8685TIP3    H147470   1.519   5.061   2.385 -1.3231 -0.4715  0.7006
 8685TIP3    H247471   1.468   5.026   2.248 -0.7734  0.8214  0.1515
 8686TIP3   OH247472   2.227   5.171   3.879  0.0496  0.5029 -0.5033
 8686TIP3    H147473   2.243   5.077   3.866  0.6038  0.9439 -3.3933
 8686TIP3    H247474   2.313   5.208   3.900  0.0179  0.5167 -0.3981
 8687TIP3   OH247475   3.717   4.013   6.537 -0.1649  0.3087 -0.0051
 8687TIP3    H147476   3.626   3.984   6.551  0.0113  0.5401  1.7615
 8687TIP3    H247477   3.709   4.105   6.514 -0.3899  0.3407  0.1922
 8688TIP3   OH247478   2.038   4.362  13.974 -0.7173 -0.0936  0.2493
 8688TIP3    H147479   2.080   4.438  14.013  0.6217 -0.9739  0.5360
 8688TIP3    H247480   1.989   4.397  13.899  0.9038  0.8667 -0.3756
 8689TIP3   OH247481   0.865   3.695   3.001 -0.0491 -0.1006  0.2672
 8689TIP3    H147482   0.906   3.690   3.087  0.8265  0.5613 -0.0996
 8689TIP3    H247483   0.915   3.762   2.954 -0.1001 -0.8895 -0.9660
 8690TIP3   OH247484   1.891   5.219  13.408 -0.1835 -0.5432  0.0386
 8690TIP3    H147485   1.862   5.252  13.494 -0.4055  1.8909 -0.9443
 8690TIP3    H247486   1.811   5.186  13.367 -0.8535  2.1267 -0.8851
 8691TIP3   OH247487   1.532   4.719   2.157  0.0291 -0.5622  0.0760
 8691TIP3    H147488   1.505   4.714   2.248  0.0699 -1.7230  0.0237
 8691TIP3    H247489   1.479   4.654   2.112 -0.7309  0.7224 -0.9169
 8692TIP3   OH247490   0.752   1.364   1.096 -0.2396  0.2628  0.7966
 8692TIP3    H147491   0.725   1.274   1.081  1.7043 -0.4570  1.3912
 8692TIP3    H247492   0.749   1.405   1.010  2.3637 -1.3997 -0.1423
 8693TIP3   OH247493   1.303   0.246  11.537  0.3320 -0.5664 -0.9852
 8693TIP3    H147494   1.219   0.231  11.579  0.0335 -0.5478 -1.5650
 8693TIP3    H247495   1.350   0.163  11.546  0.7753 -0.1631  0.5021
 8694TIP3   OH247496   5.340   6.702   4.515  0.7332 -0.4727  0.2293
 8694TIP3    H147497   5.267   6.690   4.454  0.3886  1.4429  0.2457
 8694TIP3    H247498   5.365   6.613   4.539  1.5349 -1.3049 -3.4356
 8695TIP3   OH247499   3.975   0.828   3.154 -0.6018  0.0128 -0.2301
 8695TIP3    H147500   3.949   0.738   3.135 -0.8129 -0.5059  2.2867
 8695TIP3    H247501   4.042   0.820   3.222  0.1719  1.7147 -0.7554
 8696TIP3   OH247502   6.637   1.304  16.129 -0.0374  0.2846 -0.0754
 8696TIP3    H147503   6.588   1.385  16.114 -0.7495 -0.1804 -0.3163
 8696TIP3    H247504   6.634   1.259  16.044 -0.4384 -0.4104  0.3008
 8697TIP3   OH247505   2.530   1.612   0.735  0.3447 -0.1026  0.3603
 8697TIP3    H147506   2.556   1.558   0.660 -0.3998  0.6080 -0.4270
 8697TIP3    H247507   2.481   1.553   0.792  0.8882 -0.6418  0.2697
 8698TIP3   OH247508   6.106   6.154   3.579  0.4419 -0.1921  0.4875
 8698TIP3    H147509   6.038   6.222   3.577  1.9570  1.3047 -2.4976
 8698TIP3    H247510   6.072   6.085   3.523  2.1416  1.4008 -2.6292
 8699TIP3   OH247511   6.765   3.387   0.578 -0.5720  0.8666 -0.1962
 8699TIP3    H147512   6.682   3.434   0.574 -0.3070  1.2457 -1.5511
 8699TIP3    H247513   6.825   3.448   0.620 -1.0534  0.4474  1.1411
 8700TIP3   OH247514   3.157   0.284   5.360 -0.4209  0.4477 -0.4840
 8700TIP3    H147515   3.190   0.206   5.405 -1.2742  0.9937  1.1240
 8700TIP3    H247516   3.062   0.274   5.361 -0.6767  2.6139  1.8489
 8701TIP3   OH247517   4.607   6.511  15.496  0.1688  0.2809  0.2304
 8701TIP3    H147518   4.645   6.567  15.563 -0.8549  1.7669 -0.3701
 8701TIP3    H247519   4.515   6.500  15.523  0.6322 -2.0938  0.9446
 8702TIP3   OH247520   1.726   3.834  11.378 -0.1343  0.5665 -0.0743
 8702TIP3    H147521   1.786   3.789  11.319  1.2815  2.3009 -0.0198
 8702TIP3    H247522   1.666   3.881  11.319 -0.9554 -0.5595 -0.1311
 8703TIP3   OH247523   2.827   0.084   5.073 -0.1749  0.1958  0.1720
 8703TIP3    H147524   2.866   0.162   5.034  0.5669 -0.5077 -0.5370
 8703TIP3    H247525   2.772   0.047   5.003  1.6941 -1.4456 -0.4829
 8704TIP3   OH247526   1.925   6.037  16.406 -0.6142 -0.1015 -0.4617
 8704TIP3    H147527   1.869   6.030  16.484 -1.0207  0.1713 -0.7327
 8704TIP3    H247528   1.970   6.120  16.417  0.3372 -0.6869  0.1532
 8705TIP3   OH247529   1.395   5.054   0.822 -0.1609  0.3634  0.0054
 8705TIP3    H147530   1.396   5.014   0.908 -0.9558 -1.1442 -0.6736
 8705TIP3    H247531   1.306   5.040   0.790  0.2359  0.5718 -1.2128
 8706TIP3   OH247532   0.720   0.165  12.770 -0.4237 -0.4469 -0.1825
 8706TIP3    H147533   0.661   0.215  12.826 -1.0040 -1.4815  0.1509
 8706TIP3    H247534   0.668   0.089  12.744  0.0614 -0.3068 -1.5926
 8707TIP3   OH247535   5.779   0.402  10.525 -0.6392  0.5268  0.2402
 8707TIP3    H147536   5.871   0.426  10.519 -0.1889 -0.5562  2.4147
 8707TIP3    H247537   5.775   0.313  10.491 -0.9904  0.7652 -0.3560
 8708TIP3   OH247538   4.423   3.116   6.260 -0.6281  0.2525 -0.3746
 8708TIP3    H147539   4.515   3.144   6.256 -0.5688 -0.0124 -1.0130
 8708TIP3    H247540   4.395   3.115   6.168 -0.8469 -1.0319 -0.3039
 8709TIP3   OH247541   4.550   5.715  12.334 -0.2070 -0.4094  0.0355
 8709TIP3    H147542   4.478   5.770  12.364 -1.0370 -0.7498 -1.2806
 8709TIP3    H247543   4.512   5.663  12.263  1.2127 -0.9220 -0.3597
 8710TIP3   OH247544   0.693   3.769   1.113  0.4663 -0.0372 -0.5458
 8710TIP3    H147545   0.608   3.761   1.157  0.6176 -0.7711 -0.3708
 8710TIP3    H247546   0.686   3.849   1.061 -0.1985  0.1084 -0.2419
 8711TIP3   OH247547   2.710   4.327   6.254  0.1963 -0.4389 -0.6172
 8711TIP3    H147548   2.655   4.266   6.205  0.4306 -0.0103 -1.4196
 8711TIP3    H247549   2.797   4.287   6.254  0.2741 -0.2686 -0.8493
 8712TIP3   OH247550   3.325   5.476  16.841 -0.2596 -0.6249  0.0944
 8712TIP3    H147551   3.348   5.511  16.927 -3.5459  0.4904  0.6097
 8712TIP3    H247552   3.346   5.383  16.846  1.0406 -0.2587  1.5631
 8713TIP3   OH247553   1.033   1.566   5.454 -0.0714 -0.5006 -0.5695
 8713TIP3    H147554   0.986   1.528   5.380  1.1107 -0.5532 -1.3099
 8713TIP3    H247555   1.067   1.649   5.421  0.3881 -0.4815 -0.0688
 8714TIP3   OH247556   3.823   4.444   4.068 -0.1183  0.2116 -0.1087
 8714TIP3    H147557   3.813   4.460   4.162  1.1434  1.9561 -0.2485
 8714TIP3    H247558   3.742   4.398   4.042 -0.2661 -0.6999  1.8953
 8715TIP3   OH247559   2.858   4.106  16.323 -0.1245 -0.3386  0.0655
 8715TIP3    H147560   2.935   4.160  16.303 -0.0371 -1.2423 -2.1740
 8715TIP3    H247561   2.880   4.019  16.289 -2.0812 -0.6358 -0.4925
 8716TIP3   OH247562   0.094   0.073  14.486 -0.0422  0.1635  0.4400
 8716TIP3    H147563   0.133   0.026  14.412  0.8753 -0.9144  1.5791
 8716TIP3    H247564   0.071   0.004  14.549  1.6932  1.2185  2.3023
 8717TIP3   OH247565   5.321   3.574   1.379 -0.4308 -0.0327  0.9834
 8717TIP3    H147566   5.313   3.630   1.301 -1.5863 -1.1864  0.2527
 8717TIP3    H247567   5.245   3.597   1.432 -1.1024 -1.1443  0.5164
 8718TIP3   OH247568   4.454   4.858  14.546 -0.2675  0.0746  0.0642
 8718TIP3    H147569   4.365   4.823  14.551 -0.3251  0.1746 -0.2385
 8718TIP3    H247570   4.468   4.873  14.453  0.8821 -2.0718 -0.1345
 8719TIP3   OH247571   5.015   0.384  14.362 -0.0088 -0.0363 -0.1303
 8719TIP3    H147572   5.018   0.298  14.319 -0.0674  0.5058 -1.2192
 8719TIP3    H247573   4.934   0.381  14.414  2.4139 -2.4873  3.7723
 8720TIP3   OH247574   4.806   6.657  16.977  0.4460  0.5192  0.7653
 8720TIP3    H147575   4.745   6.715  17.020 -0.8431  1.6088 -2.4093
 8720TIP3    H247576   4.762   6.572  16.975 -0.7201  1.1481 -0.9327
 8721TIP3   OH247577   1.285   3.253   6.090  0.2709 -0.5965 -0.6981
 8721TIP3    H147578   1.201   3.212   6.114 -0.3325  0.7346 -0.4932
 8721TIP3    H247579   1.285   3.336   6.138  1.8874 -0.7582 -0.3972
 8722TIP3   OH247580   5.456   0.628  10.713  0.4876  0.4237 -0.1315
 8722TIP3    H147581   5.399   0.703  10.700 -0.1438  0.3965  2.2776
 8722TIP3    H247582   5.396   0.554  10.721  1.0619 -0.2093 -1.4827
 8723TIP3   OH247583   4.050   3.659  11.532  0.1001  0.9107 -0.4218
 8723TIP3    H147584   4.074   3.747  11.502  0.1233  0.5930 -1.3557
 8723TIP3    H247585   3.959   3.668  11.563 -0.1367  1.1160 -1.1696
 8724TIP3   OH247586   3.982   0.655   5.142 -0.2072  0.5654  0.4359
 8724TIP3    H147587   4.042   0.723   5.171 -0.3055  1.0027 -0.3631
 8724TIP3    H247588   4.023   0.573   5.169 -0.1881  0.9471  1.5804
 8725TIP3   OH247589   3.038   2.153  13.810  0.6357 -0.3332  0.3959
 8725TIP3    H147590   3.009   2.116  13.727  2.7674 -0.8982 -0.1314
 8725TIP3    H247591   2.988   2.235  13.819  1.2855  0.3648 -2.0481
 8726TIP3   OH247592   0.682   2.731  13.408 -0.2488 -0.1147 -0.1817
 8726TIP3    H147593   0.747   2.783  13.457  0.0969 -0.4395 -0.2895
 8726TIP3    H247594   0.651   2.790  13.340  1.2475 -0.5195 -1.2400
 8727TIP3   OH247595   6.266   1.114   3.432  0.0971  0.2028 -0.1023
 8727TIP3    H147596   6.286   1.080   3.344 -0.4539 -0.7418  0.1267
 8727TIP3    H247597   6.350   1.119   3.476  0.5827  2.1919 -1.2019
 8728TIP3   OH247598   1.064   0.746  17.182 -0.4901 -0.1508  0.1486
 8728TIP3    H147599   0.999   0.677  17.173 -0.3473 -0.2560 -0.0840
 8728TIP3    H247600   1.036   0.796  17.259 -1.3371  0.3516 -0.4831
 8729TIP3   OH247601   0.160   2.110   5.196  1.0429 -0.0603  0.3816
 8729TIP3    H147602   0.219   2.159   5.253  0.3371 -0.1133  1.1717
 8729TIP3    H247603   0.132   2.173   5.129  0.3096  0.5697  1.2632
 8730TIP3   OH247604   3.141   4.212  13.546 -0.3320 -0.4231  0.1014
 8730TIP3    H147605   3.140   4.304  13.572  3.1082 -0.5210  0.7468
 8730TIP3    H247606   3.146   4.215  13.450 -2.6723 -0.0045 -0.0436
 8731TIP3   OH247607   4.535   0.779  14.425 -0.1715  0.2559 -0.2980
 8731TIP3    H147608   4.508   0.799  14.336  0.6954  2.4796 -0.0975
 8731TIP3    H247609   4.535   0.864  14.469  1.3854 -0.5447  1.2726
 8732TIP3   OH247610   5.115   6.433  14.933 -0.2395  0.6872 -0.0105
 8732TIP3    H147611   5.031   6.411  14.973  0.6136  0.9771  2.0460
 8732TIP3    H247612   5.152   6.349  14.906 -0.9627  0.5093 -0.4430
 8733TIP3   OH247613   2.864   6.110   1.353  0.1798 -0.0490  0.3882
 8733TIP3    H147614   2.812   6.190   1.351 -1.7132 -1.2335  0.3693
 8733TIP3    H247615   2.934   6.128   1.416 -0.4730  1.4626  0.6913
 8734TIP3   OH247616   3.793   1.391  14.282 -0.3103 -0.3526  0.1403
 8734TIP3    H147617   3.886   1.409  14.274 -0.5464  0.3975 -1.1846
 8734TIP3    H247618   3.787   1.297  14.295  0.5220 -0.7216 -2.0469
 8735TIP3   OH247619   4.506   0.985  10.922 -0.4024  0.2658  0.2509
 8735TIP3    H147620   4.582   1.037  10.894  0.8424 -1.8053 -0.3524
 8735TIP3    H247621   4.469   0.951  10.840  1.7841 -3.8138  0.8318
 8736TIP3   OH247622   6.443   2.086  14.676  0.3421  0.1208  0.0957
 8736TIP3    H147623   6.536   2.065  14.677  0.2233 -0.4176  1.9174
 8736TIP3    H247624   6.407   2.033  14.605  1.3589  0.0343 -0.3601
 8737TIP3   OH247625   1.991   6.264   2.636 -0.3530  0.2477  0.3434
 8737TIP3    H147626   2.061   6.328   2.632 -0.2645  0.1998  1.0498
 8737TIP3    H247627   1.932   6.288   2.564  0.7430 -0.1476 -0.7048
 8738TIP3   OH247628   0.502   4.961   0.201  0.7155  0.0824  0.4549
 8738TIP3    H147629   0.547   5.045   0.215  2.4346 -0.8110  0.3509
 8738TIP3    H247630   0.451   4.948   0.282  1.5140  0.5662  1.0420
 8739TIP3   OH247631   2.106   6.561   1.142  0.1045  0.5245 -0.1320
 8739TIP3    H147632   2.175   6.503   1.110 -2.5172 -2.7803 -0.0433
 8739TIP3    H247633   2.061   6.590   1.062 -0.4108  0.0761 -0.0046
 8740TIP3   OH247634   2.929   0.645  15.058 -0.1924  0.2505 -0.1975
 8740TIP3    H147635   3.003   0.664  15.116 -0.1560  1.2889 -0.5882
 8740TIP3    H247636   2.865   0.601  15.115  0.8571 -0.9799  0.0622
 8741TIP3   OH247637   0.503   1.534   2.694 -0.8825 -0.0631 -0.3892
 8741TIP3    H147638   0.426   1.587   2.710 -1.0023 -0.3616  0.0250
 8741TIP3    H247639   0.527   1.498   2.780 -1.5552 -1.6972 -0.8558
 8742TIP3   OH247640   5.602   0.416  13.034  0.4199  0.0569  0.4086
 8742TIP3    H147641   5.568   0.499  13.064 -0.1663  0.0196 -0.1304
 8742TIP3    H247642   5.551   0.396  12.955 -1.4098 -2.1807  2.0901
 8743TIP3   OH247643   5.317   6.352  11.079 -0.0146 -0.6717 -0.0948
 8743TIP3    H147644   5.407   6.336  11.051 -0.1880  1.5405 -2.0473
 8743TIP3    H247645   5.311   6.447  11.089 -2.1272 -0.7961  0.0554
 8744TIP3   OH247646   5.565   4.687   0.617 -0.2045  0.3504  0.5051
 8744TIP3    H147647   5.567   4.626   0.691  0.9417  1.3905  1.3533
 8744TIP3    H247648   5.613   4.763   0.648 -0.1417  0.9993 -1.1533
 8745TIP3   OH247649   5.567   3.789   2.456  1.1260  0.6266  0.0930
 8745TIP3    H147650   5.560   3.696   2.438  1.4174  0.6273 -0.0250
 8745TIP3    H247651   5.652   3.799   2.499  1.1737  0.8616 -0.0528
 8746TIP3   OH247652   1.004   6.315  17.065  0.3418 -0.6790  0.3493
 8746TIP3    H147653   1.097   6.293  17.074  0.0410 -1.3625  2.1086
 8746TIP3    H247654   0.984   6.297  16.974  1.6445 -1.7168  0.2475
 8747TIP3   OH247655   4.022   4.510   1.080 -0.1181 -0.0091  0.3566
 8747TIP3    H147656   4.082   4.580   1.053 -0.6472  0.1813 -0.3268
 8747TIP3    H247657   3.960   4.502   1.008 -0.1089 -1.1332  0.4665
 8748TIP3   OH247658   1.179   1.837   0.831 -0.0717  0.1816  0.4713
 8748TIP3    H147659   1.125   1.839   0.752  1.7850  0.1920 -0.8265
 8748TIP3    H247660   1.181   1.745   0.857  1.2443 -0.1966 -0.8860
 8749TIP3   OH247661   0.870   2.306  13.949  0.2523 -0.0006  0.0027
 8749TIP3    H147662   0.855   2.225  13.901 -1.3918 -0.6115  1.4662
 8749TIP3    H247663   0.908   2.278  14.032 -1.5653  0.5949  1.0605
 8750TIP3   OH247664   1.443   0.010  11.138 -0.4074 -0.0434 -0.3237
 8750TIP3    H147665   1.496  -0.020  11.064 -0.5129 -1.6758  0.2435
 8750TIP3    H247666   1.433   0.104  11.124  0.5091 -0.1524 -1.7867
 8751TIP3   OH247667   1.941   6.329   5.154 -0.4415 -0.4915  0.1070
 8751TIP3    H147668   2.010   6.288   5.206 -1.3646 -1.6724  0.4241
 8751TIP3    H247669   1.965   6.311   5.063 -0.7575 -1.6348  0.2402
 8752TIP3   OH247670   2.450   4.156  13.349 -0.2626  0.2619  0.0033
 8752TIP3    H147671   2.386   4.201  13.294 -0.9357 -0.2795  0.3240
 8752TIP3    H247672   2.516   4.123  13.288 -1.3823 -0.9587 -0.5593
 8753TIP3   OH247673   4.811   5.172   4.002 -0.1254  0.9124 -0.0041
 8753TIP3    H147674   4.761   5.199   3.926 -1.5341  1.3386  1.0474
 8753TIP3    H247675   4.861   5.249   4.028  0.4531  0.7285 -0.5630
 8754TIP3   OH247676   2.363   5.418   4.636 -0.3905  0.1939 -0.1113
 8754TIP3    H147677   2.458   5.421   4.646  0.0693  1.0517 -3.9324
 8754TIP3    H247678   2.329   5.470   4.709  2.2223  2.0679 -0.1714
 8755TIP3   OH247679   2.920   5.408  16.447 -0.2967  0.0595  0.4593
 8755TIP3    H147680   2.931   5.495  16.409  0.7205 -0.2453  0.0304
 8755TIP3    H247681   2.826   5.394  16.449 -0.5312  1.7104  1.7867
 8756TIP3   OH247682   6.343   5.214  14.505 -0.6611 -0.0343  0.1169
 8756TIP3    H147683   6.406   5.165  14.453 -1.9013  1.2226 -2.7104
 8756TIP3    H247684   6.259   5.172  14.486 -1.4203  1.7753 -0.6507
 8757TIP3   OH247685   2.495   5.586  11.984 -0.3092  0.3671  0.6361
 8757TIP3    H147686   2.424   5.601  12.046  1.0618  0.3399  2.2399
 8757TIP3    H247687   2.537   5.506  12.014 -1.3018 -1.1999 -1.9489
 8758TIP3   OH247688   6.769   5.073   6.461  0.4814  0.0619 -0.4017
 8758TIP3    H147689   6.773   5.029   6.546  1.0305  0.3882 -0.2620
 8758TIP3    H247690   6.848   5.126   6.457  0.9664 -0.7463 -1.5631
 8759TIP3   OH247691   2.227   1.081   2.844  0.0524  0.0238  0.0524
 8759TIP3    H147692   2.280   1.055   2.768 -0.3501 -0.0294 -0.2130
 8759TIP3    H247693   2.175   1.004   2.865  0.8668 -0.2780  0.9951
 8760TIP3   OH247694   1.187   2.329  10.948 -0.6741 -0.2003 -0.2615
 8760TIP3    H147695   1.263   2.282  10.913 -0.3962 -0.5426  0.7934
 8760TIP3    H247696   1.112   2.277  10.919 -0.4536 -0.4510 -0.3894
 8761TIP3   OH247697   3.448   3.117  14.396  0.1931 -0.8803  0.5089
 8761TIP3    H147698   3.483   3.074  14.475 -0.3613 -2.2158  0.0404
 8761TIP3    H247699   3.357   3.135  14.418  0.1218 -0.9732  0.2862
 8762TIP3   OH247700   2.951   3.883  11.727 -0.7212  0.4071  0.1481
 8762TIP3    H147701   2.989   3.806  11.768  0.1173 -0.6745 -2.5201
 8762TIP3    H247702   2.860   3.884  11.757 -0.1330 -0.3156  1.9849
 8763TIP3   OH247703   3.305   1.689  15.659 -0.6056  0.4140  0.1861
 8763TIP3    H147704   3.219   1.690  15.700 -0.9010  0.7041 -0.4268
 8763TIP3    H247705   3.367   1.691  15.731 -1.0691  4.6681  0.5803
 8764TIP3   OH247706   2.369   2.069  11.589  0.2907 -0.2835  0.5852
 8764TIP3    H147707   2.401   2.157  11.609  0.2548  0.3163 -1.8386
 8764TIP3    H247708   2.274   2.075  11.600  0.4293 -0.4937  2.0462
 8765TIP3   OH247709   0.776   4.024  14.356  0.2494 -0.1366  0.3210
 8765TIP3    H147710   0.729   4.061  14.430  0.5784  0.0881  0.4171
 8765TIP3    H247711   0.712   3.968  14.312 -0.5559  1.3553 -0.4367
 8766TIP3   OH247712   3.851   6.352  11.590 -0.3141 -0.2795 -0.1216
 8766TIP3    H147713   3.767   6.340  11.634  0.6486  1.2391  2.2225
 8766TIP3    H247714   3.891   6.427  11.634  1.6688 -0.0903 -2.1380
 8767TIP3   OH247715   1.074   3.861   5.816 -0.5274  0.3903  0.1451
 8767TIP3    H147716   1.165   3.878   5.792 -0.1222 -1.0011  0.5997
 8767TIP3    H247717   1.077   3.847   5.911 -1.1616  0.0304  0.1135
 8768TIP3   OH247718   4.291   2.189   5.041 -0.7628 -0.3351  0.2225
 8768TIP3    H147719   4.314   2.206   4.950  0.6749 -1.6482  0.3143
 8768TIP3    H247720   4.347   2.115   5.067 -3.5630 -2.2285  1.1201
 8769TIP3   OH247721   1.026   4.208   3.287  0.6960  0.5964  1.1180
 8769TIP3    H147722   0.961   4.242   3.349 -1.3015 -0.7608 -0.1544
 8769TIP3    H247723   1.065   4.133   3.333  0.1383  0.3796  1.2481
 8770TIP3   OH247724   4.500   0.826  13.480 -0.8435 -0.3313 -0.6360
 8770TIP3    H147725   4.563   0.826  13.553 -0.2683 -0.8430 -1.1307
 8770TIP3    H247726   4.497   0.735  13.452 -1.0830 -0.1326 -1.2424
 8771TIP3   OH247727   0.356   0.683   3.505 -0.0166 -0.2668 -0.5092
 8771TIP3    H147728   0.439   0.655   3.544 -0.1187 -0.7235 -0.6171
 8771TIP3    H247729   0.324   0.606   3.459  0.3672  0.4261 -1.9609
 8772TIP3   OH247730   5.363   0.565  11.558  0.1713 -0.4821  0.2365
 8772TIP3    H147731   5.337   0.556  11.466 -1.6463 -0.5446  0.7300
 8772TIP3    H247732   5.406   0.482  11.578 -0.1045 -0.7726 -0.3538
 8773TIP3   OH247733   4.527   0.162   4.167  0.0380  0.0669 -0.4480
 8773TIP3    H147734   4.522   0.226   4.096 -1.5196  0.5164  0.0634
 8773TIP3    H247735   4.460   0.189   4.229  0.3912 -1.1903  0.4979
 8774TIP3   OH247736   5.782   6.484  13.140 -0.1722  0.1799 -0.2026
 8774TIP3    H147737   5.827   6.401  13.152 -0.5757 -0.3685 -2.2827
 8774TIP3    H247738   5.846   6.540  13.095 -0.7745  0.1357 -1.1336
 8775TIP3   OH247739   4.634   1.544   2.658  0.0573 -0.2949 -0.5625
 8775TIP3    H147740   4.631   1.535   2.563 -0.7270 -1.5791 -0.4256
 8775TIP3    H247741   4.564   1.487   2.690  1.2931 -1.0423  0.8592
 8776TIP3   OH247742   1.937   2.666  11.433 -0.6167  0.0030  0.3905
 8776TIP3    H147743   1.890   2.658  11.516  1.6465  2.3042  1.9702
 8776TIP3    H247744   1.935   2.578  11.396 -0.0167 -1.5648  3.8309
 8777TIP3   OH247745   2.466   5.499  15.874  0.4763 -0.2601  0.3559
 8777TIP3    H147746   2.540   5.440  15.857 -1.4752 -2.4099 -0.9037
 8777TIP3    H247747   2.434   5.473  15.960  0.3838 -0.2012  0.3384
 8778TIP3   OH247748   2.112   0.647   3.622 -0.3246  0.7070  0.0492
 8778TIP3    H147749   2.137   0.738   3.605  2.3635  0.4013  2.0444
 8778TIP3    H247750   2.187   0.596   3.593 -1.2882 -0.8116  0.1607
 8779TIP3   OH247751   0.245   2.760   2.786  0.2563 -0.7371 -0.0810
 8779TIP3    H147752   0.236   2.816   2.863 -2.2888  1.0167 -1.5823
 8779TIP3    H247753   0.327   2.790   2.745  0.9046 -0.7458  1.1612
 8780TIP3   OH247754   2.690   6.271   0.150 -0.1723  0.0780 -0.1943
 8780TIP3    H147755   2.720   6.202   0.091 -0.8269  0.6600 -1.2399
 8780TIP3    H247756   2.717   6.352   0.108  3.3488  0.4323  2.5773
 8781TIP3   OH247757   1.034   2.044  16.013  0.2844 -0.1857 -0.2796
 8781TIP3    H147758   1.069   2.083  15.932 -0.5026  0.3152 -0.3867
 8781TIP3    H247759   1.004   1.956  15.986  1.1047 -0.4700 -0.2703
 8782TIP3   OH247760   2.079   1.347   3.788 -0.1670  0.4164  0.9783
 8782TIP3    H147761   2.061   1.434   3.825 -1.2835  0.5769  0.0869
 8782TIP3    H247762   2.147   1.363   3.722 -1.4471  0.8933 -0.2705
 8783TIP3   OH247763   5.205   2.956  13.514  0.3306 -0.7568 -0.2019
 8783TIP3    H147764   5.238   2.935  13.601  0.8717  1.7484  0.2357
 8783TIP3    H247765   5.161   3.040  13.525  0.7546 -0.2152 -2.4420
 8784TIP3   OH247766   4.105   5.201   5.032  0.1275  0.3350  0.4064
 8784TIP3    H147767   4.061   5.271   4.984  0.7192  0.8721  0.6466
 8784TIP3    H247768   4.180   5.178   4.978 -0.3860 -0.5152  0.0470
 8785TIP3   OH247769   3.698   6.075   0.384 -0.0672  0.8448  0.4715
 8785TIP3    H147770   3.773   6.045   0.333  0.0954  2.1453 -0.0805
 8785TIP3    H247771   3.737   6.120   0.459 -0.2826  1.5711  0.1538
 8786TIP3   OH247772   1.389   4.475   5.721 -0.3671 -0.6209 -0.4204
 8786TIP3    H147773   1.440   4.493   5.800 -1.4855 -1.6875  0.5633
 8786TIP3    H247774   1.360   4.384   5.731 -1.7570 -0.2941 -1.3530
 8787TIP3   OH247775   4.118   4.031  12.077 -0.0116  0.5151  0.1224
 8787TIP3    H147776   4.062   3.954  12.076  1.3162 -0.4726 -0.5805
 8787TIP3    H247777   4.075   4.092  12.136 -1.3543 -0.5646  0.2745
 8788TIP3   OH247778   3.868   2.729   6.649 -0.0607  0.0700 -0.0073
 8788TIP3    H147779   3.823   2.728   6.565 -1.2417 -1.9493  0.6243
 8788TIP3    H247780   3.961   2.726   6.627 -0.3460  0.2880 -1.2514
 8789TIP3   OH247781   1.896   4.480  14.310 -0.0193 -0.2335  0.1879
 8789TIP3    H147782   1.979   4.465  14.354 -0.1576  0.7101  0.7959
 8789TIP3    H247783   1.916   4.539  14.238 -0.1535 -0.0615  0.2910
 8790TIP3   OH247784   1.053   5.956   4.677  0.1907  0.0468  0.0768
 8790TIP3    H147785   1.117   5.978   4.744 -1.8175 -0.4015  2.2115
 8790TIP3    H247786   0.993   5.895   4.720 -3.2516  2.5697 -0.9669
 8791TIP3   OH247787   3.322   1.382   1.826  0.6169  0.0902  0.0157
 8791TIP3    H147788   3.249   1.323   1.841  0.7286 -0.0409  0.0484
 8791TIP3    H247789   3.320   1.399   1.731  0.1805  0.5691  0.1069
 8792TIP3   OH247790   3.842   0.126   1.651 -0.6903  0.2554 -0.1810
 8792TIP3    H147791   3.892   0.046   1.669  0.4578  1.2779  1.2304
 8792TIP3    H247792   3.817   0.159   1.737 -1.6612  1.1283 -0.7811
 8793TIP3   OH247793   4.141   0.583   4.811 -0.3086 -0.0438 -0.3654
 8793TIP3    H147794   4.107   0.509   4.762  0.5760  0.0269 -1.1018
 8793TIP3    H247795   4.195   0.543   4.880  0.7048 -0.0782 -1.1675
 8794TIP3   OH247796   2.472   5.384   1.337  0.4695 -0.1343 -0.0330
 8794TIP3    H147797   2.397   5.329   1.360  0.9195 -0.1278  1.4776
 8794TIP3    H247798   2.443   5.473   1.358  1.3878 -0.2685  1.8828
 8795TIP3   OH247799   5.637   6.278   1.324  0.1716 -0.4643  0.1506
 8795TIP3    H147800   5.692   6.300   1.399 -3.0675 -1.4106  2.9281
 8795TIP3    H247801   5.668   6.191   1.296  0.2010 -0.9125  1.5513
 8796TIP3   OH247802   2.261   2.436   5.556 -0.2790 -0.3497  0.4031
 8796TIP3    H147803   2.182   2.399   5.594 -0.8104  0.7196  0.3591
 8796TIP3    H247804   2.295   2.367   5.499  0.9607 -2.2737  3.3807
 8797TIP3   OH247805   2.887   5.611   1.971 -0.1440  0.3155  0.1886
 8797TIP3    H147806   2.802   5.583   1.936 -0.5413  0.5345  0.9712
 8797TIP3    H247807   2.940   5.629   1.893 -1.5481  2.4236 -0.3219
 8798TIP3   OH247808   6.270   3.641   1.180 -0.5563 -0.2720 -0.4096
 8798TIP3    H147809   6.277   3.657   1.086  0.6157  2.0341  0.0524
 8798TIP3    H247810   6.256   3.727   1.219  0.8407 -0.9381  1.6818
 8799TIP3   OH247811   4.472   0.806  10.679  0.4994 -0.0922  0.3218
 8799TIP3    H147812   4.450   0.754  10.601  0.3311 -1.5211  1.3066
 8799TIP3    H247813   4.566   0.818  10.674  0.5443 -0.5207  0.0931
 8800TIP3   OH247814   3.517   1.207  14.076  0.1143 -0.1244  0.1717
 8800TIP3    H147815   3.518   1.222  13.981  1.1387 -4.4666 -0.6172
 8800TIP3    H247816   3.491   1.291  14.113  1.8733  2.3165 -3.8145
 8801TIP3   OH247817   5.777   2.852   2.989 -0.4017  0.0953  0.2709
 8801TIP3    H147818   5.866   2.876   3.017 -0.9399  3.0477 -0.3305
 8801TIP3    H247819   5.783   2.843   2.894 -0.7099  0.2495  0.2350
 8802TIP3   OH247820   4.209   3.608  16.787  0.0968 -0.4140 -0.8282
 8802TIP3    H147821   4.155   3.533  16.763  0.8691 -1.4697  0.6004
 8802TIP3    H247822   4.147   3.672  16.822 -0.6585 -0.0695 -2.7636
 8803TIP3   OH247823   2.242   6.515   5.141 -0.1144 -0.7447  0.2309
 8803TIP3    H147824   2.197   6.446   5.092 -1.1978  0.1081  0.0124
 8803TIP3    H247825   2.314   6.542   5.084  0.5413 -1.9245  0.4684
 8804TIP3   OH247826   1.918   4.537   4.541  0.3401  0.3132  0.3284
 8804TIP3    H147827   1.889   4.581   4.621  1.3301  0.0734  0.8218
 8804TIP3    H247828   2.002   4.577   4.520  0.3117  0.0399 -0.3229
 8805TIP3   OH247829   6.432   5.536  13.056  0.1653 -0.1834 -0.1271
 8805TIP3    H147830   6.416   5.567  12.967 -1.4315  1.0944  0.5851
 8805TIP3    H247831   6.514   5.579  13.082 -0.0124  0.4215 -0.5451
 8806TIP3   OH247832   5.217   1.191  12.214  0.4704 -0.1269 -0.0107
 8806TIP3    H147833   5.178   1.223  12.296 -2.0912 -0.6544 -0.9797
 8806TIP3    H247834   5.252   1.105  12.236 -0.6152 -0.4649  0.4357
 8807TIP3   OH247835   4.282   6.707   1.514  0.4765 -0.2522 -0.2045
 8807TIP3    H147836   4.258   6.677   1.426  2.1465 -0.2624 -0.6791
 8807TIP3    H247837   4.372   6.676   1.525  0.5066  0.3580  1.2434
 8808TIP3   OH247838   5.408   6.703  15.590 -0.4363  0.2442  0.0353
 8808TIP3    H147839   5.432   6.768  15.656  2.5426 -1.4930  0.8000
 8808TIP3    H247840   5.437   6.741  15.507 -0.1156  0.5788  0.2940
 8809TIP3   OH247841   4.077   5.000  16.395 -0.2375  0.2689  0.2628
 8809TIP3    H147842   4.090   4.958  16.311 -0.3874  1.3006 -0.2848
 8809TIP3    H247843   3.986   5.030  16.394 -0.7363 -1.1413  1.4482
 8810TIP3   OH247844   2.309   2.871  11.722 -0.4223  0.2735 -0.0824
 8810TIP3    H147845   2.231   2.878  11.667 -0.4149  0.4004 -0.0770
 8810TIP3    H247846   2.335   2.962  11.738 -1.4227  0.3048  1.5250
 8811TIP3   OH247847   5.367   6.075   6.319 -0.2812 -0.3609  0.0453
 8811TIP3    H147848   5.305   6.141   6.288  1.2987  0.3891 -1.6167
 8811TIP3    H247849   5.430   6.124   6.371  0.2442 -0.7357 -0.2330
 8812TIP3   OH247850   1.017   1.503  14.607  0.3043  0.0196 -1.0371
 8812TIP3    H147851   0.982   1.421  14.643  0.2312  0.5304  0.0755
 8812TIP3    H247852   1.098   1.518  14.656 -0.6383  1.5766  0.0775
 8813TIP3   OH247853   4.701   2.102   4.021  0.9410 -0.0866  0.3180
 8813TIP3    H147854   4.710   2.079   4.114  0.9103 -1.6538 -0.0574
 8813TIP3    H247855   4.607   2.102   4.005  0.8769  1.5143  0.5973
 8814TIP3   OH247856   0.478   2.932  13.197 -0.0334  0.1199 -0.0571
 8814TIP3    H147857   0.567   2.960  13.217 -0.4421  0.1370  1.8376
 8814TIP3    H247858   0.489   2.862  13.133  1.4059 -0.4467  0.7775
 8815TIP3   OH247859   1.875   3.295  15.810  0.2875  0.5676 -0.3857
 8815TIP3    H147860   1.822   3.324  15.885 -0.0501 -0.9595 -0.0122
 8815TIP3    H247861   1.840   3.208  15.789  1.7114  0.1485 -1.0337
 8816TIP3   OH247862   4.355   0.175  15.031  0.1005  0.1815  0.9375
 8816TIP3    H147863   4.359   0.142  14.941  0.6876 -1.2458  1.4815
 8816TIP3    H247864   4.409   0.254  15.029  1.1002 -0.5007  0.2940
 8817TIP3   OH247865   6.389   0.197   3.169 -0.0590  0.2646 -0.0281
 8817TIP3    H147866   6.434   0.259   3.227  0.1570 -0.5653  0.6917
 8817TIP3    H247867   6.297   0.221   3.175 -0.2585 -0.9712  2.0721
 8818TIP3   OH247868   2.939   5.834  16.678 -0.5847  0.1396  0.1930
 8818TIP3    H147869   2.904   5.799  16.596  1.5313  0.0669 -0.7149
 8818TIP3    H247870   3.034   5.824  16.670 -0.1321  2.8976  1.3706
 8819TIP3   OH247871   1.352   0.751   1.882 -0.0679 -0.1333  0.1492
 8819TIP3    H147872   1.369   0.799   1.801  0.7143 -1.5053 -0.5299
 8819TIP3    H247873   1.293   0.680   1.855 -0.0978 -0.3809  0.8572
 8820TIP3   OH247874   3.171   6.514   5.802  0.5389 -0.4146 -0.5135
 8820TIP3    H147875   3.203   6.596   5.839  2.6472 -1.1101 -0.7304
 8820TIP3    H247876   3.076   6.518   5.813  0.5563  2.3303 -1.1187
 8821TIP3   OH247877   3.611   5.768  16.405 -0.2504  0.3285  0.2988
 8821TIP3    H147878   3.593   5.681  16.441 -1.8222  0.1103 -0.9669
 8821TIP3    H247879   3.658   5.751  16.323  0.4955  0.7189  0.6428
 8822TIP3   OH247880   6.070   1.374   2.200 -0.7196  0.5316  0.2658
 8822TIP3    H147881   5.978   1.373   2.176 -0.7363  2.0633  0.2009
 8822TIP3    H247882   6.091   1.283   2.219 -2.2480  0.1716  0.2984
 8823TIP3   OH247883   0.225   2.399   1.787 -0.3976 -0.3667 -0.2603
 8823TIP3    H147884   0.151   2.422   1.731 -0.4072 -0.6148 -0.3548
 8823TIP3    H247885   0.302   2.420   1.733 -0.3199  3.1399  1.1414
 8824TIP3   OH247886   5.873   1.853   6.010 -0.0203 -0.3631 -0.0198
 8824TIP3    H147887   5.967   1.842   5.997  0.1214 -0.6654  1.1885
 8824TIP3    H247888   5.842   1.764   6.028  0.0426  0.2154  3.1392
 8825TIP3   OH247889   4.841   5.489  13.604  0.4299 -0.1521 -0.3271
 8825TIP3    H147890   4.877   5.543  13.674 -1.1504  1.1719 -0.5184
 8825TIP3    H247891   4.859   5.399  13.632  0.7049  0.3922  1.2844
 8826TIP3   OH247892   2.451   5.094   0.720 -0.1572 -0.4107  0.1054
 8826TIP3    H147893   2.427   5.131   0.805  1.8732 -2.7578  1.7517
 8826TIP3    H247894   2.545   5.111   0.712 -0.0845 -1.3169 -1.0934
 8827TIP3   OH247895   2.696   4.088  13.128 -0.0343  0.2156  0.1988
 8827TIP3    H147896   2.621   4.037  13.098  0.8342 -0.6071 -0.6284
 8827TIP3    H247897   2.763   4.074  13.060  0.5287  1.7197  0.4219
 8828TIP3   OH247898   5.157   2.027   0.479  0.3386  0.0849  0.6893
 8828TIP3    H147899   5.209   2.075   0.544  1.4024 -0.7880  0.4954
 8828TIP3    H247900   5.067   2.058   0.493  1.2349  3.4517 -0.6338
 8829TIP3   OH247901   1.103   4.051   0.187 -0.4227  0.2051  0.2090
 8829TIP3    H147902   1.136   4.112   0.121  0.9852 -0.2371  0.4949
 8829TIP3    H247903   1.013   4.079   0.201 -1.0051 -0.1580 -2.4429
 8830TIP3   OH247904   2.431   3.362   2.019 -0.1151 -0.5226 -0.2727
 8830TIP3    H147905   2.521   3.368   1.988 -0.1416 -0.3227 -0.3076
 8830TIP3    H247906   2.432   3.405   2.105  0.2242 -2.1448  0.5547
 8831TIP3   OH247907   5.829   4.965  11.327 -0.1844  0.3463  0.0324
 8831TIP3    H147908   5.839   4.980  11.233  1.7105 -0.4408  0.0761
 8831TIP3    H247909   5.781   4.883  11.333  0.7026 -0.2028 -0.2676
 8832TIP3   OH247910   0.004   4.427  13.518 -0.2668  0.3618 -0.3758
 8832TIP3    H147911  -0.028   4.490  13.582 -0.3046 -0.4416  0.4027
 8832TIP3    H247912  -0.048   4.348  13.533  1.1424 -0.5107  0.0019
 8833TIP3   OH247913   5.618   1.358  14.496 -0.0494  0.0304  0.0003
 8833TIP3    H147914   5.524   1.353  14.477  0.1143 -1.5031 -0.4901
 8833TIP3    H247915   5.640   1.451  14.483 -1.3619  0.2843 -0.5187
 8834TIP3   OH247916   5.700   4.960   2.897  0.4186 -0.3376  0.3616
 8834TIP3    H147917   5.716   4.946   2.804  1.6393 -1.4695  0.7310
 8834TIP3    H247918   5.621   4.909   2.916  0.1799 -0.1208 -0.0385
 8835TIP3   OH247919   1.420   5.830  12.711  0.3349  0.3212  0.5998
 8835TIP3    H147920   1.397   5.740  12.731 -1.5045  0.3666 -1.1380
 8835TIP3    H247921   1.515   5.830  12.702  0.0491 -2.5742 -4.3560
 8836TIP3   OH247922   3.383   0.190   1.289  0.5341 -0.7571  0.2563
 8836TIP3    H147923   3.467   0.148   1.270  0.8855 -0.0218  0.1500
 8836TIP3    H247924   3.355   0.150   1.371  1.7048  0.0138  1.0664
 8837TIP3   OH247925   5.688   0.593   2.208 -0.0745  0.0021 -0.1972
 8837TIP3    H147926   5.755   0.534   2.244  0.4565  0.2741 -0.7471
 8837TIP3    H247927   5.694   0.582   2.114  0.3087  1.2437 -0.3277
 8838TIP3   OH247928   3.623   5.901  16.700  0.1844 -0.0708  0.1545
 8838TIP3    H147929   3.618   5.912  16.795  0.9659 -0.6200  0.2651
 8838TIP3    H247930   3.563   5.967  16.665 -0.9597 -0.6136  1.0579
 8839TIP3   OH247931   4.213   3.803  14.697 -0.2928 -0.3937  0.5317
 8839TIP3    H147932   4.281   3.802  14.630 -1.1200  0.1493 -0.3297
 8839TIP3    H247933   4.216   3.716  14.736 -0.1902 -0.9092 -0.6183
 8840TIP3   OH247934   1.588   4.371  16.673  0.3624  0.6131  0.6394
 8840TIP3    H147935   1.600   4.329  16.588 -1.8539 -0.9303  1.0314
 8840TIP3    H247936   1.611   4.463  16.658 -0.3518  0.4436 -1.7298
 8841TIP3   OH247937   3.967   3.596   2.444  0.2210  0.4654 -0.3993
 8841TIP3    H147938   4.022   3.518   2.444 -0.8524 -0.3009 -0.0420
 8841TIP3    H247939   3.962   3.623   2.536 -1.6525 -0.6607 -0.1514
 8842TIP3   OH247940   4.199   6.710   2.997 -0.2444  0.2569 -0.6738
 8842TIP3    H147941   4.138   6.736   3.066 -0.2128 -0.3875 -0.3991
 8842TIP3    H247942   4.143   6.685   2.923 -0.2899  0.5027 -0.7212
 8843TIP3   OH247943   1.673   0.436  15.020  0.6201  0.0044  0.1440
 8843TIP3    H147944   1.611   0.443  15.093  2.0840 -2.4953  1.7068
 8843TIP3    H247945   1.717   0.521  15.016 -0.2277  0.5066  1.4832
 8844TIP3   OH247946   1.424   3.235  14.001 -0.0622  0.0189  0.3431
 8844TIP3    H147947   1.498   3.263  14.055  0.2307 -0.9165  0.4376
 8844TIP3    H247948   1.431   3.288  13.922  0.4998  0.1895  0.5054
 8845TIP3   OH247949   1.628   1.517  15.170 -0.0127 -0.4627  0.0911
 8845TIP3    H147950   1.551   1.468  15.144 -0.0136 -1.5130  1.9696
 8845TIP3    H247951   1.701   1.455  15.159  0.0288 -0.8123  2.1385
 8846TIP3   OH247952   4.359   5.436   2.717 -0.0868  0.0985  0.3640
 8846TIP3    H147953   4.348   5.496   2.643  0.4496 -3.1630 -2.4730
 8846TIP3    H247954   4.278   5.443   2.766 -1.1260  1.1266 -1.4393
 8847TIP3   OH247955   3.761   3.098   5.476 -0.1515 -0.5029  0.2513
 8847TIP3    H147956   3.671   3.066   5.474  0.0864 -1.1638 -0.0906
 8847TIP3    H247957   3.785   3.107   5.384 -1.0975  3.2254  0.2880
 8848TIP3   OH247958   1.795   1.232   0.214  0.4084 -0.0732 -0.6409
 8848TIP3    H147959   1.708   1.210   0.248  0.9508 -0.7299  0.3615
 8848TIP3    H247960   1.812   1.165   0.148  0.2757 -0.1191 -0.6291
 8849TIP3   OH247961   5.597   0.528   0.035  0.1996 -0.3963  0.1503
 8849TIP3    H147962   5.556   0.600  -0.013  0.2532 -0.0967  0.5508
 8849TIP3    H247963   5.666   0.569   0.086  1.8066 -1.0686 -1.4327
 8850TIP3   OH247964   3.793   2.715   3.395  0.3194  0.2820  0.2150
 8850TIP3    H147965   3.869   2.729   3.340  0.0795  2.1131  0.3291
 8850TIP3    H247966   3.731   2.668   3.339  0.6926  0.7223 -0.5673
 8851TIP3   OH247967   5.289   6.153   1.191  0.3141 -0.7483 -0.1278
 8851TIP3    H147968   5.202   6.115   1.176  0.7592 -1.9302  0.2701
 8851TIP3    H247969   5.345   6.110   1.126  0.6007  0.0642 -0.4291
 8852TIP3   OH247970   5.799   1.866  12.447  0.0584 -0.0101 -1.3119
 8852TIP3    H147971   5.749   1.922  12.508  0.0327 -0.6474 -0.7397
 8852TIP3    H247972   5.749   1.784  12.444  0.9137 -0.5523 -0.9503
 8853TIP3   OH247973   5.526   6.669   3.695 -0.0070  0.1516 -0.3808
 8853TIP3    H147974   5.604   6.717   3.722 -1.6766  1.4961  2.3012
 8853TIP3    H247975   5.493   6.717   3.619 -0.3028  1.8838  0.8010
 8854TIP3   OH247976   1.283   0.975   1.432 -0.0114  0.5470  0.0534
 8854TIP3    H147977   1.363   1.002   1.389  1.8411 -1.1192  2.2674
 8854TIP3    H247978   1.259   0.892   1.390 -1.4975  1.8401 -1.6894
 8855TIP3   OH247979   4.055   2.262   5.941  0.1737 -0.9708  0.5591
 8855TIP3    H147980   4.115   2.283   5.869  0.4489  1.4256  1.4348
 8855TIP3    H247981   3.968   2.264   5.902  0.3812 -0.4398  0.1199
 8856TIP3   OH247982   2.001   2.367   2.155  0.4913  0.0003  0.2102
 8856TIP3    H147983   2.061   2.414   2.213 -0.6356 -0.0918  1.4643
 8856TIP3    H247984   1.972   2.292   2.206 -0.7270  0.0693 -0.3737
 8857TIP3   OH247985   5.461   5.461   2.139 -0.0169  0.0082  0.2337
 8857TIP3    H147986   5.545   5.495   2.170 -0.3608  0.9921  0.1156
 8857TIP3    H247987   5.429   5.406   2.210  1.9014 -2.4475 -0.7210
 8858TIP3   OH247988   1.616   5.105   4.760 -0.2295 -0.4504  0.1604
 8858TIP3    H147989   1.638   5.197   4.744 -0.0833 -0.6786 -0.9913
 8858TIP3    H247990   1.697   5.067   4.794  0.5212 -0.7522 -1.8801
 8859TIP3   OH247991   5.188   1.677  12.235  0.5468  0.3049 -0.0254
 8859TIP3    H147992   5.100   1.663  12.268  1.2042 -3.0054  0.5616
 8859TIP3    H247993   5.176   1.698  12.142 -0.8392 -0.4982 -0.0411
 8860TIP3   OH247994   4.761   4.032  11.611  0.3938  0.3188  0.5544
 8860TIP3    H147995   4.714   4.054  11.692  1.0154  1.1852  0.6865
 8860TIP3    H247996   4.711   3.960  11.573  0.7174 -0.8479  2.2779
 8861TIP3   OH247997   3.673   4.485   2.765  0.6536  0.3345  0.2091
 8861TIP3    H147998   3.755   4.445   2.736  0.2501 -1.1665  1.0841
 8861TIP3    H247999   3.685   4.500   2.859  0.3010  1.0354  0.1441
 8862TIP3   OH248000   5.350   2.626  15.254  0.1098 -0.5117 -0.2818
 8862TIP3    H148001   5.313   2.553  15.204 -1.9080  0.1593  0.1760
 8862TIP3    H248002   5.424   2.656  15.202 -0.6037 -1.2563 -1.7567
 8863TIP3   OH248003   4.851   1.340  16.898 -0.3812  0.3461 -0.2688
 8863TIP3    H148004   4.881   1.321  16.987  0.6543 -0.4007 -0.7694
 8863TIP3    H248005   4.794   1.266  16.875  0.6142 -0.2544 -0.8104
 8864TIP3   OH248006   0.447   1.903   3.164 -0.2976  0.0581 -0.1877
 8864TIP3    H148007   0.470   1.956   3.241 -0.9966  0.9831 -0.6032
 8864TIP3    H248008   0.509   1.830   3.165  0.8969  1.0676  0.2027
 8865TIP3   OH248009   1.122   2.370  13.054  0.0326 -0.1435  0.4507
 8865TIP3    H148010   1.169   2.431  13.111 -1.6583  1.8755 -0.2469
 8865TIP3    H248011   1.165   2.379  12.969 -0.8695  0.8609  0.0930
 8866TIP3   OH248012   1.804   0.076   3.706 -0.4472 -0.0850 -0.2859
 8866TIP3    H148013   1.723   0.122   3.684 -0.6728 -1.5829 -2.8850
 8866TIP3    H248014   1.776  -0.001   3.755 -0.2917  1.1223  1.7326
 8867TIP3   OH248015   0.010   3.189  12.371  0.2510 -0.5413  0.3331
 8867TIP3    H148016  -0.039   3.108  12.384 -1.9223  0.8408  1.0904
 8867TIP3    H248017   0.004   3.206  12.277  0.6854 -1.2202  0.1761
 8868TIP3   OH248018   5.539   5.463  15.115  1.1163  0.5100 -0.0373
 8868TIP3    H148019   5.543   5.474  15.210  0.1634  1.9969 -0.1569
 8868TIP3    H248020   5.558   5.550  15.080 -0.9647  0.5488 -1.1548
 8869TIP3   OH248021   4.392   5.619   0.449  0.4439  0.5580 -0.3284
 8869TIP3    H148022   4.352   5.584   0.529  0.5673 -0.2661 -0.6314
 8869TIP3    H248023   4.471   5.664   0.480  0.9431 -0.4891 -0.0774
 8870TIP3   OH248024   0.939   0.639  11.941 -0.2013 -0.1999  0.5845
 8870TIP3    H148025   0.919   0.549  11.915  1.4821 -0.4452  0.0954
 8870TIP3    H248026   0.992   0.674  11.869 -1.1638  1.3235  0.5782
 8871TIP3   OH248027   2.050   2.366  15.407  0.1853  0.0211  0.7652
 8871TIP3    H148028   2.132   2.405  15.434  0.9612 -0.8064 -0.3291
 8871TIP3    H248029   2.044   2.284  15.457  0.6970 -0.5770 -0.1294
 8872TIP3   OH248030   5.346   6.783  10.909 -0.0975 -0.3341 -0.6991
 8872TIP3    H148031   5.270   6.818  10.954 -0.4259 -1.7339 -0.1518
 8872TIP3    H248032   5.332   6.805  10.817 -0.7201  0.1984 -0.4776
 8873TIP3   OH248033   0.663   2.324  15.596  0.4873  0.6522 -0.0722
 8873TIP3    H148034   0.728   2.294  15.660 -0.1130  0.9752  0.7010
 8873TIP3    H248035   0.699   2.407  15.564  1.3496 -0.0720 -1.0144
 8874TIP3   OH248036   1.933   0.152  15.755  0.3206  0.4188  0.1075
 8874TIP3    H148037   2.027   0.164  15.739  0.3470 -0.4955 -0.4953
 8874TIP3    H248038   1.924   0.059  15.775 -0.3172  0.7128  1.2058
 8875TIP3   OH248039   3.488   3.089   3.849 -0.7499 -0.0479 -0.2509
 8875TIP3    H148040   3.518   3.003   3.819  0.1947  0.5113 -0.9194
 8875TIP3    H248041   3.532   3.151   3.792 -0.1185  0.9609  1.3083
 8876TIP3   OH248042   1.200   1.105  13.370 -0.1759 -0.0151  0.6415
 8876TIP3    H148043   1.276   1.115  13.313  0.1268 -0.7112  0.9187
 8876TIP3    H248044   1.127   1.141  13.319  0.2018 -0.0687  0.0584
 8877TIP3   OH248045   5.975   5.706  11.137  0.2788 -0.0439 -0.4243
 8877TIP3    H148046   6.057   5.721  11.183  0.3894  1.7921 -1.2027
 8877TIP3    H248047   5.971   5.774  11.070 -1.1038 -1.1058 -1.4642
 8878TIP3   OH248048   0.058   4.121  14.903 -0.2681  0.1940 -0.2066
 8878TIP3    H148049   0.008   4.120  14.984  1.3335  0.7172  0.8103
 8878TIP3    H248050   0.048   4.033  14.867 -0.6937 -0.1474  0.7463
 8879TIP3   OH248051   5.205   5.718   1.492 -0.5296 -0.4783  0.2699
 8879TIP3    H148052   5.232   5.802   1.456  2.2400 -1.7038 -0.6310
 8879TIP3    H248053   5.226   5.655   1.424  1.7565 -2.4510  2.7285
 8880TIP3   OH248054   0.971   5.531  11.813  0.7292 -0.2539 -0.0769
 8880TIP3    H148055   1.005   5.442  11.803  1.1813 -0.1815  0.7132
 8880TIP3    H248056   0.880   5.519  11.838  0.6730 -0.4926 -0.4007
 8881TIP3   OH248057   0.327   5.940  11.750  0.6573  0.0238 -0.3885
 8881TIP3    H148058   0.284   5.866  11.706  1.1950 -1.1382  1.0034
 8881TIP3    H248059   0.373   5.986  11.680 -0.6962 -0.2394 -1.4748
 8882TIP3   OH248060   3.639   6.281  12.770  0.8430  0.0302  0.5355
 8882TIP3    H148061   3.730   6.268  12.795  0.5662 -1.7613  0.7009
 8882TIP3    H248062   3.629   6.230  12.689  0.2167  0.9355  0.0296
 8883TIP3   OH248063   0.424   1.920  13.010  0.0749 -0.1550  0.0468
 8883TIP3    H148064   0.494   1.951  12.953 -0.2916  0.1204 -0.2564
 8883TIP3    H248065   0.346   1.922  12.955 -0.0085 -1.3264  0.1132
 8884TIP3   OH248066   1.451   4.856   2.996 -0.4078  0.4903  0.2133
 8884TIP3    H148067   1.467   4.949   3.014 -0.6060  0.3172  1.3231
 8884TIP3    H248068   1.538   4.819   2.982 -0.1756  0.4675  1.6624
 8885TIP3   OH248069   1.085   1.963  13.861  0.1685  0.3346 -0.1917
 8885TIP3    H148070   1.034   1.959  13.780 -0.0236 -0.4377 -0.0372
 8885TIP3    H248071   1.165   1.913  13.841  0.0198 -0.0427  0.1696
 8886TIP3   OH248072   2.992   4.094  17.117 -0.4442  0.1702 -0.2673
 8886TIP3    H148073   2.964   4.181  17.089 -0.3862  0.6589  1.1656
 8886TIP3    H248074   3.063   4.110  17.178  0.5627 -0.9457 -1.1246
 8887TIP3   OH248075   3.158   5.149  13.374  0.3568 -0.2527  0.0520
 8887TIP3    H148076   3.159   5.215  13.305  0.1875  0.7144  0.9488
 8887TIP3    H248077   3.249   5.121  13.381  0.4132 -0.1876 -0.4099
 8888TIP3   OH248078   0.729   5.981  15.552 -0.0313  0.3466  0.0359
 8888TIP3    H148079   0.669   5.907  15.563 -0.0479  0.4640  0.7196
 8888TIP3    H248080   0.674   6.058  15.568  0.0294  0.5018 -0.4961
 8889TIP3   OH248081   1.527   5.524   1.623  0.7069  0.5355 -0.0815
 8889TIP3    H148082   1.509   5.582   1.698 -0.5624 -0.3468  0.3076
 8889TIP3    H248083   1.544   5.584   1.550  2.2151  1.4060  0.9569
 8890TIP3   OH248084   3.569   2.572  16.320  0.6310  0.1100  0.5414
 8890TIP3    H148085   3.522   2.565  16.404 -0.2586  0.4621  0.0786
 8890TIP3    H248086   3.564   2.484  16.283 -0.7035  0.4105 -0.0452
 8891TIP3   OH248087   2.459   0.792  10.576  0.7504 -0.0970 -0.4239
 8891TIP3    H148088   2.470   0.786  10.481  0.6263  2.3837 -0.6180
 8891TIP3    H248089   2.398   0.721  10.597 -0.0660 -0.0103 -2.3497
 8892TIP3   OH248090   3.965   6.025  15.102 -0.1835  0.1987 -0.1864
 8892TIP3    H148091   3.899   6.077  15.055  1.0466  1.1574 -0.9030
 8892TIP3    H248092   3.998   6.085  15.169  1.8801  0.6761 -1.5890
 8893TIP3   OH248093   5.416   2.864   2.043 -0.1938 -0.1530  0.5222
 8893TIP3    H148094   5.336   2.817   2.021  0.3671 -0.6678 -0.4809
 8893TIP3    H248095   5.404   2.952   2.007  0.0964 -0.5361 -0.5353
 8894TIP3   OH248096   5.228   5.675  13.707  0.4868 -0.0004 -0.3392
 8894TIP3    H148097   5.144   5.655  13.748  0.7070 -0.2750 -0.0241
 8894TIP3    H248098   5.252   5.762  13.740  0.2013  0.1923 -0.6349
 8895TIP3   OH248099   5.126   2.498   2.288  0.1716  0.8707 -0.5365
 8895TIP3    H148100   5.179   2.438   2.236 -1.4032 -0.5726 -0.5183
 8895TIP3    H248101   5.042   2.503   2.242  0.6306  3.9600 -1.1526
 8896TIP3   OH248102   1.370   1.834  11.626  0.6039 -0.3664 -0.0473
 8896TIP3    H148103   1.424   1.792  11.692 -1.0091 -2.7776 -0.2118
 8896TIP3    H248104   1.328   1.907  11.672 -1.0714 -2.4404  1.8389
 8897TIP3   OH248105   2.168   6.193  12.698  0.5539 -0.1499 -0.0410
 8897TIP3    H148106   2.152   6.288  12.701  0.3686 -0.1950  0.4684
 8897TIP3    H248107   2.226   6.181  12.622 -0.5388  0.2046 -0.9461
 8898TIP3   OH248108   1.374   4.723   1.538 -0.3378  0.2631  0.8060
 8898TIP3    H148109   1.382   4.805   1.586  1.2109  1.2995 -1.1390
 8898TIP3    H248110   1.443   4.667   1.575  1.2051  1.2436 -0.5202
 8899TIP3   OH248111   2.961   5.095   6.767  0.5088  0.4289 -0.2974
 8899TIP3    H148112   3.054   5.107   6.786  0.6591  0.2868 -0.9646
 8899TIP3    H248113   2.937   5.171   6.714  0.2544  0.4303 -0.1823
 8900TIP3   OH248114   4.069   6.022  13.892  0.4446 -0.7585  0.1316
 8900TIP3    H148115   4.059   5.928  13.907  1.1056 -0.9890 -0.8464
 8900TIP3    H248116   4.119   6.053  13.967 -0.1065 -1.1203  0.6491
 8901TIP3   OH248117   4.484   6.762  13.522 -0.0200  0.0218  0.0576
 8901TIP3    H148118   4.407   6.733  13.473 -0.6916  0.4502  0.8430
 8901TIP3    H248119   4.558   6.727  13.473 -0.7617 -1.8738  0.2358
 8902TIP3   OH248120   2.934   3.866  14.854  0.0603 -0.0190  0.3811
 8902TIP3    H148121   2.933   3.780  14.896  0.0300 -0.8341 -1.2522
 8902TIP3    H248122   2.926   3.848  14.761 -2.8230  1.9060  0.1836
 8903TIP3   OH248123   2.295   4.852   1.421 -0.5482 -0.3624 -0.3972
 8903TIP3    H148124   2.241   4.929   1.437 -2.9906 -2.1008  0.0961
 8903TIP3    H248125   2.376   4.869   1.469  0.2889  3.2345 -2.8846
 8904TIP3   OH248126   6.119   0.893   3.559 -0.5766 -0.4103 -0.4686
 8904TIP3    H148127   6.090   0.937   3.639  0.4417 -1.9483  0.7583
 8904TIP3    H248128   6.209   0.921   3.548 -0.0465 -1.8752  0.1022
 8905TIP3   OH248129   4.227   2.346  11.598  0.4105 -0.3572  0.0594
 8905TIP3    H148130   4.249   2.329  11.690 -3.3804 -1.6564  0.8281
 8905TIP3    H248131   4.222   2.259  11.559 -1.0639  0.0152 -0.5974
 8906TIP3   OH248132   0.670   1.301  11.260 -0.3991  1.0452 -0.0711
 8906TIP3    H148133   0.694   1.208  11.260 -1.6825  0.6886  1.9642
 8906TIP3    H248134   0.660   1.323  11.168  0.8158 -0.5945 -0.6276
 8907TIP3   OH248135   1.416   5.172   1.866 -0.1144 -0.5918  0.4933
 8907TIP3    H148136   1.448   5.099   1.918 -0.2344 -0.0486  1.3312
 8907TIP3    H248137   1.465   5.248   1.897  0.0629 -0.3261 -0.4249
 8908TIP3   OH248138   5.293   2.597   1.190 -0.2116 -0.4725 -0.2579
 8908TIP3    H148139   5.309   2.655   1.265  1.3195  0.1897 -1.0787
 8908TIP3    H248140   5.224   2.537   1.221 -1.2266  1.2297  0.8828
 8909TIP3   OH248141   4.408   5.381  16.332 -0.1265  0.1968 -0.0465
 8909TIP3    H148142   4.450   5.315  16.388 -1.8815 -1.3792 -0.5392
 8909TIP3    H248143   4.479   5.416  16.279  0.7133 -1.9165 -0.3736
 8910TIP3   OH248144   1.130   5.377   4.547 -0.2142 -0.4592  0.0733
 8910TIP3    H148145   1.198   5.441   4.568 -0.6040 -0.6095  1.8799
 8910TIP3    H248146   1.062   5.428   4.503  0.5778 -0.1144 -0.7750
 8911TIP3   OH248147   1.899   0.588   5.963  0.0620  0.4189  0.0350
 8911TIP3    H148148   1.849   0.567   5.884 -0.0096 -2.0132  0.6687
 8911TIP3    H248149   1.990   0.579   5.936  0.1161  1.9011 -0.3434
 8912TIP3   OH248150   3.999   0.914  14.441 -0.6163  0.1045 -0.1842
 8912TIP3    H148151   4.064   0.898  14.373 -0.4761 -0.2237  0.0321
 8912TIP3    H248152   3.987   1.009  14.439  0.6953  0.2978  0.5451
 8913TIP3   OH248153   0.388   5.732   3.111 -0.2107 -0.2326 -0.0864
 8913TIP3    H148154   0.441   5.652   3.110 -0.6724 -0.5545  0.7224
 8913TIP3    H248155   0.450   5.801   3.086  0.3976 -0.7258  0.0241
 8914TIP3   OH248156   1.546   5.134   4.410  0.9848  0.3295  0.0211
 8914TIP3    H148157   1.551   5.219   4.454  0.8656 -0.0886  0.8362
 8914TIP3    H248158   1.622   5.133   4.352  1.3147  0.7502  0.4413
 8915TIP3   OH248159   4.078   2.464  14.148 -0.0370 -0.5883  0.0539
 8915TIP3    H148160   4.156   2.513  14.174  0.2207 -0.5111 -0.8449
 8915TIP3    H248161   4.045   2.427  14.229 -0.7731  1.8521  0.8955
 8916TIP3   OH248162   6.027   0.514   2.063 -0.4926 -0.1117 -0.2269
 8916TIP3    H148163   5.952   0.534   2.006 -0.7029  0.9637  0.4093
 8916TIP3    H248164   5.988   0.490   2.147 -0.1281  2.3866  0.7197
 8917TIP3   OH248165   0.901   5.573   4.960  0.2195  0.0259  0.7285
 8917TIP3    H148166   0.894   5.570   4.865  2.3002  1.5870  0.4858
 8917TIP3    H248167   0.915   5.482   4.986  0.8068 -0.2663 -0.5704
 8918TIP3   OH248168   6.404   4.041   1.927  0.4188  0.3480 -0.0916
 8918TIP3    H148169   6.322   3.996   1.947  0.9861 -0.4492  0.4375
 8918TIP3    H248170   6.451   3.981   1.868  1.4832 -0.0792  1.1708
 8919TIP3   OH248171   3.939   5.592  11.058 -0.6791  0.1948 -0.2185
 8919TIP3    H148172   3.932   5.686  11.040 -0.9205  0.2121 -0.0349
 8919TIP3    H248173   4.006   5.586  11.126  0.6666  0.0802 -1.5472
 8920TIP3   OH248174   1.314   0.787   4.302 -0.0052  0.2433  0.1392
 8920TIP3    H148175   1.329   0.694   4.286 -0.4910 -0.0747  1.4436
 8920TIP3    H248176   1.358   0.805   4.385 -2.1102  0.5495  1.2374
 8921TIP3   OH248177   2.745   2.103   1.219  0.2797 -0.4025 -0.7015
 8921TIP3    H148178   2.835   2.075   1.199  0.0926 -1.1384 -0.5209
 8921TIP3    H248179   2.705   2.115   1.133  0.2547 -1.0428 -0.7834
 8922TIP3   OH248180   6.575   0.533  11.848  0.1759 -0.0402 -0.5946
 8922TIP3    H148181   6.656   0.508  11.891  1.2186 -0.8330 -2.9506
 8922TIP3    H248182   6.519   0.456  11.855 -0.2920  0.3927  0.7296
 8923TIP3   OH248183   2.108   5.584  12.669  0.2953  0.8437  0.0779
 8923TIP3    H148184   2.137   5.515  12.609 -2.7421  1.3171 -2.0051
 8923TIP3    H248185   2.043   5.540  12.725  0.8374  1.1804  0.9742
 8924TIP3   OH248186   6.318   2.844   5.756  0.2619 -0.8475 -0.4061
 8924TIP3    H148187   6.240   2.845   5.812 -0.0458 -2.8045 -0.7654
 8924TIP3    H248188   6.391   2.858   5.816 -0.3069  0.1871  0.0507
 8925TIP3   OH248189   4.794   5.836   2.723  0.3934  0.3283  0.3017
 8925TIP3    H148190   4.795   5.881   2.638 -0.6494 -0.1206  0.0518
 8925TIP3    H248191   4.702   5.820   2.741  0.6221  0.2828  1.4562
 8926TIP3   OH248192   2.040   0.739   0.825 -0.2390  0.1544  0.4663
 8926TIP3    H148193   1.983   0.755   0.900 -2.4030  1.2633 -1.3471
 8926TIP3    H248194   2.004   0.793   0.755  1.1974 -1.4896 -1.6338
 8927TIP3   OH248195   0.601   0.494   0.704 -0.4238 -0.3870  0.1926
 8927TIP3    H148196   0.537   0.437   0.747 -0.1710 -0.1364  0.9086
 8927TIP3    H248197   0.555   0.576   0.689 -0.0805  0.0220  1.3131
 8928TIP3   OH248198   3.271   0.008  11.148 -0.2068 -0.3268  0.6662
 8928TIP3    H148199   3.363  -0.008  11.167  0.0838 -0.0963 -0.5493
 8928TIP3    H248200   3.236  -0.078  11.125 -0.0733 -0.2481  0.1748
 8929TIP3   OH248201   0.645   1.231   4.951  0.4072  0.4653 -0.0350
 8929TIP3    H148202   0.725   1.187   4.923  0.7248  1.4778 -0.7375
 8929TIP3    H248203   0.617   1.280   4.874 -1.5743 -0.8572 -0.1988
 8930TIP3   OH248204   2.067   0.165   5.114 -0.4659  0.7499  0.1676
 8930TIP3    H148205   2.157   0.143   5.137 -0.1172  1.3095 -0.6241
 8930TIP3    H248206   2.021   0.081   5.114  0.8317 -0.0389 -2.7583
 8931TIP3   OH248207   2.990   5.866   6.197  0.3536 -0.7297 -0.3496
 8931TIP3    H148208   2.988   5.838   6.289 -0.0698  1.1623  0.2320
 8931TIP3    H248209   3.082   5.878   6.177  0.3682  0.2184  0.2611
 8932TIP3   OH248210   4.993   0.920  12.261 -0.0616 -0.8627 -0.1303
 8932TIP3    H148211   4.961   0.831  12.279  0.5118 -1.5751 -2.4315
 8932TIP3    H248212   5.010   0.920  12.167  0.8828  1.4012  0.0218
 8933TIP3   OH248213   1.329   2.641  16.166 -0.1737  0.1131  0.3880
 8933TIP3    H148214   1.351   2.717  16.219  0.3513 -0.5979  1.1863
 8933TIP3    H248215   1.397   2.577  16.186 -0.4384 -0.4568 -0.5184
 8934TIP3   OH248216   4.033   2.340  16.706 -0.0734 -0.8072  0.3009
 8934TIP3    H148217   4.056   2.257  16.749 -2.4228 -1.9130 -0.5341
 8934TIP3    H248218   3.943   2.358  16.733  0.5618  1.7759  0.8866
 8935TIP3   OH248219   3.715   0.583  11.402 -0.2527  0.1580  0.0170
 8935TIP3    H148220   3.662   0.624  11.334 -2.4356  0.0769  1.5943
 8935TIP3    H248221   3.761   0.656  11.444 -0.8290  0.5046  0.0522
 8936TIP3   OH248222   6.692   6.383   6.004  0.2242  0.3422 -0.2051
 8936TIP3    H148223   6.656   6.468   5.979 -0.1662  0.3952  0.5475
 8936TIP3    H248224   6.683   6.379   6.099 -0.6364 -0.9431 -0.3218
 8937TIP3   OH248225   1.576   5.371  15.948  0.2444 -0.2261  0.1134
 8937TIP3    H148226   1.652   5.382  16.004  1.2807  1.4507 -1.5897
 8937TIP3    H248227   1.526   5.452  15.958  0.5171  0.1557 -1.4985
 8938TIP3   OH248228   3.726   6.782   5.356  0.3344  0.6718 -0.0852
 8938TIP3    H148229   3.774   6.809   5.278  1.9830  0.3780  0.8098
 8938TIP3    H248230   3.677   6.860   5.383  1.3266  1.3622 -0.2592
 8939TIP3   OH248231   2.259   3.199  16.523 -0.0436 -0.5263 -0.1150
 8939TIP3    H148232   2.222   3.273  16.570  0.6260  0.1846 -0.6931
 8939TIP3    H248233   2.327   3.165  16.581 -0.0018 -0.3711 -0.0742
 8940TIP3   OH248234   1.259   3.250  16.459  0.5205 -0.2426  0.1474
 8940TIP3    H148235   1.234   3.246  16.551  0.1569 -0.1001  0.0548
 8940TIP3    H248236   1.202   3.316  16.421 -1.6347 -2.5742 -0.8686
 8941TIP3   OH248237   2.431   1.808   0.500  0.3009  0.7494  0.0423
 8941TIP3    H148238   2.405   1.892   0.537  0.3471  0.6895  0.2108
 8941TIP3    H248239   2.348   1.766   0.475  0.3590  1.4330 -1.3295
 8942TIP3   OH248240   6.262   5.087  15.721  0.1015  0.2745  0.1252
 8942TIP3    H148241   6.291   5.174  15.749 -0.0992  1.2067 -2.4475
 8942TIP3    H248242   6.299   5.076  15.634  0.6783 -2.5270  0.6774
 8943TIP3   OH248243   3.775   1.214   4.514  0.9208  0.0598 -0.3165
 8943TIP3    H148244   3.771   1.211   4.610  2.1429  0.4002 -0.2497
 8943TIP3    H248245   3.847   1.156   4.491  1.1802  0.6396 -0.9833
 8944TIP3   OH248246   5.802   2.233  15.799 -0.5425  0.7596 -0.3709
 8944TIP3    H148247   5.842   2.318  15.815 -0.7741  0.5990  1.1201
 8944TIP3    H248248   5.872   2.170  15.816 -0.4453  0.6343 -1.2155
 8945TIP3   OH248249   5.014   2.281   5.140  0.4468 -0.4181 -0.0519
 8945TIP3    H148250   5.061   2.318   5.216 -2.1670 -0.4823  1.6554
 8945TIP3    H248251   5.082   2.235   5.090  2.0099 -1.5639  2.9818
 8946TIP3   OH248252   0.603   4.466   2.510  1.1845  0.2039 -0.3977
 8946TIP3    H148253   0.671   4.507   2.457  2.5055 -0.8632  0.4457
 8946TIP3    H248254   0.533   4.446   2.448  1.3374  1.9378 -1.1450
 8947TIP3   OH248255   2.166   3.625   5.476 -0.3700 -0.2546  0.4776
 8947TIP3    H148256   2.211   3.558   5.424 -0.0774 -0.2594  0.7346
 8947TIP3    H248257   2.160   3.701   5.418  0.7962  0.0612  0.7467
 8948TIP3   OH248258   4.100   0.225  14.406  0.8294 -0.1959 -0.1374
 8948TIP3    H148259   4.069   0.260  14.322 -2.8905 -0.2049  1.1450
 8948TIP3    H248260   4.069   0.134  14.407 -0.7593  0.3332  1.9775
 8949TIP3   OH248261   6.723   5.596   3.900 -0.6276 -0.2921  0.5978
 8949TIP3    H148262   6.813   5.614   3.927 -0.6456 -0.6319  0.8956
 8949TIP3    H248263   6.673   5.672   3.930 -0.0961  0.9137 -1.4771
 8950TIP3   OH248264   1.428   2.263  13.238 -0.5389  0.3649 -0.2125
 8950TIP3    H148265   1.434   2.282  13.144  0.6957  1.8636  0.1462
 8950TIP3    H248266   1.335   2.274  13.259 -0.6011  1.3834 -0.9895
 8951TIP3   OH248267   5.714   2.085  14.300  0.1676 -0.4145  0.1577
 8951TIP3    H148268   5.620   2.097  14.308  0.0679 -2.3210  2.8122
 8951TIP3    H248269   5.743   2.155  14.242 -2.5467  1.6494  1.1891
 8952TIP3   OH248270   2.192   6.412  14.629  0.2401  0.7289 -0.2151
 8952TIP3    H148271   2.208   6.346  14.697 -1.8322 -0.3833 -0.7890
 8952TIP3    H248272   2.271   6.409  14.574  0.6789 -0.4154  0.4502
 8953TIP3   OH248273   0.151   5.859  13.325 -0.1695 -0.0658  0.2350
 8953TIP3    H148274   0.064   5.877  13.290 -0.4159 -1.5652  0.0289
 8953TIP3    H248275   0.164   5.765  13.308  1.5064  0.1645  0.2013
 8954TIP3   OH248276   6.311   6.291  11.081 -0.1310 -0.2714  0.2219
 8954TIP3    H148277   6.318   6.202  11.045 -1.9883 -0.2935 -0.1355
 8954TIP3    H248278   6.238   6.330  11.034  0.7514  1.5032  0.3000
 8955TIP3   OH248279   1.414   4.447   6.135  0.5200  0.0890  0.4758
 8955TIP3    H148280   1.500   4.412   6.113  1.1461  1.5306  0.5895
 8955TIP3    H248281   1.412   4.445   6.231 -0.3508 -1.7726  0.4304
 8956TIP3   OH248282   1.851   6.576  16.059  0.1219  0.5226  0.3818
 8956TIP3    H148283   1.934   6.608  16.094  0.0915  0.7586  0.2344
 8956TIP3    H248284   1.842   6.620  15.975 -0.6245  1.2335  0.8296
 8957TIP3   OH248285   6.739   3.910  15.602  0.4090 -0.2773 -0.5402
 8957TIP3    H148286   6.776   3.826  15.576  0.9406  0.0537 -0.8647
 8957TIP3    H248287   6.804   3.975  15.574 -0.3791  0.3042 -1.0587
 8958TIP3   OH248288   0.288   4.122  11.168 -0.2875 -0.6158  0.6889
 8958TIP3    H148289   0.354   4.054  11.156 -2.0058 -1.9347 -1.7777
 8958TIP3    H248290   0.331   4.203  11.141  0.6962 -1.2654  0.2982
 8959TIP3   OH248291   4.540   6.291   0.473  0.1144  0.5822  0.0591
 8959TIP3    H148292   4.489   6.307   0.552 -0.2106 -0.4324  0.0538
 8959TIP3    H248293   4.624   6.334   0.489 -0.4444  1.5484  0.3992
 8960TIP3   OH248294   1.012   1.063   5.245 -0.2335 -0.6735  0.1415
 8960TIP3    H148295   1.030   1.035   5.335  4.5044 -1.2380 -0.8495
 8960TIP3    H248296   0.964   0.990   5.206 -1.1582 -0.9816  1.8159
 8961TIP3   OH248297   6.600   5.818  15.579  0.0578 -0.3225 -0.0412
 8961TIP3    H148298   6.642   5.744  15.535  2.0262  0.4407  0.5059
 8961TIP3    H248299   6.602   5.888  15.513  0.3418 -0.0605  0.2455
 8962TIP3   OH248300   5.112   0.546  13.085 -0.2714  0.1085  0.4583
 8962TIP3    H148301   5.141   0.501  13.005 -0.8668 -0.5257  0.5968
 8962TIP3    H248302   5.167   0.624  13.089 -0.5652  0.4022 -0.8429
 8963TIP3   OH248303   0.804   0.227  12.106  0.5914  0.9562  0.0721
 8963TIP3    H148304   0.731   0.167  12.120  1.5054 -0.0066  0.7821
 8963TIP3    H248305   0.808   0.278  12.187  0.5238  1.2134 -0.0850
 8964TIP3   OH248306   5.184   0.758   5.526 -0.0909  0.3620 -0.3081
 8964TIP3    H148307   5.198   0.780   5.618  0.9504 -1.9619  0.1286
 8964TIP3    H248308   5.246   0.813   5.478  0.8585  0.0551  0.5544
 8965TIP3   OH248309   5.962   3.393  10.983  0.2238 -0.7974 -0.1160
 8965TIP3    H148310   5.913   3.472  10.964  1.1073 -0.4348 -0.9506
 8965TIP3    H248311   5.908   3.322  10.948  0.4575 -0.3702 -1.3643
 8966TIP3   OH248312   3.939   2.209   1.534 -0.1010  1.9876 -0.4251
 8966TIP3    H148313   3.992   2.195   1.455  2.3660 -0.3263  1.5377
 8966TIP3    H248314   3.996   2.260   1.592 -1.1553  2.0443  0.5637
 8967TIP3   OH248315   2.961   2.062  12.248 -0.1541 -0.4486 -0.3244
 8967TIP3    H148316   2.900   1.995  12.279  1.1026 -1.2721  0.4260
 8967TIP3    H248317   3.016   2.016  12.184  1.1132 -0.2973  0.6417
 8968TIP3   OH248318   1.438   5.073  17.094  0.1120 -0.3285  0.5670
 8968TIP3    H148319   1.358   5.080  17.043  0.5698  1.1176 -0.0069
 8968TIP3    H248320   1.438   4.984  17.129 -2.3879  0.0687  1.6707
 8969TIP3   OH248321   5.994   2.381   5.062  0.0332  0.0428  0.1156
 8969TIP3    H148322   5.955   2.463   5.032 -0.7081 -1.0759 -2.1016
 8969TIP3    H248323   6.087   2.401   5.074 -0.1961  1.2748 -0.1092
 8970TIP3   OH248324   4.766   5.529   4.011 -0.2491  0.1293  0.2144
 8970TIP3    H148325   4.858   5.542   4.033  0.0367  2.2701 -2.0688
 8970TIP3    H248326   4.720   5.598   4.059 -0.0026  2.5913 -2.9432
 8971TIP3   OH248327   4.034   1.282  16.443  0.1305  0.4376 -0.1191
 8971TIP3    H148328   4.059   1.195  16.411  0.8613  0.4203  0.4828
 8971TIP3    H248329   3.938   1.277  16.453  0.1889 -0.3713  0.1125
 8972TIP3   OH248330   6.775   2.814  16.979  0.1449  0.0468  0.4034
 8972TIP3    H148331   6.782   2.780  17.069  0.9540  0.3175  0.4521
 8972TIP3    H248332   6.682   2.831  16.967  0.0906  0.4531  1.3670
 8973TIP3   OH248333   4.099   6.749  15.439 -0.3717  0.1011  0.6605
 8973TIP3    H148334   4.126   6.680  15.500  0.2203 -2.5735 -2.4351
 8973TIP3    H248335   4.177   6.765  15.386 -0.2494  3.8718  1.8645
 8974TIP3   OH248336   4.218   0.403  15.977  0.1241 -0.0649 -0.6220
 8974TIP3    H148337   4.294   0.370  15.929  0.1171 -1.8311  0.5320
 8974TIP3    H248338   4.255   0.448  16.053  0.0707  0.5496 -0.9643
 8975TIP3   OH248339   5.888   0.829   3.210  0.2582 -0.0268  0.0688
 8975TIP3    H148340   5.950   0.867   3.148 -0.0683  1.9776  0.9368
 8975TIP3    H248341   5.807   0.817   3.160  0.3778  0.3983 -0.2304
 8976TIP3   OH248342   2.139   5.172   3.081  0.7458  0.1568  0.8073
 8976TIP3    H148343   2.128   5.145   2.990  0.8105 -0.5252  0.9990
 8976TIP3    H248344   2.059   5.223   3.100 -0.5317 -1.9235  1.1586
 8977TIP3   OH248345   1.300   4.489   5.223  0.0983 -0.2051 -0.5160
 8977TIP3    H148346   1.217   4.535   5.214  0.6210  0.5655 -1.5178
 8977TIP3    H248347   1.348   4.511   5.143  1.8502  0.5728  0.7116
 8978TIP3   OH248348   2.230   6.104  16.751  0.9366  0.3376  0.7666
 8978TIP3    H148349   2.161   6.048  16.787 -1.1299  3.1200  1.2719
 8978TIP3    H248350   2.287   6.122  16.825  0.7467  0.1625  0.9570
 8979TIP3   OH248351   4.779   1.721   0.151  0.1193 -0.3169 -0.0044
 8979TIP3    H148352   4.856   1.714   0.095 -0.4396 -0.9033 -0.7080
 8979TIP3    H248353   4.784   1.809   0.189  1.0799 -0.3210 -0.1169
 8980TIP3   OH248354   0.909   1.309   4.313  0.1555  0.4879 -0.2559
 8980TIP3    H148355   0.973   1.238   4.308 -0.9292 -0.5380  0.2548
 8980TIP3    H248356   0.961   1.387   4.333  1.1686 -0.4558  0.8184
 8981TIP3   OH248357   3.916   3.710  15.062 -0.0641 -0.0424  0.5917
 8981TIP3    H148358   3.907   3.630  15.009  0.7190 -0.5574  1.2258
 8981TIP3    H248359   3.979   3.686  15.130 -0.0142  1.0482  0.9264
 8982TIP3   OH248360   3.181   2.116   0.799 -0.3396 -0.7196  0.3330
 8982TIP3    H148361   3.157   2.139   0.889 -0.5773  0.5758 -0.0456
 8982TIP3    H248362   3.276   2.117   0.799 -0.3363 -0.9922  0.6389
 8983TIP3   OH248363   2.122   5.477  11.512 -0.1154 -0.6861 -0.5197
 8983TIP3    H148364   2.088   5.564  11.535  0.6912 -0.4425 -0.2332
 8983TIP3    H248365   2.126   5.477  11.417  2.1632  0.4858 -0.4528
 8984TIP3   OH248366   1.210   1.535   0.420 -0.1620 -0.3482  0.4654
 8984TIP3    H148367   1.219   1.600   0.350 -0.5679 -0.3923  0.3705
 8984TIP3    H248368   1.254   1.574   0.495 -0.3845  0.0327  0.4033
 8985TIP3   OH248369   3.378   4.572  15.128 -0.6095  0.1024  0.4415
 8985TIP3    H148370   3.385   4.652  15.180  2.1906  0.3007 -0.1617
 8985TIP3    H248371   3.407   4.503  15.188 -0.5323 -0.1014  0.1662
 8986TIP3   OH248372   5.171   2.805  13.128  0.1992 -0.3044 -0.7244
 8986TIP3    H148373   5.144   2.714  13.120 -0.7359 -0.0294 -0.7796
 8986TIP3    H248374   5.239   2.805  13.195  1.6334 -1.3374 -2.1437
 8987TIP3   OH248375   6.383   6.252   1.914 -0.2347 -0.0992  0.1620
 8987TIP3    H148376   6.320   6.183   1.893  0.7552 -1.3099  1.0541
 8987TIP3    H248377   6.461   6.204   1.945  0.8386  1.3856 -0.2027
 8988TIP3   OH248378   5.028   1.801   5.004  0.0277  0.4669 -0.2084
 8988TIP3    H148379   5.049   1.707   4.997 -4.4869 -0.7764  1.0940
 8988TIP3    H248380   4.959   1.815   4.938  0.6167  2.8919 -0.3485
 8989TIP3   OH248381   0.455   6.634   2.656  0.1968  0.7265 -0.2671
 8989TIP3    H148382   0.376   6.658   2.607  1.1653  2.1383 -1.1731
 8989TIP3    H248383   0.422   6.609   2.743 -1.2594  1.1449 -0.6833
 8990TIP3   OH248384   1.462   5.437  14.541  0.6513  0.2863  0.9440
 8990TIP3    H148385   1.552   5.468  14.529 -0.0306  2.3363  1.0147
 8990TIP3    H248386   1.442   5.457  14.633  0.6357 -1.5822  1.3731
 8991TIP3   OH248387   6.135   3.910  13.768  0.0166 -0.6074 -0.2395
 8991TIP3    H148388   6.221   3.941  13.739  0.6035 -0.2553  1.8213
 8991TIP3    H248389   6.077   3.984  13.756  0.5330 -0.0416  0.6930
 8992TIP3   OH248390   5.227   6.754  15.120 -0.5746  0.1072 -0.0672
 8992TIP3    H148391   5.135   6.735  15.105 -0.2078 -1.3149 -0.5835
 8992TIP3    H248392   5.230   6.795  15.206 -1.6060 -0.4431  0.2325
 8993TIP3   OH248393   2.889   4.374  13.757 -0.0614  1.1694 -0.5115
 8993TIP3    H148394   2.898   4.348  13.849 -1.4227  2.5961  0.0457
 8993TIP3    H248395   2.975   4.410  13.734  0.6933 -0.4102 -0.2041
 8994TIP3   OH248396   5.704   5.406  12.056 -0.1983 -0.0802 -0.4456
 8994TIP3    H148397   5.620   5.362  12.046  0.4931 -1.5367  0.0152
 8994TIP3    H248398   5.741   5.407  11.967  1.0355 -3.0567 -0.0436
 8995TIP3   OH248399   0.361   0.989   5.458  0.4119 -0.1593 -0.2110
 8995TIP3    H148400   0.341   1.027   5.543  2.3497 -1.0302  0.6522
 8995TIP3    H248401   0.288   0.930   5.440 -0.7935  1.2224  0.0997
 8996TIP3   OH248402   6.036   3.310   4.157  0.1975 -0.3926  0.2789
 8996TIP3    H148403   5.985   3.344   4.230  0.7001  2.3662 -0.5944
 8996TIP3    H248404   6.127   3.316   4.186  0.2653 -1.5582  0.3300
 8997TIP3   OH248405   2.593   0.800   2.892 -0.1976 -0.3312  0.1507
 8997TIP3    H148406   2.593   0.727   2.830  0.1843 -3.1163  3.3142
 8997TIP3    H248407   2.502   0.827   2.897 -0.3932 -0.7818 -0.7969
 8998TIP3   OH248408   6.017   1.506   1.142 -0.6624  0.4674 -0.0397
 8998TIP3    H148409   6.039   1.471   1.056  2.2801 -3.9120  2.3340
 8998TIP3    H248410   5.931   1.469   1.163  0.0894 -1.1165  0.2539
 8999TIP3   OH248411   6.632   3.803  16.648 -0.5504 -0.3370 -0.1947
 8999TIP3    H148412   6.542   3.815  16.680 -0.2484 -0.9186  0.9189
 8999TIP3    H248413   6.622   3.753  16.567 -1.3448  1.2134 -1.0607
 9000TIP3   OH248414   2.989   3.324   1.778  0.5034 -0.2325  0.0827
 9000TIP3    H148415   2.941   3.406   1.783  2.4550  0.9457  0.2052
 9000TIP3    H248416   2.945   3.266   1.840 -1.1640  0.5704 -0.3204
 9001TIP3   OH248417   4.759   4.706   0.550 -0.2780 -0.4851 -0.3932
 9001TIP3    H148418   4.810   4.786   0.564  0.1049 -1.1394  2.3212
 9001TIP3    H248419   4.705   4.724   0.474 -0.0891  2.3005  0.1042
 9002TIP3   OH248420   1.741   0.921  13.474 -0.2926 -0.2458  0.0832
 9002TIP3    H148421   1.818   0.911  13.530  0.1736  0.8939 -0.3280
 9002TIP3    H248422   1.724   1.016  13.473 -0.9379 -0.3642 -0.8343
 9003TIP3   OH248423   0.966   4.565   0.037  0.0164 -0.0493  0.4954
 9003TIP3    H148424   1.060   4.551   0.025 -0.1419 -1.7842  1.0166
 9003TIP3    H248425   0.928   4.548  -0.049  0.2437  1.3652  0.1095
 9004TIP3   OH248426   6.260   3.760  12.111  0.0383 -0.3946  0.1933
 9004TIP3    H148427   6.258   3.689  12.176 -0.2004  0.2886  0.9335
 9004TIP3    H248428   6.328   3.819  12.142  0.1273 -0.2137 -0.3457
 9005TIP3   OH248429   4.614   4.570   6.467  0.1295 -0.2689  0.3140
 9005TIP3    H148430   4.585   4.658   6.491  0.0914  0.1699 -1.3231
 9005TIP3    H248431   4.707   4.580   6.448 -0.4883  0.0164 -2.7186
 9006TIP3   OH248432   5.163   2.270  14.902 -0.5234 -0.3768  0.2491
 9006TIP3    H148433   5.099   2.202  14.923 -0.4715 -0.2452  0.8285
 9006TIP3    H248434   5.248   2.231  14.922 -0.5195  0.0198  1.0403
 9007TIP3   OH248435   6.080   1.477   5.261  0.1072 -0.6646 -0.3437
 9007TIP3    H148436   6.093   1.466   5.356  1.9869  0.3726 -0.4550
 9007TIP3    H248437   6.094   1.570   5.246 -0.6780 -0.7434 -1.5900
 9008TIP3   OH248438   6.018   4.317   6.290 -0.3449 -0.0614  0.3684
 9008TIP3    H148439   6.040   4.365   6.369 -0.5412 -0.0349  0.4074
 9008TIP3    H248440   6.101   4.308   6.243 -0.1448 -0.5061  0.8115
 9009TIP3   OH248441   3.480   0.128   0.925 -0.4025  0.5538  0.6239
 9009TIP3    H148442   3.461   0.058   0.987  0.2452 -2.6642 -2.6215
 9009TIP3    H248443   3.564   0.103   0.886  1.3413  4.7342  1.4281
 9010TIP3   OH248444   5.131   1.181  11.765 -0.1307  0.2641 -0.6177
 9010TIP3    H148445   5.099   1.254  11.711  0.0591  0.5750 -0.3155
 9010TIP3    H248446   5.188   1.223  11.829 -0.6663 -0.0518  0.0690
 9011TIP3   OH248447   2.801   6.595   1.251  0.4348  0.0707 -0.3064
 9011TIP3    H148448   2.748   6.636   1.183 -1.8895 -1.9764  0.1778
 9011TIP3    H248449   2.828   6.667   1.307 -0.1925  1.4017 -1.6891
 9012TIP3   OH248450   1.111   6.240  14.390  0.5306 -0.2475  0.2123
 9012TIP3    H148451   1.062   6.245  14.472  3.7848  0.1738  2.2353
 9012TIP3    H248452   1.080   6.315  14.339 -2.2275 -1.0633  0.6107
 9013TIP3   OH248453   0.391   6.590   1.404  0.1738  0.0731  0.6483
 9013TIP3    H148454   0.478   6.555   1.388  0.3360  0.1322  1.3911
 9013TIP3    H248455   0.361   6.621   1.318  0.0416 -1.8323 -0.0030
 9014TIP3   OH248456   0.250   6.256  11.088 -0.3428 -0.1495 -0.4086
 9014TIP3    H148457   0.182   6.311  11.051  0.8199  1.1340 -0.7058
 9014TIP3    H248458   0.211   6.169  11.094 -2.0530  0.6016 -0.3849
 9015TIP3   OH248459   0.101   4.718   0.305 -0.0012 -0.2745  0.6778
 9015TIP3    H148460   0.118   4.628   0.275  0.5214  0.4454 -1.2000
 9015TIP3    H248461   0.153   4.725   0.386  3.8273 -0.1453 -1.6615
 9016TIP3   OH248462   0.328   5.433   0.627 -0.4987  0.3887 -0.0021
 9016TIP3    H148463   0.342   5.509   0.684  0.8095 -0.9483  1.5055
 9016TIP3    H248464   0.279   5.371   0.681  1.6063 -1.2961  0.0068
 9017TIP3   OH248465   0.432   2.093   1.480  0.1615 -0.2709 -0.0826
 9017TIP3    H148466   0.338   2.085   1.494  0.3177  0.3884  1.4618
 9017TIP3    H248467   0.470   2.030   1.541  0.7923  0.8987  0.7413
 9018TIP3   OH248468   3.503   6.775   4.317  0.1296 -0.1811 -0.4572
 9018TIP3    H148469   3.429   6.793   4.258 -1.0733 -0.6538  0.8670
 9018TIP3    H248470   3.522   6.682   4.304  0.1181 -0.1932 -0.3874
 9019TIP3   OH248471   2.188   2.467  16.275  0.2851 -0.3107 -0.5806
 9019TIP3    H148472   2.176   2.394  16.214 -0.5410  0.1309 -0.9575
 9019TIP3    H248473   2.102   2.479  16.316  0.8177 -0.5536  0.6244
 9020TIP3   OH248474   1.256   5.089  16.229  0.1563  0.5826 -0.2602
 9020TIP3    H148475   1.295   5.002  16.222  0.3136  0.6827 -0.6602
 9020TIP3    H248476   1.201   5.085  16.307 -0.7738 -0.2483 -0.9371
 9021TIP3   OH248477   4.704   2.444   1.956  0.4633 -0.3347 -0.0397
 9021TIP3    H148478   4.645   2.485   1.893 -0.4844 -0.2172  0.8991
 9021TIP3    H248479   4.649   2.430   2.034  2.3305  2.2485  1.8329
 9022TIP3   OH248480   2.346   4.423  14.582  0.0140  0.0068 -0.0691
 9022TIP3    H148481   2.276   4.385  14.636 -0.1870 -1.1237 -1.1123
 9022TIP3    H248482   2.422   4.368  14.600  0.3278  0.5092  0.1546
 9023TIP3   OH248483   5.373   2.448  14.053 -0.2108 -0.3587  0.0689
 9023TIP3    H148484   5.288   2.474  14.089 -0.0252  0.2070  0.1067
 9023TIP3    H248485   5.355   2.430  13.960 -0.6989 -1.8746  0.4511
 9024TIP3   OH248486   4.119   2.863   3.743  0.3461  0.2112 -0.3617
 9024TIP3    H148487   4.086   2.939   3.695  2.2557  1.3135  0.0010
 9024TIP3    H248488   4.100   2.883   3.834 -0.4600 -0.4272 -0.3896
 9025TIP3   OH248489   4.850   6.621  12.461 -0.1643 -0.0140 -0.4374
 9025TIP3    H148490   4.815   6.651  12.545 -2.5350 -2.9591 -0.2707
 9025TIP3    H248491   4.777   6.632  12.400 -0.1392 -2.5498 -0.9790
 9026TIP3   OH248492   4.174   4.386  13.967  0.1347 -0.2125  0.6669
 9026TIP3    H148493   4.208   4.325  13.902  0.8317  0.0233  0.8090
 9026TIP3    H248494   4.251   4.433  13.999 -0.5935  1.8446 -0.5551
 9027TIP3   OH248495   0.477   3.294  13.185  0.6865 -0.2205  0.4351
 9027TIP3    H148496   0.470   3.314  13.278  0.9245  1.7086  0.0576
 9027TIP3    H248497   0.446   3.204  13.177 -0.4183 -0.0070  2.2034
 9028TIP3   OH248498   1.307   4.949   3.373  0.2923  0.0537  0.5253
 9028TIP3    H148499   1.385   4.912   3.331  0.1230  1.5388 -1.1760
 9028TIP3    H248500   1.303   4.907   3.458  1.3796 -2.1187 -0.4670
 9029TIP3   OH248501   0.606   5.933  16.371 -0.1600 -0.1295 -0.0598
 9029TIP3    H148502   0.672   5.896  16.430  1.5954  0.3386 -1.6456
 9029TIP3    H248503   0.561   5.999  16.424  0.3682 -0.7601  1.1955
 9030TIP3   OH248504   5.229   3.002  12.557  0.6329  0.5778 -0.1270
 9030TIP3    H148505   5.219   2.932  12.493 -1.9831 -0.2284  1.0912
 9030TIP3    H248506   5.311   2.982  12.602 -0.4211 -2.0973  0.6653
 9031TIP3   OH248507   4.735   5.618   5.796 -0.1975  0.2365 -0.9094
 9031TIP3    H148508   4.716   5.547   5.858  0.9826  0.0415 -0.7462
 9031TIP3    H248509   4.651   5.638   5.755 -0.7776 -0.4145 -0.0628
 9032TIP3   OH248510   4.646   1.831   3.489 -0.0781  0.2152 -0.0108
 9032TIP3    H148511   4.624   1.920   3.517  1.0688  0.7603 -0.8241
 9032TIP3    H248512   4.689   1.792   3.565  0.9655  0.9298 -0.2263
 9033TIP3   OH248513   6.228   4.958  16.263  0.2130 -0.1691 -0.5789
 9033TIP3    H148514   6.262   5.041  16.296 -1.4686  0.1132  0.5323
 9033TIP3    H248515   6.238   4.964  16.168  3.1456 -0.1019 -0.2940
 9034TIP3   OH248516   1.000   5.783  16.823  0.4220 -0.2019  0.6143
 9034TIP3    H148517   0.911   5.762  16.848  0.2842  1.5793  1.7381
 9034TIP3    H248518   1.017   5.729  16.746 -1.4563 -0.8960  0.6602
 9035TIP3   OH248519   2.898   1.302  16.449 -0.5050  0.3046  0.2813
 9035TIP3    H148520   2.804   1.293  16.437 -0.5539  1.1732 -0.0500
 9035TIP3    H248521   2.909   1.313  16.544 -0.9040  1.8235  0.1723
 9036TIP3   OH248522   4.219   0.126  17.079  0.4474 -0.0613  0.3638
 9036TIP3    H148523   4.264   0.069  17.016  2.8500  2.3146 -0.1074
 9036TIP3    H248524   4.232   0.084  17.164  1.4807 -0.6596 -0.0871
 9037TIP3   OH248525   4.850   2.285  16.340 -0.4504 -0.0879 -0.1946
 9037TIP3    H148526   4.839   2.330  16.423 -0.1722  0.0529 -0.2332
 9037TIP3    H248527   4.781   2.218  16.339 -0.8877  0.3594 -0.1528
 9038TIP3   OH248528   3.601   2.253   3.355  0.2776  0.3023  0.0951
 9038TIP3    H148529   3.566   2.196   3.423  0.7298 -1.1637 -0.8705
 9038TIP3    H248530   3.667   2.305   3.399 -0.6907  0.6330  1.1683
 9039TIP3   OH248531   1.732   5.321   1.106  0.0423  0.8581 -0.4128
 9039TIP3    H148532   1.745   5.281   1.021 -0.9178  0.1445 -0.2334
 9039TIP3    H248533   1.637   5.328   1.115  0.0735 -0.7978  1.3899
 9040TIP3   OH248534   1.020   3.660  16.486  0.5007  0.1223 -0.3057
 9040TIP3    H148535   1.055   3.644  16.574 -0.5534  1.8216  0.4650
 9040TIP3    H248536   0.929   3.687  16.502  0.7525  1.9337 -1.8046
 9041TIP3   OH248537   2.453   6.003   2.616  0.0102  0.0321 -0.1222
 9041TIP3    H148538   2.438   6.094   2.640 -1.5808  0.0515 -1.0835
 9041TIP3    H248539   2.481   5.960   2.697 -1.2413  0.9361  0.8021
 9042TIP3   OH248540   6.312   1.672  14.800 -0.2177  0.1596  0.1792
 9042TIP3    H148541   6.323   1.745  14.861  1.7055 -0.0720  0.1448
 9042TIP3    H248542   6.338   1.708  14.715  0.8885 -0.5823  0.1898
 9043TIP3   OH248543   1.380   3.644  10.949 -0.5357 -0.8840 -0.2165
 9043TIP3    H148544   1.410   3.558  10.921  0.9051 -0.0162 -1.4096
 9043TIP3    H248545   1.347   3.686  10.870  1.2495  0.6445 -0.2006
 9044TIP3   OH248546   3.999   1.301   1.197  0.2247 -0.0957 -0.3205
 9044TIP3    H148547   3.959   1.352   1.268  1.3138  0.3499 -0.0130
 9044TIP3    H248548   3.960   1.214   1.205 -0.4360  0.2383  0.1707
 9045TIP3   OH248549   2.528   1.142   4.737  0.6160 -0.1260  0.0072
 9045TIP3    H148550   2.491   1.139   4.649  0.7648  1.6047 -0.1317
 9045TIP3    H248551   2.454   1.128   4.795  0.1563  0.8426 -0.3392
 9046TIP3   OH248552   6.467   4.514   1.563 -0.8014  0.5029  0.0160
 9046TIP3    H148553   6.527   4.580   1.597 -0.3083  0.4328 -0.7030
 9046TIP3    H248554   6.417   4.560   1.495 -0.7062  0.2329 -0.2390
 9047TIP3   OH248555   5.780   1.638   1.576 -0.1500 -0.2454  0.3346
 9047TIP3    H148556   5.855   1.693   1.598 -0.0773 -0.2127  0.0169
 9047TIP3    H248557   5.805   1.550   1.605  0.1802 -0.3105 -0.1269
 9048TIP3   OH248558   1.639   3.702  15.444 -0.2155  0.2285  0.6447
 9048TIP3    H148559   1.712   3.662  15.397 -2.3660 -0.2723 -2.3802
 9048TIP3    H248560   1.613   3.636  15.509  1.4460  0.0980  1.2136
 9049TIP3   OH248561   6.358   1.516   0.154  0.2565 -0.0562 -0.8605
 9049TIP3    H148562   6.429   1.510   0.090  0.4417  0.9151 -0.7423
 9049TIP3    H248563   6.385   1.584   0.215 -1.0436  0.7209 -1.1346
 9050TIP3   OH248564   4.589   4.123  12.594  0.4367  0.4804  0.2301
 9050TIP3    H148565   4.522   4.063  12.563 -0.3615  0.6712  1.5624
 9050TIP3    H248566   4.611   4.092  12.681  0.5602  1.6596  0.6324
 9051TIP3   OH248567   5.919   4.579  12.443 -0.0651 -0.4938 -0.1649
 9051TIP3    H148568   5.973   4.649  12.479  0.0664 -0.9293  0.4815
 9051TIP3    H248569   5.835   4.587  12.488  0.4414 -1.6969  1.0240
 9052TIP3   OH248570   5.009   4.542  11.427  1.0806  0.9774 -0.3666
 9052TIP3    H148571   4.984   4.552  11.335  2.8202  3.8354 -0.5678
 9052TIP3    H248572   4.979   4.622  11.469  1.5779  0.3121  1.2968
 9053TIP3   OH248573   5.836   1.660  14.965  0.4333 -0.0387 -0.2061
 9053TIP3    H148574   5.895   1.603  14.916  0.1487  0.4294 -1.1182
 9053TIP3    H248575   5.870   1.748  14.950 -0.9847  0.3214 -1.4775
 9054TIP3   OH248576   6.304   2.550  11.945  0.1074 -0.1042  0.1571
 9054TIP3    H148577   6.233   2.487  11.957 -0.4520  0.6581  0.9028
 9054TIP3    H248578   6.334   2.570  12.034  0.5348  0.3950 -0.0965
 9055TIP3   OH248579   4.476   6.786   1.801  0.2448 -0.5848 -0.7490
 9055TIP3    H148580   4.463   6.697   1.767  0.8837 -1.1273  0.3849
 9055TIP3    H248581   4.514   6.773   1.888 -0.8884  0.7656 -0.0160
 9056TIP3   OH248582   5.665   1.163   1.050  0.0135 -0.2469  0.0721
 9056TIP3    H148583   5.596   1.167   0.984  0.6801  0.7257 -0.5715
 9056TIP3    H248584   5.727   1.097   1.017 -0.1074 -0.4102  0.1697
 9057TIP3   OH248585   4.400   1.333  16.660 -0.4263  0.9721  0.1341
 9057TIP3    H148586   4.455   1.403  16.625  0.1347  0.5156  0.0889
 9057TIP3    H248587   4.434   1.318  16.748  0.1421  0.0509 -0.2292
 9058TIP3   OH248588   6.114   2.685  13.680 -0.5167 -0.7154  0.6491
 9058TIP3    H148589   6.103   2.779  13.664 -0.3812 -1.0397 -1.5043
 9058TIP3    H248590   6.169   2.655  13.608  1.2146 -2.0744  2.4860
 9059TIP3   OH248591   4.617   5.165  16.983 -0.4204  0.2301 -0.4334
 9059TIP3    H148592   4.623   5.211  17.066  1.9236  0.5628 -0.7521
 9059TIP3    H248593   4.581   5.230  16.922  2.1631  1.4686 -0.7077
 9060TIP3   OH248594   0.688   4.176   5.883  0.1425  0.6986 -0.4232
 9060TIP3    H148595   0.620   4.242   5.899  2.2327  2.4383  1.6357
 9060TIP3    H248596   0.770   4.226   5.883  1.7503 -1.8516  0.8465
 9061TIP3   OH248597   4.258   5.477   6.431  0.0037  0.1332 -0.1070
 9061TIP3    H148598   4.270   5.445   6.342 -1.4371 -0.0515 -0.2560
 9061TIP3    H248599   4.181   5.534   6.425 -0.2648 -0.0994  1.0750
 9062TIP3   OH248600   4.319   0.009  15.266  0.3849 -0.2587  0.0465
 9062TIP3    H148601   4.329   0.090  15.216 -1.7662  1.0013  1.5688
 9062TIP3    H248602   4.394   0.009  15.326 -0.0609  1.0801  0.6329
 9063TIP3   OH248603   3.674   1.299   1.230 -0.5104 -0.2833 -0.4734
 9063TIP3    H148604   3.581   1.300   1.209 -0.2564  0.1473 -1.5914
 9063TIP3    H248605   3.687   1.216   1.276 -1.2908 -0.7216 -1.0295
 9064TIP3   OH248606   2.115   3.332   5.265 -0.1067  0.0082  0.1849
 9064TIP3    H148607   2.110   3.321   5.360  1.4788  0.7917  0.3819
 9064TIP3    H248608   2.185   3.395   5.252  0.7524 -1.2636 -1.5982
 9065TIP3   OH248609   4.726   3.926  14.309  0.4182 -0.4306 -0.1984
 9065TIP3    H148610   4.756   3.956  14.224 -0.3732 -0.9822 -0.6805
 9065TIP3    H248611   4.630   3.930  14.304  0.2528 -3.3286 -0.4215
 9066TIP3   OH248612   3.566   2.280  16.296 -0.4114 -0.1718 -0.5889
 9066TIP3    H148613   3.491   2.233  16.334  0.6209  0.0108  1.7166
 9066TIP3    H248614   3.637   2.216  16.299 -0.6810 -0.7105 -3.7612
 9067TIP3   OH248615   4.960   0.474  13.308 -0.0151 -0.2571 -0.3578
 9067TIP3    H148616   4.995   0.559  13.334 -0.8612 -0.0209  0.0281
 9067TIP3    H248617   4.959   0.476  13.212  2.4772 -0.8715 -0.4175
 9068TIP3   OH248618   4.102   3.186   2.053  0.1343  0.1537  0.0773
 9068TIP3    H148619   4.019   3.215   2.091  0.1946  0.7569 -0.2431
 9068TIP3    H248620   4.077   3.123   1.985 -0.0350 -0.0060  0.2875
 9069TIP3   OH248621   2.460   2.212   5.516 -0.4895 -0.0801  0.6464
 9069TIP3    H148622   2.431   2.201   5.606 -1.2037 -0.0150  0.4250
 9069TIP3    H248623   2.390   2.173   5.463 -1.7815  3.0550 -0.0529
 9070TIP3   OH248624   2.656   0.893   2.575 -0.0751  0.1553  0.1293
 9070TIP3    H148625   2.671   0.901   2.669  1.0806  1.4379 -0.1572
 9070TIP3    H248626   2.741   0.868   2.539 -0.2920  0.5624 -0.6772
 9071TIP3   OH248627   2.011   6.656   2.154  0.7733  0.2622 -0.1747
 9071TIP3    H148628   1.962   6.592   2.102  0.4857 -0.3298  0.8255
 9071TIP3    H248629   2.002   6.627   2.244  3.1030  0.0535  0.0182
 9072TIP3   OH248630   2.309   2.090   4.100 -0.6223 -0.4200 -0.0904
 9072TIP3    H148631   2.277   2.007   4.065  0.3026 -0.2277 -1.4224
 9072TIP3    H248632   2.253   2.156   4.060 -1.1427 -0.3627  0.7108
 9073TIP3   OH248633   3.453   5.936  15.187 -0.7638  0.7351 -0.2675
 9073TIP3    H148634   3.371   5.892  15.167  0.6654 -1.3992 -1.5592
 9073TIP3    H248635   3.494   5.951  15.102  1.3589 -0.5516  0.4974
 9074TIP3   OH248636   1.886   1.336  15.545 -0.1114 -0.3482  0.2114
 9074TIP3    H148637   1.878   1.413  15.601 -1.6992 -0.0891 -0.3592
 9074TIP3    H248638   1.911   1.370  15.460  1.1911 -0.6497  0.4617
 9075TIP3   OH248639   4.393   6.013   6.146  0.3217  0.0495 -0.0736
 9075TIP3    H148640   4.379   6.103   6.116 -0.3347  0.2894  0.9190
 9075TIP3    H248641   4.319   5.996   6.205  0.2808 -1.2442 -0.4825
 9076TIP3   OH248642   6.380   3.115  16.242  0.4911  0.2182 -0.3473
 9076TIP3    H148643   6.298   3.163  16.256  0.9474  0.9024  0.0329
 9076TIP3    H248644   6.419   3.109  16.329 -0.0320 -1.7287 -0.2276
 9077TIP3   OH248645   3.074   3.333  12.101  0.1583 -0.4068 -0.4986
 9077TIP3    H148646   3.053   3.426  12.106 -0.6020 -0.4850 -1.8575
 9077TIP3    H248647   3.160   3.330  12.060  0.3747 -0.2860 -0.0543
 9078TIP3   OH248648   0.761   4.919   2.564  0.1750 -0.5119 -0.1646
 9078TIP3    H148649   0.727   4.966   2.640  0.0015 -0.3531 -0.3422
 9078TIP3    H248650   0.691   4.923   2.499  0.5944 -0.0404 -0.5921
 9079TIP3   OH248651   5.550   2.874  15.009  0.7044 -0.1620  0.1706
 9079TIP3    H148652   5.558   2.924  15.090 -0.4632  0.2897  0.0081
 9079TIP3    H248653   5.581   2.786  15.032 -2.9640 -1.0613  2.0855
 9080TIP3   OH248654   2.392   5.459  16.411  0.0811 -0.2827  0.1851
 9080TIP3    H148655   2.354   5.419  16.490  0.1088  1.8059  1.2720
 9080TIP3    H248656   2.384   5.553  16.425  0.2537  0.1241 -2.2429
 9081TIP3   OH248657   0.976   5.117   1.469  0.1821  0.3479 -0.1739
 9081TIP3    H148658   0.994   5.026   1.445 -1.3746  0.1761 -0.7999
 9081TIP3    H248659   1.054   5.165   1.443  1.0149 -0.8087  0.1471
 9082TIP3   OH248660   6.607   2.304  15.660  0.2302 -0.1993  0.0138
 9082TIP3    H148661   6.570   2.227  15.703  0.6347 -0.2186  0.3289
 9082TIP3    H248662   6.587   2.291  15.567 -1.7960  0.4801  0.3320
 9083TIP3   OH248663   1.410   5.419  12.771 -0.1731  0.4370  0.0467
 9083TIP3    H148664   1.314   5.421  12.765 -0.1446  1.1459 -0.1910
 9083TIP3    H248665   1.440   5.422  12.680  0.0553 -1.3078  0.0535
 9084TIP3   OH248666   1.386   4.995  13.414  0.0284  0.1251  0.5410
 9084TIP3    H148667   1.329   4.949  13.354  2.8153  0.0458 -2.1845
 9084TIP3    H248668   1.335   5.071  13.444 -1.7920 -0.4381 -1.0713
 9085TIP3   OH248669   3.216   5.599  13.968 -0.1384 -0.4997 -0.2968
 9085TIP3    H148670   3.277   5.636  14.032  0.2687 -2.3936  0.4564
 9085TIP3    H248671   3.130   5.623  14.000  0.1151 -0.2393  0.1916
 9086TIP3   OH248672   3.540   1.630  14.723 -0.0370 -0.0653  0.0913
 9086TIP3    H148673   3.597   1.555  14.707 -0.9864 -1.0742  1.3435
 9086TIP3    H248674   3.592   1.687  14.781  0.0812 -0.5058  0.4183
 9087TIP3   OH248675   1.208   4.988  12.919 -0.6545  1.1050  0.2644
 9087TIP3    H148676   1.192   5.080  12.939 -0.2124  1.0547  0.8716
 9087TIP3    H248677   1.248   4.988  12.833 -1.8048  1.3944 -0.2813
 9088TIP3   OH248678   5.604   5.638   5.018  0.3431  0.0100  0.0234
 9088TIP3    H148679   5.560   5.607   5.097 -1.4548 -1.0103 -1.3546
 9088TIP3    H248680   5.563   5.721   4.998 -1.9912 -1.5713 -2.0241
 9089TIP3   OH248681   3.894   1.657   4.026  0.7290  0.5303 -0.2064
 9089TIP3    H148682   3.953   1.632   3.955  0.7673  1.9161 -0.6639
 9089TIP3    H248683   3.807   1.650   3.988  0.4900 -2.2923  0.6950
 9090TIP3   OH248684   0.906   5.327  14.210  0.1046 -0.7089 -0.1627
 9090TIP3    H148685   0.996   5.309  14.238 -0.2590  0.5051  1.9367
 9090TIP3    H248686   0.903   5.299  14.119  2.5353 -0.9958 -0.1929
 9091TIP3   OH248687   2.320   5.711   3.532 -0.1684  0.4821 -0.0925
 9091TIP3    H148688   2.346   5.720   3.441 -0.3661  0.6849 -0.1287
 9091TIP3    H248689   2.227   5.735   3.533  0.2359  2.0590  0.4352
 9092TIP3   OH248690   1.805   1.364   4.502 -0.0595 -0.0567 -0.5057
 9092TIP3    H148691   1.775   1.277   4.528 -0.2994  0.2189  0.1527
 9092TIP3    H248692   1.743   1.392   4.436  0.0725 -0.4229 -0.7896
 9093TIP3   OH248693   0.461   1.883   3.719 -0.3397 -0.1223 -0.1822
 9093TIP3    H148694   0.534   1.824   3.700  0.2110 -0.0180  1.5649
 9093TIP3    H248695   0.432   1.913   3.633  1.9106  0.1291 -0.8897
 9094TIP3   OH248696   5.667   4.408  12.090  0.6409 -0.1540 -0.7945
 9094TIP3    H148697   5.573   4.417  12.104  0.9303  0.5703  0.8168
 9094TIP3    H248698   5.682   4.314  12.083 -0.4251 -0.2130 -2.9185
 9095TIP3   OH248699   1.537   4.605   0.289  0.2948  0.2687  0.1003
 9095TIP3    H148700   1.577   4.635   0.371 -2.5513  0.4424  1.4860
 9095TIP3    H248701   1.443   4.613   0.304 -0.3127 -1.0629 -2.6951
 9096TIP3   OH248702   3.764   1.672  16.188 -0.1069 -0.5884  0.1845
 9096TIP3    H148703   3.680   1.625  16.187 -0.7034  0.4592 -0.4575
 9096TIP3    H248704   3.790   1.675  16.096  0.2182 -0.1760  0.2940
 9097TIP3   OH248705   5.298   3.519  12.924  0.1087  0.2575  0.0099
 9097TIP3    H148706   5.285   3.601  12.971  0.3967  0.6149 -0.5295
 9097TIP3    H248707   5.276   3.451  12.988 -2.0582  0.7855 -0.1364
 9098TIP3   OH248708   3.755   0.482  14.638  0.2905  0.3042  0.2567
 9098TIP3    H148709   3.705   0.504  14.560  0.1078 -0.6106  0.1161
 9098TIP3    H248710   3.691   0.488  14.710  0.3677  0.7523  0.2937
 9099TIP3   OH248711   0.607   6.557  12.237  0.3792 -0.2851  0.2630
 9099TIP3    H148712   0.604   6.557  12.333 -2.0236  0.8953  0.2006
 9099TIP3    H248713   0.595   6.648  12.212  0.7194 -0.6194 -1.1809
 9100TIP3   OH248714   4.669   1.039   3.781 -0.5580  0.3068  0.1637
 9100TIP3    H148715   4.585   1.078   3.805  0.0630  1.2430  0.8141
 9100TIP3    H248716   4.651   0.994   3.698 -1.6699  0.5920  0.2372
 9101TIP3   OH248717   5.355   5.142   6.306  0.1231  0.3090  0.2494
 9101TIP3    H148718   5.312   5.056   6.310  2.8504 -1.2818 -2.5017
 9101TIP3    H248719   5.403   5.148   6.389 -1.0257 -0.2783  0.9743
 9102TIP3   OH248720   4.634   2.242   2.999  0.2145  0.4470  0.2514
 9102TIP3    H148721   4.556   2.259   3.051  0.1121 -1.5187  0.7840
 9102TIP3    H248722   4.707   2.245   3.062  0.2332 -0.6228  0.2932
 9103TIP3   OH248723   5.748   6.358   5.420 -0.2677 -0.1758  0.6215
 9103TIP3    H148724   5.831   6.381   5.379 -1.0489 -0.2724 -1.0546
 9103TIP3    H248725   5.772   6.298   5.490  1.1898  0.8141  0.9916
 9104TIP3   OH248726   6.265   6.084  11.598 -0.1922 -0.2034  0.4524
 9104TIP3    H148727   6.293   6.099  11.508  1.6877  1.4120  1.2736
 9104TIP3    H248728   6.217   6.164  11.621  1.0088  0.2363  1.4940
 9105TIP3   OH248729   2.895   4.928  12.736  0.3778  0.0005  0.2752
 9105TIP3    H148730   2.956   4.917  12.663 -0.3218  2.4239 -0.7307
 9105TIP3    H248731   2.951   4.956  12.809  0.6590  0.7989 -0.2410
 9106TIP3   OH248732   0.089   0.414  15.807  0.3115 -0.4461 -0.1694
 9106TIP3    H148733   0.036   0.334  15.809  0.6288 -0.6344  0.8589
 9106TIP3    H248734   0.083   0.444  15.717 -2.1357 -0.0809  0.0701
 9107TIP3   OH248735   1.595   3.382  17.094  0.4499  0.7470  0.3534
 9107TIP3    H148736   1.621   3.468  17.126  2.6375  0.0344  0.5305
 9107TIP3    H248737   1.676   3.332  17.088 -0.7657 -1.2741  0.1152
 9108TIP3   OH248738   2.577   3.887  16.737  0.1923  0.1884  0.4718
 9108TIP3    H148739   2.560   3.892  16.831 -0.8335 -1.0186  0.3607
 9108TIP3    H248740   2.672   3.898  16.730  0.1377  1.5428  1.5387
 9109TIP3   OH248741   1.855   4.115   5.935 -0.0920  0.1298  0.0766
 9109TIP3    H148742   1.876   4.207   5.917 -4.4542  0.8207 -2.3493
 9109TIP3    H248743   1.927   4.066   5.894  0.4228  2.3966 -1.8952
 9110TIP3   OH248744   5.809   4.955   5.335 -0.3049  0.4635 -0.1784
 9110TIP3    H148745   5.869   5.028   5.352  1.0963 -1.2598  2.6732
 9110TIP3    H248746   5.733   4.973   5.391  1.1585 -1.5346  2.5021
 9111TIP3   OH248747   1.328   2.844   2.052 -0.1084 -0.2583 -0.8425
 9111TIP3    H148748   1.269   2.771   2.037  1.1940 -1.7559  1.0648
 9111TIP3    H248749   1.415   2.810   2.029  0.6331  0.3577  0.9242
 9112TIP3   OH248750   5.599   5.393  13.541 -0.4104  0.5229  0.2375
 9112TIP3    H148751   5.577   5.314  13.591 -0.4655 -0.0906 -0.7474
 9112TIP3    H248752   5.690   5.381  13.516 -0.6966  0.3538 -0.7082
 9113TIP3   OH248753   3.326   3.249   5.156 -0.2987  0.6131  0.5920
 9113TIP3    H148754   3.248   3.276   5.109  0.8323  1.7822 -0.6729
 9113TIP3    H248755   3.395   3.307   5.123  1.6067 -1.9085 -0.0665
 9114TIP3   OH248756   0.746   3.838  14.695  0.7626  0.0725 -0.4336
 9114TIP3    H148757   0.765   3.797  14.610  2.4813 -0.4662  0.1996
 9114TIP3    H248758   0.650   3.839  14.699  0.6678 -1.4251 -1.6432
 9115TIP3   OH248759   4.015   1.075  14.191 -0.1549  0.4920  0.5140
 9115TIP3    H148760   4.063   1.074  14.109 -1.0176  0.9047 -0.0107
 9115TIP3    H248761   3.953   1.002  14.184  0.1968  0.1411  1.0589
 9116TIP3   OH248762   2.125   6.103  12.055 -0.1895 -0.5610  0.2015
 9116TIP3    H148763   2.055   6.072  12.113 -0.6680 -1.8729 -1.0527
 9116TIP3    H248764   2.085   6.108  11.969  1.4240 -1.9980 -0.6716
 9117TIP3   OH248765   2.086   0.480  12.693  0.3096  0.7801 -0.4607
 9117TIP3    H148766   2.000   0.519  12.710 -0.6233 -1.6775  0.6689
 9117TIP3    H248767   2.127   0.474  12.780  0.1686 -1.3068 -0.5214
 9118TIP3   OH248768   3.097   2.474   1.157  0.2895  0.1908 -0.4908
 9118TIP3    H148769   3.070   2.564   1.174 -0.4361  0.1436 -1.3693
 9118TIP3    H248770   3.160   2.480   1.086  0.8041  0.0712 -0.0482
 9119TIP3   OH248771   4.217   2.071   6.596 -0.2409  0.3558  0.0416
 9119TIP3    H148772   4.257   2.051   6.680  0.1844 -0.0006 -0.2403
 9119TIP3    H248773   4.135   2.116   6.618  0.8507  2.1068  0.6115
 9120TIP3   OH248774   4.345   2.726  15.566  0.1430 -0.0576 -0.4577
 9120TIP3    H148775   4.439   2.707  15.577  0.0653  0.7619  2.1972
 9120TIP3    H248776   4.301   2.645  15.594  0.0319  0.1953  0.1047
 9121TIP3   OH248777   1.515   4.014  14.506  0.0420 -0.0082  0.2824
 9121TIP3    H148778   1.511   4.108  14.489 -3.4435  0.0890  1.2745
 9121TIP3    H248779   1.456   4.000  14.580  0.2897 -3.0121 -0.0111
 9122TIP3   OH248780   1.406   6.476   4.577  0.2545 -0.0145 -0.5240
 9122TIP3    H148781   1.395   6.498   4.670  0.7119  0.3311 -0.5544
 9122TIP3    H248782   1.373   6.386   4.571 -1.1027  0.4521 -0.3050
 9123TIP3   OH248783   0.323   2.770   4.280 -0.0162 -0.0891 -0.5070
 9123TIP3    H148784   0.376   2.809   4.350 -1.0913 -1.7370  1.2890
 9123TIP3    H248785   0.325   2.676   4.299 -2.6708 -0.2876 -1.0274
 9124TIP3   OH248786   4.609   0.968   0.075 -0.4898  0.2146 -0.1114
 9124TIP3    H148787   4.545   1.039   0.068 -0.5628  0.1667  0.0742
 9124TIP3    H248788   4.590   0.927   0.160  1.0714  1.4592  0.8648
 9125TIP3   OH248789   2.468   5.297   4.040 -0.2457 -0.4707  0.2857
 9125TIP3    H148790   2.559   5.288   4.068 -0.2743  0.2119  0.6109
 9125TIP3    H248791   2.467   5.376   3.987 -0.4729 -0.9798 -0.4708
 9126TIP3   OH248792   2.610   6.281   3.148 -0.4964  0.3978 -0.5763
 9126TIP3    H148793   2.611   6.334   3.068 -1.3944  0.6980 -0.3872
 9126TIP3    H248794   2.547   6.325   3.205 -1.2939 -0.9155 -0.4343
 9127TIP3   OH248795   2.436   2.305   6.196 -0.6604 -0.3249  0.5678
 9127TIP3    H148796   2.342   2.303   6.178 -0.7754 -1.3541  1.2118
 9127TIP3    H248797   2.477   2.281   6.113 -0.7585  4.1008 -0.8873
 9128TIP3   OH248798   0.894   5.224   2.498  0.2818  0.3049 -0.0401
 9128TIP3    H148799   0.846   5.144   2.522  1.7053 -1.1441 -1.8147
 9128TIP3    H248800   0.860   5.246   2.411  0.1642  1.4422  0.2906
 9129TIP3   OH248801   0.891   5.481   2.607  0.7478 -0.1943 -0.4286
 9129TIP3    H148802   0.854   5.394   2.597  1.5592 -0.3638 -2.2427
 9129TIP3    H248803   0.974   5.478   2.559  0.1343  1.9729 -1.7198
 9130TIP3   OH248804   5.757   2.531   4.500  0.6799 -0.0982  0.0469
 9130TIP3    H148805   5.777   2.512   4.591 -1.7104 -1.6848  0.2745
 9130TIP3    H248806   5.811   2.470   4.450  0.1588 -0.9415  0.4983
 9131TIP3   OH248807   3.802   6.055  11.205  0.5712  0.6237  0.1417
 9131TIP3    H148808   3.820   6.133  11.258 -0.1520  0.9975 -0.1580
 9131TIP3    H248809   3.831   6.078  11.117  0.5055  0.4968  0.0869
 9132TIP3   OH248810   2.868   4.923   4.469  0.5517 -0.0797 -0.4001
 9132TIP3    H148811   2.948   4.939   4.420 -0.2578 -1.1029 -2.1036
 9132TIP3    H248812   2.803   4.982   4.430  0.8376  1.9140  2.0241
 9133TIP3   OH248813   2.411   1.021  10.691 -0.7902  0.0255  0.2451
 9133TIP3    H148814   2.411   0.942  10.636  3.5216  0.2524 -0.1985
 9133TIP3    H248815   2.342   1.004  10.755 -2.4686 -2.4846 -2.0626
 9134TIP3   OH248816   1.676   2.358   4.955  0.2185  0.3613  0.4882
 9134TIP3    H148817   1.712   2.310   4.881 -1.9050 -0.2970 -0.1606
 9134TIP3    H248818   1.740   2.427   4.972  0.4662  0.9176 -2.3747
 9135TIP3   OH248819   4.431   1.173  12.584  0.1502  0.2884 -0.1279
 9135TIP3    H148820   4.345   1.135  12.570 -0.4972  1.4670  0.6005
 9135TIP3    H248821   4.487   1.098  12.605 -0.3618 -0.6605 -2.0262
 9136TIP3   OH248822   6.730   0.152  16.041  0.3858 -0.9240  1.2063
 9136TIP3    H148823   6.699   0.131  15.953  1.5573 -3.8607  1.4473
 9136TIP3    H248824   6.651   0.169  16.091 -0.2591  1.8370 -0.6233
 9137TIP3   OH248825   0.474   0.170   1.575 -0.1731  0.2226 -0.5835
 9137TIP3    H148826   0.564   0.139   1.564  0.0020  0.6011 -0.2435
 9137TIP3    H248827   0.481   0.265   1.574 -0.6193  0.2560 -0.9252
 9138TIP3   OH248828   4.460   2.114   0.094 -0.4074 -0.2840 -0.6161
 9138TIP3    H148829   4.457   2.024   0.062 -1.4783 -0.1567 -0.8927
 9138TIP3    H248830   4.552   2.139   0.089 -0.1585 -1.2529 -0.8445
 9139TIP3   OH248831   3.996   1.394  13.411  0.4530 -0.0990 -0.3119
 9139TIP3    H148832   4.075   1.340  13.415 -0.1712 -1.1508 -1.8138
 9139TIP3    H248833   3.926   1.333  13.388 -0.7041  0.9199  0.4522
 9140TIP3   OH248834   3.829   3.126   0.116 -0.5146  0.3024 -0.1392
 9140TIP3    H148835   3.870   3.202   0.157  0.2821 -0.4239  0.4262
 9140TIP3    H248836   3.877   3.112   0.035 -0.2966  0.0656  0.0296
 9141TIP3   OH248837   0.630   1.446   5.796  0.5187  0.0076  0.0642
 9141TIP3    H148838   0.647   1.504   5.870  0.4056 -1.4756  1.2832
 9141TIP3    H248839   0.554   1.394   5.824  1.1724 -1.3409 -0.6151
 9142TIP3   OH248840   5.304   0.236  11.334  0.1944 -0.0754  0.3675
 9142TIP3    H148841   5.301   0.331  11.344 -0.5589 -0.1279  0.6843
 9142TIP3    H248842   5.255   0.219  11.253 -0.9508 -0.3110  1.1113
 9143TIP3   OH248843   5.143   3.236   5.129  0.3931  0.5106  0.0950
 9143TIP3    H148844   5.049   3.235   5.146  0.2357  0.5131 -0.7733
 9143TIP3    H248845   5.161   3.156   5.080  1.0038  0.0361  1.0724
 9144TIP3   OH248846   4.154   6.027   3.268 -0.6719  0.2238  0.1496
 9144TIP3    H148847   4.212   5.989   3.202  1.1012  0.8668  1.2832
 9144TIP3    H248848   4.154   6.120   3.249  1.3611  0.6751  2.1342
 9145TIP3   OH248849   5.876   3.451  11.951  0.1191  0.6100 -0.1928
 9145TIP3    H148850   5.803   3.477  11.895 -1.0671 -0.7435  0.6728
 9145TIP3    H248851   5.889   3.526  12.009  0.3768  1.4282 -1.2889
 9146TIP3   OH248852   1.447   1.036  11.305  0.3054  0.3892  0.0767
 9146TIP3    H148853   1.448   0.969  11.237  0.5133 -2.3499  2.6422
 9146TIP3    H248854   1.540   1.054  11.322  0.2420  2.1204 -1.3080
 9147TIP3   OH248855   4.436   2.772  15.846 -0.0347 -0.1509 -0.4839
 9147TIP3    H148856   4.506   2.708  15.840 -1.8351 -2.2507  0.2706
 9147TIP3    H248857   4.463   2.832  15.916  0.5728 -1.5176  0.4695
 9148TIP3   OH248858   2.824   4.910   0.190  0.6691  0.3019 -0.1309
 9148TIP3    H148859   2.748   4.968   0.196  0.9360  0.8261 -1.4897
 9148TIP3    H248860   2.899   4.970   0.193  1.0192 -0.1683  0.6614
 9149TIP3   OH248861   2.760   4.251   5.457 -0.3363  0.8682 -0.1508
 9149TIP3    H148862   2.685   4.258   5.397  0.3128  1.6452 -0.8710
 9149TIP3    H248863   2.724   4.205   5.533 -0.7790 -1.5605 -1.7772
 9150TIP3   OH248864   0.048   5.737  16.312 -0.6868 -0.4862 -0.2924
 9150TIP3    H148865   0.062   5.643  16.301 -1.4360 -0.6661  0.2835
 9150TIP3    H248866   0.058   5.751  16.406  0.5121  0.1942 -0.5081
 9151TIP3   OH248867   4.913   6.473  14.262 -0.0064  0.0507 -0.6885
 9151TIP3    H148868   4.825   6.472  14.225 -0.0301  0.3447 -0.6381
 9151TIP3    H248869   4.907   6.530  14.339 -0.1576 -1.2370  0.2743
 9152TIP3   OH248870   1.317   6.351   5.946  0.3277 -0.1073 -0.3990
 9152TIP3    H148871   1.396   6.298   5.938  1.2512  1.1864 -0.0978
 9152TIP3    H248872   1.286   6.335   6.035  0.4925 -0.3062 -0.3773
 9153TIP3   OH248873   5.534   4.077  15.169 -0.0768  0.1150 -0.1954
 9153TIP3    H148874   5.447   4.088  15.208 -0.3596 -1.6317 -0.2967
 9153TIP3    H248875   5.583   4.155  15.198 -1.4003  0.6904  0.5725
 9154TIP3   OH248876   0.602   5.295   5.012  0.4463  0.5405  0.1987
 9154TIP3    H148877   0.588   5.352   5.087 -0.7938  1.0865 -0.4425
 9154TIP3    H248878   0.606   5.354   4.937  1.8044  0.0084 -0.1707
 9155TIP3   OH248879   1.385   3.204  14.443  0.2028  0.2660 -0.3787
 9155TIP3    H148880   1.364   3.268  14.511  2.6933  0.2981  0.4387
 9155TIP3    H248881   1.406   3.257  14.366  0.2325  0.3506 -0.3124
 9156TIP3   OH248882   4.670   2.106  11.022 -0.5185  0.4214 -0.1827
 9156TIP3    H148883   4.700   2.197  11.025 -2.1817  1.0331 -1.2499
 9156TIP3    H248884   4.749   2.055  11.004  0.3346  1.7110 -0.1192
 9157TIP3   OH248885   5.654   6.516  15.077  0.4561 -0.6567 -0.6687
 9157TIP3    H148886   5.683   6.566  15.153 -0.9207 -0.1545 -0.4537
 9157TIP3    H248887   5.723   6.451  15.062  0.6699 -0.8384  1.0805
 9158TIP3   OH248888   6.229   2.504  14.754  0.2926 -0.1502 -0.4350
 9158TIP3    H148889   6.190   2.452  14.824  0.6505  0.1908  0.0233
 9158TIP3    H248890   6.270   2.440  14.696 -1.2741 -0.5439 -1.1373
 9159TIP3   OH248891   0.734   2.517  12.852 -0.2017 -0.2174 -0.0274
 9159TIP3    H148892   0.717   2.425  12.870  0.3878 -0.3151  0.0330
 9159TIP3    H248893   0.781   2.517  12.769 -1.1729  0.1038 -0.5871
 9160TIP3   OH248894   4.727   1.012  13.614 -0.0438 -0.0180 -0.0466
 9160TIP3    H148895   4.769   0.966  13.687  0.7803 -1.7559 -1.5483
 9160TIP3    H248896   4.780   1.090  13.601  1.5782 -1.1726 -0.6180
 9161TIP3   OH248897   5.268   1.168   4.577 -0.1893 -0.0153 -0.1953
 9161TIP3    H148898   5.261   1.202   4.488  0.8128 -1.9329 -1.0534
 9161TIP3    H248899   5.352   1.201   4.609 -1.6688  2.6945  0.9662
 9162TIP3   OH248900   3.943   5.402  14.220 -0.2477 -0.4204  0.1413
 9162TIP3    H148901   3.929   5.340  14.292  1.3898 -0.9019  0.0678
 9162TIP3    H248902   3.951   5.346  14.142 -0.3570 -0.0141 -0.1621
 9163TIP3   OH248903   3.895   1.045   1.964  0.0235  0.0246  0.0611
 9163TIP3    H148904   3.888   0.986   2.039  1.6022  0.1343  0.3075
 9163TIP3    H248905   3.871   1.131   1.998 -4.5994 -0.7738 -0.8223
 9164TIP3   OH248906   4.230   0.286  11.521 -0.2746 -0.3833  0.0224
 9164TIP3    H148907   4.279   0.309  11.600 -0.8789  0.8822  0.0425
 9164TIP3    H248908   4.243   0.192  11.511  0.8223 -0.3367  0.9377
 9165TIP3   OH248909   1.686   2.691  15.609  0.1688 -0.3470  0.7462
 9165TIP3    H148910   1.698   2.600  15.583  0.2783 -0.0793 -0.1576
 9165TIP3    H248911   1.757   2.707  15.671  1.7095 -0.1559 -1.0160
 9166TIP3   OH248912   4.669   3.333   1.350  0.4699  0.4920  0.2458
 9166TIP3    H148913   4.739   3.269   1.365 -1.0888 -0.7044  2.8562
 9166TIP3    H248914   4.617   3.295   1.280 -1.4514 -2.0977  2.9396
 9167TIP3   OH248915   5.835   4.977   3.708  0.3268  0.0920  0.1472
 9167TIP3    H148916   5.746   4.967   3.676  0.3585  1.0469 -0.2478
 9167TIP3    H248917   5.884   4.905   3.669 -0.7728 -1.8333  2.2254
 9168TIP3   OH248918   3.004   2.958   3.021  0.2044 -0.5968 -0.6033
 9168TIP3    H148919   3.054   3.032   2.988  1.2502 -1.5138 -1.0824
 9168TIP3    H248920   2.941   2.997   3.082  1.0071  0.6432 -0.5577
 9169TIP3   OH248921   1.266   3.950   3.184  0.5603 -0.2117 -0.4662
 9169TIP3    H148922   1.268   4.039   3.218 -0.6908  0.6034 -2.4236
 9169TIP3    H248923   1.195   3.908   3.232  0.0701  0.3519 -0.6848
 9170TIP3   OH248924   2.954   5.723  14.016 -0.0641 -0.2477 -0.5438
 9170TIP3    H148925   2.878   5.780  14.029 -1.8940 -2.2518 -2.0705
 9170TIP3    H248926   2.927   5.662  13.948  2.5763 -1.6718 -0.3922
 9171TIP3   OH248927   3.433   2.896  14.927  0.0751  0.6269 -0.0276
 9171TIP3    H148928   3.410   2.807  14.900  2.3817 -0.2134  0.6111
 9171TIP3    H248929   3.527   2.902  14.910 -0.1460  3.1251 -0.5033
 9172TIP3   OH248930   4.231   5.787   5.596 -0.2420 -0.2773  0.0483
 9172TIP3    H148931   4.191   5.720   5.541 -0.4177 -0.5588  0.5254
 9172TIP3    H248932   4.196   5.869   5.562 -0.3778 -0.4536 -0.2428
 9173TIP3   OH248933   4.373   1.738   5.129  0.0455  0.6549  0.1165
 9173TIP3    H148934   4.333   1.656   5.160 -0.6180  1.0856  0.4173
 9173TIP3    H248935   4.444   1.755   5.191  0.2979  0.2085 -0.0515
 9174TIP3   OH248936   6.351   3.635   1.545 -0.0436 -0.3446  0.0650
 9174TIP3    H148937   6.269   3.665   1.506 -0.4461  0.5708  1.5873
 9174TIP3    H248938   6.330   3.550   1.583  0.0964 -0.7739 -0.7900
 9175TIP3   OH248939   0.709   4.860  15.842  0.1138  0.4255 -0.2671
 9175TIP3    H148940   0.624   4.855  15.884 -0.1311 -2.2198 -0.9458
 9175TIP3    H248941   0.756   4.929  15.889 -2.0664  1.2662  0.7079
 9176TIP3   OH248942   0.660   2.791  11.933  0.5551 -0.4144  0.5338
 9176TIP3    H148943   0.573   2.788  11.973  0.4596 -0.2126  0.3455
 9176TIP3    H248944   0.659   2.872  11.881  1.0000 -0.2082  0.8539
 9177TIP3   OH248945   5.852   4.580  15.053  0.3191  0.0215  0.1176
 9177TIP3    H148946   5.806   4.601  14.972 -0.2270 -0.3547  0.3277
 9177TIP3    H248947   5.868   4.666  15.094  0.5525  0.2088 -0.3617
 9178TIP3   OH248948   5.356   6.195   4.699  0.2143  0.4694  0.8602
 9178TIP3    H148949   5.266   6.176   4.672  0.9907  0.8312 -2.1316
 9178TIP3    H248950   5.349   6.215   4.793 -2.5425 -1.2295  1.0670
 9179TIP3   OH248951   6.126   3.936   2.586  0.0677  0.1996 -0.7987
 9179TIP3    H148952   6.142   3.842   2.582  0.0623  0.0757  1.4367
 9179TIP3    H248953   6.211   3.975   2.605 -0.3608  0.4004  0.8405
 9180TIP3   OH248954   6.508   4.100   5.035  0.1459 -0.3972 -0.4089
 9180TIP3    H148955   6.420   4.087   4.998  0.3213 -2.0435 -0.2759
 9180TIP3    H248956   6.494   4.107   5.129  0.1059 -0.1445 -0.4338
 9181TIP3   OH248957   2.042   0.669  16.871  0.1688  0.2394  0.0517
 9181TIP3    H148958   1.980   0.612  16.916  1.1530 -1.6141 -0.8944
 9181TIP3    H248959   2.071   0.731  16.939 -2.3054  0.8354  0.6225
 9182TIP3   OH248960   2.096   1.506  13.481  0.1618 -0.2025  0.2880
 9182TIP3    H148961   2.183   1.530  13.513 -0.7018  0.8939  1.9282
 9182TIP3    H248962   2.055   1.590  13.459 -0.8129 -0.6302  0.4386
 9183TIP3   OH248963   0.577   1.534  10.751 -0.2416 -0.2412  0.0427
 9183TIP3    H148964   0.613   1.491  10.673 -3.6368  0.0152 -1.7891
 9183TIP3    H248965   0.558   1.624  10.722  0.6414  0.5561  1.8766
 9184TIP3   OH248966   4.693   5.558  12.895 -0.1137 -0.1751  0.1292
 9184TIP3    H148967   4.654   5.508  12.824  0.4072 -1.5634  0.7881
 9184TIP3    H248968   4.785   5.565  12.872 -0.1004  0.0889  0.2577
 9185TIP3   OH248969   5.868   2.129  15.568  0.2237  0.3372 -0.3984
 9185TIP3    H148970   5.851   2.175  15.650  2.6104  0.7573 -0.1114
 9185TIP3    H248971   5.783   2.092  15.543 -0.7965  1.2902  1.5784
 9186TIP3   OH248972   1.132   1.590  12.849  0.1225  0.0246 -0.0503
 9186TIP3    H148973   1.164   1.677  12.824  1.2553 -0.2116  0.5681
 9186TIP3    H248974   1.196   1.558  12.912 -0.6881 -0.9625  0.2756
 9187TIP3   OH248975   3.820   1.826   3.309 -0.2430  0.2249 -0.1246
 9187TIP3    H148976   3.825   1.735   3.338 -1.7251 -0.3714 -1.7080
 9187TIP3    H248977   3.795   1.874   3.388 -2.2449 -1.1226  0.0997
 9188TIP3   OH248978   0.324   6.756  17.112 -0.3463 -0.5324 -0.1441
 9188TIP3    H148979   0.402   6.702  17.102  0.6710  1.0211 -0.6844
 9188TIP3    H248980   0.251   6.695  17.096  0.8226 -1.3218 -2.6918
 9189TIP3   OH248981   5.671   4.147  12.057  0.4582 -0.2179  0.0402
 9189TIP3    H148982   5.595   4.121  12.005  1.3440 -1.0982 -0.8277
 9189TIP3    H248983   5.746   4.119  12.006  1.4066  1.8624  0.2739
 9190TIP3   OH248984   4.044   1.195   0.461 -0.0502 -0.0886  0.0958
 9190TIP3    H148985   4.061   1.145   0.381 -0.7633 -1.0789  0.5627
 9190TIP3    H248986   4.066   1.135   0.532  0.1185  0.6290  0.6538
 9191TIP3   OH248987   3.866   3.106   5.717 -0.1372 -0.0012  0.0717
 9191TIP3    H148988   3.784   3.062   5.741  0.6867 -1.9593 -0.6092
 9191TIP3    H248989   3.864   3.109   5.621  1.1768 -1.2463 -0.0047
 9192TIP3   OH248990   2.393   3.972  16.199  0.4328  0.2841  1.0336
 9192TIP3    H148991   2.459   3.939  16.138 -0.0599  1.9147 -0.4616
 9192TIP3    H248992   2.443   4.015  16.268  0.9872  1.2921  0.0424
 9193TIP3   OH248993   6.408   0.829   5.209 -0.0300  0.5248  0.5479
 9193TIP3    H148994   6.329   0.857   5.254 -1.1328  1.2685 -1.7430
 9193TIP3    H248995   6.480   0.861   5.263 -1.3030  2.0643  1.3666
 9194TIP3   OH248996   4.645   3.098   0.302  0.5635 -0.2763 -0.1407
 9194TIP3    H148997   4.675   3.136   0.220  1.8304 -1.6974 -0.3413
 9194TIP3    H248998   4.550   3.097   0.295  0.5104  2.4066 -0.3234
 9195TIP3   OH248999   6.473   3.774   6.023 -0.4135  0.2315  0.5368
 9195TIP3    H149000   6.532   3.722   6.077 -0.7756  0.0110  0.7192
 9195TIP3    H249001   6.506   3.863   6.030 -0.4147  0.1933  1.0665
 9196TIP3   OH249002   3.318   2.905  14.257 -0.2142  0.3628 -0.0947
 9196TIP3    H149003   3.240   2.895  14.312  0.9513  0.6251  1.6427
 9196TIP3    H249004   3.351   2.993  14.278  1.2116 -0.1954  0.0870
 9197TIP3   OH249005   5.145   2.091   4.280 -0.3863  0.1636  0.3286
 9197TIP3    H149006   5.070   2.114   4.335 -0.6947 -2.5176  1.0856
 9197TIP3    H249007   5.220   2.094   4.339 -0.4141 -0.6873  0.4051
 9198TIP3   OH249008   2.276   6.183   2.779  0.1945  0.1372 -0.4272
 9198TIP3    H149009   2.244   6.245   2.844  0.0108 -0.6109  0.2132
 9198TIP3    H249010   2.235   6.211   2.697 -0.1697  0.6397 -0.0784
 9199TIP3   OH249011   2.603   3.588   3.239  0.0485 -0.9036 -0.2871
 9199TIP3    H149012   2.520   3.636   3.244 -0.4736 -1.5725 -1.9878
 9199TIP3    H249013   2.640   3.595   3.327 -0.5798  1.5774 -0.1653
 9200TIP3   OH249014   5.926   3.052  13.260  0.1435 -0.6144 -0.7074
 9200TIP3    H149015   6.001   3.082  13.208  0.8177 -0.7216  0.1840
 9200TIP3    H249016   5.909   3.123  13.322 -1.4351  0.0378 -1.8616
 9201TIP3   OH249017   4.148   1.923  14.756  0.1597 -0.1443  0.0323
 9201TIP3    H149018   4.067   1.974  14.754  0.6593  0.6802  0.8161
 9201TIP3    H249019   4.128   1.845  14.704 -1.1625  0.0218  0.2694
 9202TIP3   OH249020   1.481   3.718  14.664 -0.2977 -0.2900  0.1571
 9202TIP3    H149021   1.528   3.730  14.581 -0.1652  2.7650  0.6151
 9202TIP3    H249022   1.535   3.656  14.713  1.0303 -0.0692 -0.9957
 9203TIP3   OH249023   6.278   6.185   2.211  0.3795  0.2273  0.3496
 9203TIP3    H149024   6.310   6.274   2.197  1.5709 -0.1438  0.6878
 9203TIP3    H249025   6.230   6.189   2.294  2.7083 -0.0253  1.7401
 9204TIP3   OH249026   3.611   5.227   6.030  0.2836  0.2098 -0.1801
 9204TIP3    H149027   3.543   5.292   6.047  0.7481  0.1480  2.0930
 9204TIP3    H249028   3.693   5.271   6.053  1.0128  0.1552 -2.5248
 9205TIP3   OH249029   5.892   1.387   5.546  0.0822 -0.2482  0.4060
 9205TIP3    H149030   5.920   1.470   5.506  0.5825 -0.1246  1.0149
 9205TIP3    H249031   5.971   1.351   5.586 -0.3711 -0.4729  1.1078
 9206TIP3   OH249032   3.440   1.948   1.634  0.1733 -0.2261 -0.0142
 9206TIP3    H149033   3.410   1.981   1.549 -0.3213 -0.1048  0.2045
 9206TIP3    H249034   3.363   1.904   1.671 -0.6549  2.6033  1.8419
 9207TIP3   OH249035   0.276   2.885   3.755  0.0023  0.2481 -0.5583
 9207TIP3    H149036   0.224   2.866   3.676  0.1106  0.0872 -0.5928
 9207TIP3    H249037   0.216   2.868   3.828  0.4656 -1.5027 -0.5437
 9208TIP3   OH249038   6.681   5.132   0.788 -0.3458  0.0731  1.1581
 9208TIP3    H149039   6.749   5.088   0.736  0.1022  1.3495  0.6486
 9208TIP3    H249040   6.600   5.115   0.741 -0.1356  0.0505  0.8004
 9209TIP3   OH249041   3.962   5.180   2.539  0.3474  0.1421  0.0562
 9209TIP3    H149042   3.930   5.091   2.549 -0.7170  0.5964  0.7124
 9209TIP3    H249043   4.051   5.170   2.505 -0.7580 -1.1037 -2.5738
 9210TIP3   OH249044   1.449   2.331   4.622 -0.3574  0.5033  0.0625
 9210TIP3    H149045   1.384   2.398   4.599  1.7092  2.0674 -1.3345
 9210TIP3    H249046   1.521   2.346   4.562  2.4975  0.5197  3.3721
 9211TIP3   OH249047   1.962   3.253   4.834  0.3458  0.8095 -0.2228
 9211TIP3    H149048   1.869   3.276   4.841  0.1414  0.3304 -1.3386
 9211TIP3    H249049   1.962   3.162   4.804  1.1801  0.8152 -0.2537
 9212TIP3   OH249050   1.324   1.004  17.057 -0.2337 -0.6027  0.2462
 9212TIP3    H149051   1.416   1.004  17.083 -0.9365  1.0914  2.9624
 9212TIP3    H249052   1.306   0.914  17.030  2.2996 -0.8540 -0.7705
 9213TIP3   OH249053   5.825   5.612   2.681 -0.0534  0.4360 -0.1329
 9213TIP3    H149054   5.804   5.548   2.749 -0.4234  0.8960  0.1873
 9213TIP3    H249055   5.908   5.582   2.645  0.0441  0.0781  0.3850
 9214TIP3   OH249056   0.038   0.844   2.407  0.1720  0.3868  0.1110
 9214TIP3    H149057   0.088   0.920   2.378  1.7299 -0.8864 -0.5875
 9214TIP3    H249058  -0.043   0.881   2.443  0.7515  2.3413 -0.5399
 9215TIP3   OH249059   4.852   2.307  13.207  0.2702  0.8312  0.6079
 9215TIP3    H149060   4.862   2.310  13.112 -2.4652  2.0932  0.3253
 9215TIP3    H249061   4.820   2.393  13.231 -0.2647  0.1289  2.5456
 9216TIP3   OH249062   2.472   0.227   0.988 -0.0120  0.3474 -0.0373
 9216TIP3    H149063   2.442   0.318   0.996  1.2582  0.7453  0.4239
 9216TIP3    H249064   2.520   0.226   0.905  0.4348  0.2331  0.2229
 9217TIP3   OH249065   1.519   1.372  11.383  0.2862  0.0073 -0.1564
 9217TIP3    H149066   1.493   1.458  11.350  1.2650  0.3478 -0.0411
 9217TIP3    H249067   1.517   1.316  11.305 -2.4303 -0.3835  0.1297
 9218TIP3   OH249068   3.182   5.358   4.062 -0.6192  0.3985 -0.0333
 9218TIP3    H149069   3.134   5.369   3.980 -0.0002  1.3204 -0.2896
 9218TIP3    H249070   3.121   5.386   4.130 -0.4393  1.6461 -0.3632
 9219TIP3   OH249071   0.976   2.442   2.703  0.2755  0.6186 -0.1899
 9219TIP3    H149072   0.970   2.384   2.627  0.4789  1.1027 -0.5829
 9219TIP3    H249073   1.066   2.430   2.735 -0.6402 -1.6247  1.6356
 9220TIP3   OH249074   1.613   6.429   3.767  0.2367 -0.3129  0.3391
 9220TIP3    H149075   1.645   6.408   3.679 -1.0683  0.5528 -0.3591
 9220TIP3    H249076   1.595   6.344   3.807  0.9417 -0.7171 -0.1783
 9221TIP3   OH249077   3.858   4.959   1.786 -0.2692 -0.3035  0.2556
 9221TIP3    H149078   3.918   4.994   1.851  0.0407 -0.4970  0.0763
 9221TIP3    H249079   3.877   5.009   1.707 -0.2127 -0.4895  0.1502
 9222TIP3   OH249080   4.382   1.647   1.345 -0.1921 -0.0026  0.1511
 9222TIP3    H149081   4.438   1.628   1.421 -0.8693 -1.4187  0.3147
 9222TIP3    H249082   4.306   1.692   1.382 -1.4100 -2.3237  0.6239
 9223TIP3   OH249083   3.455   0.650  16.742 -0.5774 -0.0773  0.2545
 9223TIP3    H149084   3.529   0.666  16.683  1.4596 -0.6229  2.5849
 9223TIP3    H249085   3.427   0.561  16.721 -0.2216 -0.0717 -0.2494
 9224TIP3   OH249086   0.163   2.943   5.660 -0.2805 -0.3022  0.0037
 9224TIP3    H149087   0.158   2.966   5.567  2.1598 -0.0402 -0.0784
 9224TIP3    H249088   0.227   2.872   5.664  0.8280  0.7628  1.6631
 9225TIP3   OH249089   1.312   1.182   3.630  0.1365  0.0963  0.1744
 9225TIP3    H149090   1.256   1.161   3.556 -0.2193 -3.6955  1.4123
 9225TIP3    H249091   1.266   1.147   3.707  2.3592  0.3379  1.6858
 9226TIP3   OH249092   2.867   4.508   1.352  0.0118 -0.0740 -0.2359
 9226TIP3    H149093   2.855   4.452   1.429  0.7687  0.2459  0.1228
 9226TIP3    H249094   2.828   4.591   1.377 -0.4762 -0.2272 -0.5017
 9227TIP3   OH249095   6.463   2.627  15.472 -0.5213 -0.7690 -0.0964
 9227TIP3    H149096   6.554   2.602  15.488 -0.7105 -0.8167  0.9456
 9227TIP3    H249097   6.412   2.570  15.529 -1.1186  0.1914  0.3486
 9228TIP3   OH249098   0.508   0.769  14.691  0.6658 -0.1773 -0.0783
 9228TIP3    H149099   0.497   0.798  14.781  0.2855  1.8938 -0.7724
 9228TIP3    H249100   0.472   0.680  14.690  1.0104 -0.3518  1.8839
 9229TIP3   OH249101   3.458   6.209  14.054 -0.2090 -0.2454 -0.2000
 9229TIP3    H149102   3.378   6.162  14.077  0.9884 -1.5487  1.4915
 9229TIP3    H249103   3.440   6.246  13.968 -1.8815 -2.2951 -0.7885
 9230TIP3   OH249104   2.851   2.892  16.123 -0.0376 -0.8290  0.5120
 9230TIP3    H149105   2.811   2.877  16.037  0.7654  0.0721 -0.0217
 9230TIP3    H249106   2.794   2.844  16.184 -1.2112 -0.6111 -0.3889
 9231TIP3   OH249107   0.063   5.658   4.241 -0.1974  0.0150 -0.0525
 9231TIP3    H149108   0.007   5.615   4.306  1.5053  1.4328  2.4690
 9231TIP3    H249109   0.133   5.596   4.224  0.2616  0.2848  0.7918
 9232TIP3   OH249110   1.067   4.177  12.387  0.4133  0.2419  0.5436
 9232TIP3    H149111   1.157   4.170  12.418  0.3921  3.5767  1.5597
 9232TIP3    H249112   1.076   4.192  12.292  0.8487 -1.1998  0.3547
 9233TIP3   OH249113   4.432   2.797  12.021 -0.0969 -0.0089 -0.2214
 9233TIP3    H149114   4.344   2.786  11.984 -0.0219 -0.7928 -0.1652
 9233TIP3    H249115   4.487   2.821  11.946 -0.2779  0.0768 -0.3275
 9234TIP3   OH249116   3.059   0.563   5.195  0.0819 -0.5877  0.2507
 9234TIP3    H149117   3.110   0.643   5.187 -0.4459 -0.2427  0.2713
 9234TIP3    H249118   2.979   0.590   5.240  0.2636 -1.2909  1.0026
 9235TIP3   OH249119   3.116   4.850  16.214 -0.0458  0.3518 -0.3882
 9235TIP3    H149120   3.042   4.797  16.184 -0.6372  0.4551  0.8532
 9235TIP3    H249121   3.171   4.788  16.261 -0.8562  0.8779  1.2679
 9236TIP3   OH249122   6.148   6.247   3.979  0.3754 -0.5481  0.4682
 9236TIP3    H149123   6.065   6.249   4.026 -1.0741  1.9032 -2.0145
 9236TIP3    H249124   6.156   6.157   3.948 -1.3569 -0.8180  0.7574
 9237TIP3   OH249125   1.538   0.299   2.559 -0.6633  0.3564 -0.3582
 9237TIP3    H149126   1.563   0.295   2.466  0.9209  1.8270 -0.0201
 9237TIP3    H249127   1.582   0.224   2.598 -0.1760  0.5532 -0.5298
 9238TIP3   OH249128   1.209   0.939  15.266 -0.6849  0.0199 -0.2474
 9238TIP3    H149129   1.170   1.001  15.205  0.8991  1.3686  0.0988
 9238TIP3    H249130   1.154   0.944  15.344 -1.0545  0.3528 -0.5290
 9239TIP3   OH249131   4.118   3.962  14.468 -0.2106 -0.6249 -0.1124
 9239TIP3    H149132   4.085   4.047  14.498 -0.3409 -0.4107 -0.8485
 9239TIP3    H249133   4.128   3.911  14.548  2.3183  0.9342  0.6096
 9240TIP3   OH249134   4.939   1.242   5.072 -0.2324  0.7400  0.3211
 9240TIP3    H149135   4.889   1.278   5.145  0.6842  0.8225  0.9224
 9240TIP3    H249136   5.030   1.261   5.094  0.2047 -1.1281  0.2031
 9241TIP3   OH249137   3.805   2.896  16.027  0.1348  0.2713 -0.0379
 9241TIP3    H149138   3.845   2.973  15.986 -0.8277  0.4827 -0.6027
 9241TIP3    H249139   3.877   2.834  16.037  0.2288 -0.2137 -3.0589
 9242TIP3   OH249140   0.232   1.436   4.702  0.1914 -0.3104 -0.0858
 9242TIP3    H149141   0.189   1.474   4.626 -0.0282 -1.8000 -0.7194
 9242TIP3    H249142   0.280   1.361   4.668 -2.0211 -2.5871  1.6139
 9243TIP3   OH249143   1.830   4.148  17.162 -0.2216  0.5185 -0.3865
 9243TIP3    H149144   1.896   4.092  17.204 -0.9428  0.9002  1.2663
 9243TIP3    H249145   1.822   4.111  17.073  1.4306 -0.1874 -0.2737
 9244TIP3   OH249146   1.889   4.851  12.152 -0.0372  0.3333 -0.0378
 9244TIP3    H149147   1.857   4.768  12.187  0.9569 -0.7206 -1.5924
 9244TIP3    H249148   1.811   4.893  12.115 -0.2825 -0.5950 -0.5958
 9245TIP3   OH249149   2.759   2.037  12.687  0.0320  0.3880 -1.0481
 9245TIP3    H149150   2.796   1.976  12.624  1.9567  1.7038 -1.2411
 9245TIP3    H249151   2.834   2.087  12.719 -1.0736  0.5269  1.4337
 9246TIP3   OH249152   2.959   2.276   2.596  0.0368 -0.4629  0.1042
 9246TIP3    H149153   3.027   2.340   2.618  0.3582 -0.7147 -0.1498
 9246TIP3    H249154   2.917   2.256   2.680  0.4955 -0.5562  0.3152
 9247TIP3   OH249155   3.788   2.090   2.654  0.3590 -0.5406  0.3739
 9247TIP3    H149156   3.719   2.149   2.624 -0.6186 -1.3610  0.9667
 9247TIP3    H249157   3.846   2.080   2.578  0.4226  0.9955  0.2097
 9248TIP3   OH249158   6.239   1.661  16.772 -0.1620 -0.0307  0.2996
 9248TIP3    H149159   6.298   1.729  16.740 -1.5114  1.3281  0.6290
 9248TIP3    H249160   6.152   1.691  16.746 -1.0789 -0.0695  3.1200
 9249TIP3   OH249161   5.651   5.699  15.050  0.1369  0.7102  0.3098
 9249TIP3    H149162   5.650   5.747  14.968  2.0878  2.4850  1.2987
 9249TIP3    H249163   5.718   5.741  15.103  0.2002 -1.5597  2.1465
 9250TIP3   OH249164   6.110   0.743  11.871  0.5703 -0.2319 -0.2640
 9250TIP3    H149165   6.172   0.812  11.847  0.1583 -0.3219 -1.6296
 9250TIP3    H249166   6.035   0.757  11.814  0.0999 -1.2602  0.0876
 9251TIP3   OH249167   5.935   1.747  14.327  0.3868  0.3106 -0.3482
 9251TIP3    H149168   5.852   1.708  14.301 -0.3729  1.5413  0.1672
 9251TIP3    H249169   5.954   1.812  14.259 -0.6307  2.1762  1.0949
 9252TIP3   OH249170   3.459   5.642   3.383  0.3202 -0.1966  0.4264
 9252TIP3    H149171   3.366   5.620   3.372 -0.0240  0.0441  2.6267
 9252TIP3    H249172   3.469   5.728   3.343 -0.6362  0.2015  1.0255
 9253TIP3   OH249173   0.393   0.755  16.711 -0.4183 -0.7061  0.3006
 9253TIP3    H149174   0.335   0.824  16.742 -0.1426  0.1446 -1.0488
 9253TIP3    H249175   0.444   0.731  16.789  1.3289  2.4792  0.2210
 9254TIP3   OH249176   5.176   1.089   3.289  0.0951  0.0153  0.0126
 9254TIP3    H149177   5.146   1.167   3.334 -2.4262  0.5886 -2.5471
 9254TIP3    H249178   5.190   1.025   3.359 -0.8481  1.7540  1.8404
 9255TIP3   OH249179   3.915   6.017   2.680 -0.0460 -0.1170 -0.5849
 9255TIP3    H149180   3.835   5.986   2.637 -0.6452 -1.9232  1.7644
 9255TIP3    H249181   3.962   5.937   2.704  0.9177  0.8764  0.9440
 9256TIP3   OH249182   0.080   2.803  11.583  0.1504  1.0952  0.0278
 9256TIP3    H149183   0.121   2.786  11.499  1.7392  2.8945  0.4116
 9256TIP3    H249184   0.150   2.839  11.637 -0.6158 -0.8195  2.4017
 9257TIP3   OH249185   2.530   0.927   0.188  0.5475  0.2654  0.7887
 9257TIP3    H149186   2.606   0.984   0.201  0.4601  0.7768 -0.7927
 9257TIP3    H249187   2.520   0.882   0.271  1.6405  1.3351  1.5321
 9258TIP3   OH249188   5.951   4.388  11.927  1.1950 -0.2943 -0.6911
 9258TIP3    H149189   5.951   4.370  11.833  1.0060 -1.3050 -0.5047
 9258TIP3    H249190   5.858   4.392  11.950  1.2352 -1.0776 -0.3669
 9259TIP3   OH249191   4.666   2.635  15.878  0.3001 -0.6715 -0.2993
 9259TIP3    H149192   4.739   2.573  15.879  0.1742 -0.8315 -0.9376
 9259TIP3    H249193   4.708   2.721  15.887  0.4818 -0.8289  0.4545
 9260TIP3   OH249194   5.625   6.293  11.509  0.1143 -0.3492  0.1197
 9260TIP3    H149195   5.552   6.316  11.451  0.7342  3.0858  0.5835
 9260TIP3    H249196   5.696   6.269  11.450 -0.0576  0.5778 -0.4826
 9261TIP3   OH249197   1.004   3.451  14.977 -0.1298 -0.1368 -0.1293
 9261TIP3    H149198   1.048   3.366  14.966  0.8864  0.1536  1.4598
 9261TIP3    H249199   1.017   3.496  14.894  2.1338 -0.2777  0.1127
 9262TIP3   OH249200   6.735   0.283  16.671 -0.0977 -0.2945  0.4619
 9262TIP3    H149201   6.667   0.248  16.728  0.3307  0.4065  1.4170
 9262TIP3    H249202   6.704   0.266  16.582 -0.2487 -2.4075  0.8991
 9263TIP3   OH249203   5.129   1.713   5.375 -0.3378  0.0727  0.0788
 9263TIP3    H149204   5.212   1.756   5.398 -0.3690 -0.1783  0.6768
 9263TIP3    H249205   5.071   1.734   5.448 -0.8663  0.4253 -0.4453
 9264TIP3   OH249206   6.664   0.747   4.597 -0.4817 -0.5829  0.3053
 9264TIP3    H149207   6.700   0.804   4.529  0.4449 -0.3353  0.9913
 9264TIP3    H249208   6.580   0.718   4.562  1.3569 -2.9650 -2.3508
 9265TIP3   OH249209   1.018   3.998  14.681  0.2140 -0.1590  0.7588
 9265TIP3    H149210   0.932   3.963  14.654  0.0892 -0.5284  1.6243
 9265TIP3    H249211   1.000   4.048  14.760  0.1157  3.3468 -1.3860
 9266TIP3   OH249212   5.974   5.286  11.998  0.4784 -0.1592  0.0352
 9266TIP3    H149213   5.903   5.256  12.055  0.0100  1.8950  0.5430
 9266TIP3    H249214   6.036   5.212  11.998 -0.8738 -1.3328  0.8778
 9267TIP3   OH249215   3.193   5.999  11.696  0.3606 -0.4936  0.3068
 9267TIP3    H149216   3.280   6.038  11.686 -0.5786  1.1323 -1.8779
 9267TIP3    H249217   3.145   6.060  11.753  0.1704 -0.5978  0.2594
 9268TIP3   OH249218   4.105   5.351   3.440  0.1039 -0.2969 -0.2211
 9268TIP3    H149219   4.083   5.294   3.513  1.5893 -1.4776 -0.6578
 9268TIP3    H249220   4.116   5.292   3.366 -0.4530  0.7910 -1.1907
 9269TIP3   OH249221   4.375   1.138   2.401 -0.5526 -0.6428  0.2503
 9269TIP3    H149222   4.337   1.136   2.313 -1.5375  1.6795  0.5792
 9269TIP3    H249223   4.455   1.086   2.394 -0.4324 -0.2099 -2.1041
 9270TIP3   OH249224   0.836   1.750   4.951  0.1153  0.4308  0.2637
 9270TIP3    H149225   0.802   1.742   4.862  0.3956  0.1225  0.1843
 9270TIP3    H249226   0.759   1.772   5.004 -0.2863 -0.6583  0.1495
 9271TIP3   OH249227   3.573   5.321  14.511 -0.3990 -0.1976  0.0564
 9271TIP3    H149228   3.537   5.266  14.442  0.1405 -2.0529  1.2173
 9271TIP3    H249229   3.497   5.365  14.549 -1.4649 -3.5595  2.0402
 9272TIP3   OH249230   0.059   5.036  16.213  0.9187 -0.0470 -0.0963
 9272TIP3    H149231   0.141   5.080  16.188  1.1165  0.9418  2.1495
 9272TIP3    H249232   0.056   5.044  16.308 -1.3516 -0.9096 -0.0648
 9273TIP3   OH249233   4.277   3.335  11.150 -0.3824 -0.1404  0.8911
 9273TIP3    H149234   4.221   3.291  11.215  1.8692 -1.3953  2.0272
 9273TIP3    H249235   4.346   3.376  11.203  0.7951 -0.1405 -0.6335
 9274TIP3   OH249236   4.997   5.860  15.026 -0.1504 -0.4171  0.5521
 9274TIP3    H149237   5.049   5.914  14.966 -0.8563  1.3566  1.4814
 9274TIP3    H249238   4.993   5.912  15.107 -1.1801 -1.7014  1.3426
 9275TIP3   OH249239   0.429   3.755   4.034 -0.4828  0.3527 -0.4995
 9275TIP3    H149240   0.436   3.688   4.101 -0.4921  0.8849  0.0311
 9275TIP3    H249241   0.391   3.709   3.958  0.4608 -0.4730 -0.4785
 9276TIP3   OH249242   4.167   5.269   1.287 -0.1750 -0.1138  0.1058
 9276TIP3    H149243   4.232   5.284   1.355  1.0314 -3.8572 -0.0869
 9276TIP3    H249244   4.217   5.272   1.205 -0.5734 -1.0922 -0.1833
 9277TIP3   OH249245   6.750   2.826   0.827  0.2878 -0.5053 -0.0101
 9277TIP3    H149246   6.759   2.918   0.800  1.3815 -1.6739 -4.0663
 9277TIP3    H249247   6.657   2.807   0.817  0.1240  0.0387  0.4369
 9278TIP3   OH249248   0.428   4.495   5.729  0.2255 -0.1716  0.1231
 9278TIP3    H149249   0.449   4.436   5.801  0.8304 -2.0029 -1.5153
 9278TIP3    H249250   0.505   4.552   5.721  0.9606 -1.2118 -0.2890
 9279TIP3   OH249251   5.863   4.148  16.402 -0.0557 -0.1706 -0.1428
 9279TIP3    H149252   5.859   4.243  16.397  2.5242  0.1180  1.9971
 9279TIP3    H249253   5.898   4.121  16.317  0.5239  0.8957 -0.2557
 9280TIP3   OH249254   1.609   3.776  14.415  0.2099  0.0474  0.2904
 9280TIP3    H149255   1.660   3.787  14.335 -2.6638 -0.2011 -1.6665
 9280TIP3    H249256   1.570   3.862  14.431  0.8980  0.1393  1.5266
 9281TIP3   OH249257   4.658   2.258  11.626 -0.3490 -0.7566  0.3468
 9281TIP3    H149258   4.719   2.318  11.582  1.5311 -2.9410 -0.0934
 9281TIP3    H249259   4.685   2.259  11.717 -1.2952  0.1962  0.6312
 9282TIP3   OH249260   4.052   5.888  12.944 -0.1462 -0.2972 -0.3533
 9282TIP3    H149261   3.998   5.884  13.023  0.7235 -0.0071  0.2536
 9282TIP3    H249262   4.083   5.798  12.931 -0.5959 -0.4209 -0.5805
 9283TIP3   OH249263   4.440   4.869   4.516  0.0519 -0.0728  0.6650
 9283TIP3    H149264   4.357   4.824   4.497 -0.3812  0.0031  2.2805
 9283TIP3    H249265   4.506   4.801   4.505 -0.5071 -0.8708  2.0781
 9284TIP3   OH249266   4.495   0.683  16.820 -0.2087 -0.1333 -0.5248
 9284TIP3    H149267   4.402   0.659  16.823 -0.0484 -0.6333  0.9838
 9284TIP3    H249268   4.518   0.702  16.912  1.5852 -1.6408 -0.6417
 9285TIP3   OH249269   4.571   3.236  16.548 -0.1772 -0.5153  0.1346
 9285TIP3    H149270   4.603   3.326  16.553  1.7994 -1.0156 -2.4422
 9285TIP3    H249271   4.644   3.183  16.579 -1.0870 -1.2887  0.9889
 9286TIP3   OH249272   0.188   6.496  13.583 -0.5683  0.3014  0.0751
 9286TIP3    H149273   0.163   6.585  13.607 -1.5671 -0.1501  0.7510
 9286TIP3    H249274   0.107   6.445  13.591  0.2915 -0.9417  1.0578
 9287TIP3   OH249275   2.932   5.166  16.182  0.1168 -0.0961 -0.3644
 9287TIP3    H149276   2.920   5.094  16.243 -1.0518  0.1459 -0.3138
 9287TIP3    H249277   2.850   5.172  16.133  0.4494  0.7520 -0.8474
 9288TIP3   OH249278   0.059   6.246  11.706  0.1793 -0.0272  0.1480
 9288TIP3    H149279  -0.020   6.231  11.758 -0.9442 -0.0096 -1.4739
 9288TIP3    H249280   0.049   6.335  11.673  1.2548  0.2408  0.5521
 9289TIP3   OH249281   1.736   5.339   1.675 -0.4297  0.2024 -0.0020
 9289TIP3    H149282   1.690   5.419   1.651  0.4467  0.9997  0.8857
 9289TIP3    H249283   1.733   5.337   1.771 -0.5283 -0.8834 -0.0163
 9290TIP3   OH249284   2.323   1.559   4.659  0.1662 -0.3252  0.2927
 9290TIP3    H149285   2.244   1.599   4.621  1.1173  1.1678 -0.1275
 9290TIP3    H249286   2.353   1.498   4.591 -0.0350 -0.1276  0.0216
 9291TIP3   OH249287   6.596   0.253   3.382 -0.0472  0.1118 -0.1047
 9291TIP3    H149288   6.604   0.167   3.422  1.7840 -0.0654 -0.7823
 9291TIP3    H249289   6.649   0.247   3.302 -1.7811  1.1537 -1.3540
 9292TIP3   OH249290   4.166   6.096   1.422  0.4110  0.7503 -0.5830
 9292TIP3    H149291   4.209   6.037   1.360 -1.1835  0.6184 -1.6124
 9292TIP3    H249292   4.218   6.090   1.502 -0.3576 -2.9334 -0.2891
 9293TIP3   OH249293   1.321   1.519  12.503  0.3206 -0.0243 -0.0923
 9293TIP3    H149294   1.328   1.497  12.410  1.8443  1.1448 -0.2663
 9293TIP3    H249295   1.277   1.603  12.505 -1.0470 -0.7386  0.3329
 9294TIP3   OH249296   6.045   1.439  14.344 -0.3862 -0.3008  0.7374
 9294TIP3    H149297   6.004   1.498  14.281 -0.1855 -1.2520 -0.3006
 9294TIP3    H249298   5.984   1.438  14.418  0.2559  2.2191  1.3491
 9295TIP3   OH249299   4.702   3.640   4.782 -0.1373  0.0131 -0.2739
 9295TIP3    H149300   4.743   3.726   4.782  1.8509 -0.8923 -1.0830
 9295TIP3    H249301   4.689   3.619   4.690 -1.9422  0.0397 -0.0389
 9296TIP3   OH249302   3.632   0.956   4.225  0.1468  0.3824 -0.3677
 9296TIP3    H149303   3.711   0.952   4.279  0.7625  0.2588 -1.2660
 9296TIP3    H249304   3.620   0.865   4.196 -1.8311 -0.1285  1.8903
 9297TIP3   OH249305   0.795   1.898   3.475 -0.3389 -0.1818 -0.6831
 9297TIP3    H149306   0.877   1.941   3.448  0.1120 -0.1815  0.6167
 9297TIP3    H249307   0.726   1.958   3.446  0.2982  1.7444  1.5545
 9298TIP3   OH249308   0.255   6.465   4.205 -0.2320 -0.6579 -0.5221
 9298TIP3    H149309   0.182   6.526   4.198  0.3702  0.1639  0.2231
 9298TIP3    H249310   0.332   6.515   4.180  0.4384 -0.7326  1.2778
 9299TIP3   OH249311   2.632   6.194  16.177 -0.3770  0.5833 -0.3980
 9299TIP3    H149312   2.607   6.195  16.270  2.2981  0.8701  0.3607
 9299TIP3    H249313   2.635   6.101  16.155 -0.2884  0.4821  0.0252
 9300TIP3   OH249314   5.661   2.544  11.394 -0.2177  0.0324 -0.0010
 9300TIP3    H149315   5.593   2.594  11.440 -0.6086  0.6998 -1.2810
 9300TIP3    H249316   5.730   2.608  11.376 -0.6095  0.0687 -1.4312
 9301TIP3   OH249317   4.979   2.680  11.543 -0.5348 -0.4713  0.5235
 9301TIP3    H149318   4.952   2.766  11.573 -0.5378 -0.0365 -0.6923
 9301TIP3    H249319   5.075   2.683  11.543 -0.5336 -0.5033  0.5489
 9302TIP3   OH249320   0.353   5.678   1.733  0.1563  0.7068 -0.8513
 9302TIP3    H149321   0.322   5.623   1.660 -3.3702  1.2838  0.1047
 9302TIP3    H249322   0.363   5.765   1.694 -0.2993  0.7048 -0.9759
 9303TIP3   OH249323   2.028   4.586  11.701 -0.3545 -0.1352  0.3714
 9303TIP3    H149324   1.966   4.563  11.771  0.4764 -1.4294  0.7081
 9303TIP3    H249325   2.023   4.511  11.641  0.9978 -0.3139  0.4807
 9304TIP3   OH249326   6.765   3.139   4.234 -0.6925 -0.3612  0.0588
 9304TIP3    H149327   6.700   3.188   4.286  1.6649  1.1596  1.6641
 9304TIP3    H249328   6.748   3.165   4.143 -1.3862  1.1540  0.6137
 9305TIP3   OH249329   1.885   3.755  16.638  0.2899  0.3324 -0.2229
 9305TIP3    H149330   1.898   3.840  16.678  0.3644  0.4820 -0.5617
 9305TIP3    H249331   1.965   3.706  16.657  0.6772  0.6907 -0.9023
 9306TIP3   OH249332   3.879   6.777  17.159 -0.1477 -0.0327 -0.0743
 9306TIP3    H149333   3.915   6.756  17.245  1.9195 -2.4032 -1.4615
 9306TIP3    H249334   3.805   6.717  17.148  1.3893 -1.7916 -1.1082
 9307TIP3   OH249335   3.829   3.284  15.759 -0.7367  0.3464 -0.2073
 9307TIP3    H149336   3.881   3.225  15.703 -1.0118 -0.7803  0.7039
 9307TIP3    H249337   3.846   3.371  15.724  2.0375  0.0434  0.2564
 9308TIP3   OH249338   1.862   4.460   2.811  0.0864  0.0246  0.3500
 9308TIP3    H149339   1.939   4.488   2.862  2.0263 -2.5471 -1.0651
 9308TIP3    H249340   1.801   4.427   2.877  1.2303 -0.2385  1.2944
 9309TIP3   OH249341   6.443   5.926  13.966 -0.4783  0.3911 -0.0627
 9309TIP3    H149342   6.396   5.877  13.899  0.0279 -1.3099  0.7925
 9309TIP3    H249343   6.507   5.979  13.918  0.3910 -1.3797 -0.8805
 9310TIP3   OH249344   3.572   5.338   5.404 -0.3253 -0.2155 -0.6844
 9310TIP3    H149345   3.649   5.390   5.429 -0.7895  0.7043 -1.1222
 9310TIP3    H249346   3.607   5.270   5.346  0.7454 -2.2728  2.2190
 9311TIP3   OH249347   1.096   4.361   4.439  0.0552  0.1847 -0.0343
 9311TIP3    H149348   1.028   4.367   4.506 -1.6211  0.0980 -1.6962
 9311TIP3    H249349   1.113   4.267   4.431 -1.4868  0.0008 -1.4147
 9312TIP3   OH249350   4.853   1.190  16.292 -0.4522 -0.1712 -0.4287
 9312TIP3    H149351   4.841   1.194  16.387  1.4216 -2.6616 -0.0244
 9312TIP3    H249352   4.867   1.097  16.274 -0.9405  0.2540 -3.1858
 9313TIP3   OH249353   2.505   3.050  14.745  0.5834 -0.4098  0.1570
 9313TIP3    H149354   2.416   3.016  14.752  0.7614 -1.2791 -1.4298
 9313TIP3    H249355   2.523   3.050  14.651  1.1475  2.7025  0.2186
 9314TIP3   OH249356   1.088   3.903   0.584  0.0004  0.5468 -0.4593
 9314TIP3    H149357   1.005   3.934   0.548 -1.2032  0.6151  2.2465
 9314TIP3    H249358   1.094   3.946   0.670  2.2400 -0.4368 -0.0849
 9315TIP3   OH249359   0.052   2.156   2.141  0.1320 -0.1290 -0.1811
 9315TIP3    H149360   0.026   2.222   2.076  0.6387  1.2868  1.0312
 9315TIP3    H249361   0.064   2.205   2.222 -1.0608 -1.9645  1.1581
 9316TIP3   OH249362   2.731   0.664   0.038 -0.1536  0.1217  0.2001
 9316TIP3    H149363   2.778   0.609  -0.025 -1.2534 -0.9759  0.3325
 9316TIP3    H249364   2.773   0.750   0.031 -0.9871  0.3208 -2.8465
 9317TIP3   OH249365   2.921   2.529  11.381 -0.0489  0.4571 -0.1128
 9317TIP3    H149366   2.932   2.624  11.379 -0.4350  0.4853 -0.9530
 9317TIP3    H249367   3.005   2.495  11.350  0.4482  0.4903  1.1445
 9318TIP3   OH249368   4.415   0.488   3.240 -0.0826  0.3594  0.3693
 9318TIP3    H149369   4.450   0.444   3.318 -1.7129 -2.1272 -0.2143
 9318TIP3    H249370   4.444   0.578   3.248  2.2082 -0.4950  2.3933
 9319TIP3   OH249371   5.295   0.975  14.444  0.2230 -0.1707  0.1230
 9319TIP3    H149372   5.287   0.937  14.531 -2.1625 -0.4909 -0.1929
 9319TIP3    H249373   5.360   0.920  14.399 -0.6980 -1.8121  0.7673
 9320TIP3   OH249374   5.300   6.303   5.241 -0.4836 -0.0839 -0.1073
 9320TIP3    H149375   5.304   6.389   5.199  0.4469  0.9917  2.0879
 9320TIP3    H249376   5.389   6.269   5.237 -0.1735  0.4341  1.7286
 9321TIP3   OH249377   1.650   5.527   6.733 -0.0684  0.2915 -0.3340
 9321TIP3    H149378   1.598   5.591   6.685  0.8522  0.9130 -0.5071
 9321TIP3    H249379   1.738   5.533   6.696  0.3411 -0.1533  0.5301
 9322TIP3   OH249380   1.668   2.188  11.325  0.3179  0.0123 -0.0388
 9322TIP3    H149381   1.613   2.204  11.248 -1.6813  0.2813  1.3902
 9322TIP3    H249382   1.652   2.096  11.347  1.6605 -0.3435 -0.5296
 9323TIP3   OH249383   3.470   4.722  12.752  0.9382  0.4170 -0.2127
 9323TIP3    H149384   3.464   4.728  12.848 -0.6189  2.4568 -0.3994
 9323TIP3    H249385   3.434   4.805  12.721  1.2707 -0.2987 -2.5913
 9324TIP3   OH249386   4.043   6.550   2.790  0.8137  0.2859 -0.4601
 9324TIP3    H149387   3.982   6.508   2.851  1.3176  1.2331  0.7227
 9324TIP3    H249388   4.121   6.493   2.792  1.2196  0.8581  0.5831
 9325TIP3   OH249389   3.974   4.252  11.562 -0.0752 -0.0049 -0.1377
 9325TIP3    H149390   4.054   4.286  11.522  0.4439  0.9311  1.6592
 9325TIP3    H249391   4.004   4.180  11.618 -0.6187 -0.3631 -0.2992
 9326TIP3   OH249392   6.455   4.762   4.684  0.2292  0.5692  0.5362
 9326TIP3    H149393   6.492   4.690   4.736 -1.9724 -0.2132  1.0732
 9326TIP3    H249394   6.508   4.763   4.604  0.6819 -1.2569  0.7925
 9327TIP3   OH249395   4.488   2.123   1.139  0.0786 -0.0321 -0.1048
 9327TIP3    H149396   4.452   2.100   1.225 -0.7167 -1.1498 -0.7230
 9327TIP3    H249397   4.509   2.039   1.098  0.2316  0.4795 -1.0952
 9328TIP3   OH249398   5.543   2.447   3.320 -0.1067  0.0277  0.1031
 9328TIP3    H149399   5.625   2.495   3.336  2.1605 -3.1238 -1.4329
 9328TIP3    H249400   5.496   2.500   3.256  2.1761  0.3897 -1.3190
 9329TIP3   OH249401   2.506   1.654   0.014 -0.0442  0.2000 -0.0736
 9329TIP3    H149402   2.573   1.689   0.073  0.7681  1.5219 -1.7102
 9329TIP3    H249403   2.544   1.664  -0.074 -0.7179 -2.8317 -0.7537
 9330TIP3   OH249404   3.876   5.698   3.612  0.0633 -0.0413 -0.8195
 9330TIP3    H149405   3.808   5.752   3.571 -0.2864  0.1107 -0.0528
 9330TIP3    H249406   3.936   5.676   3.541  0.4781  1.7785 -1.0459
 9331TIP3   OH249407   3.982   1.751  14.033  0.2283  0.2571  0.1720
 9331TIP3    H149408   4.015   1.711  14.114  0.3252  1.4665  0.7465
 9331TIP3    H249409   3.887   1.754  14.045  0.4113  2.6890  1.3387
 9332TIP3   OH249410   6.410   0.630   4.500  0.2883 -0.0236 -0.1857
 9332TIP3    H149411   6.328   0.594   4.534  0.7876 -1.7198 -0.7360
 9332TIP3    H249412   6.399   0.629   4.405  0.1677  1.6655 -0.2049
 9333TIP3   OH249413   1.152   6.415  15.096  0.1729 -0.0512  0.2113
 9333TIP3    H149414   1.195   6.353  15.155 -0.5494 -0.2769  0.5036
 9333TIP3    H249415   1.091   6.463  15.152 -0.0627  0.1707 -0.2319
 9334TIP3   OH249416   4.166   2.098   4.343  0.3332 -0.3854 -0.2662
 9334TIP3    H149417   4.102   2.066   4.279  0.4980  0.4709 -0.8801
 9334TIP3    H249418   4.151   2.045   4.421 -1.1311 -0.2028 -0.4055
 9335TIP3   OH249419   2.922   6.774  16.474 -0.1301 -0.0252 -0.6046
 9335TIP3    H149420   2.832   6.781  16.443  0.0322 -0.2460 -1.1423
 9335TIP3    H249421   2.956   6.695  16.431  0.5840  0.5414 -1.0850
 9336TIP3   OH249422   0.174   2.861  12.447 -0.2335  0.6096  0.6122
 9336TIP3    H149423   0.084   2.875  12.477 -0.3639  2.2021 -0.4746
 9336TIP3    H249424   0.198   2.777  12.485 -1.6799  0.8327  2.1105
 9337TIP3   OH249425   3.283   2.400   2.674  0.4509 -0.3288 -0.2747
 9337TIP3    H149426   3.307   2.423   2.763  0.8970 -0.7524 -0.2854
 9337TIP3    H249427   3.228   2.473   2.644  0.2999 -0.1875  0.3410
 9338TIP3   OH249428   2.471   0.603  15.383 -0.3991 -0.0629 -0.5775
 9338TIP3    H149429   2.396   0.587  15.440  1.3861  0.1602  1.8891
 9338TIP3    H249430   2.518   0.519  15.379  0.5731  0.4441 -0.0683
 9339TIP3   OH249431   5.812   5.439   1.080 -0.2172 -0.0701  0.0530
 9339TIP3    H149432   5.843   5.492   1.007  1.1293  1.9425  2.0132
 9339TIP3    H249433   5.718   5.429   1.064  0.2401 -0.6655 -2.5216
 9340TIP3   OH249434   6.481   5.366  15.184 -0.3250  0.0177 -0.1709
 9340TIP3    H149435   6.437   5.283  15.161  0.7051 -0.9302  1.1935
 9340TIP3    H249436   6.413   5.433  15.172 -1.3608 -1.0960 -0.6810
 9341TIP3   OH249437   4.126   4.803  13.894  0.0786 -0.4864 -0.7727
 9341TIP3    H149438   4.068   4.797  13.970  0.2259 -0.1036 -0.6246
 9341TIP3    H249439   4.071   4.779  13.820  0.2392 -2.0074 -0.4129
 9342TIP3   OH249440   4.861   3.814   3.367 -0.0369  0.4249  0.3472
 9342TIP3    H149441   4.774   3.775   3.356 -0.3596  1.0635  0.6235
 9342TIP3    H249442   4.892   3.828   3.278  0.2947 -0.9399  0.2442
 9343TIP3   OH249443   6.405   6.305   4.435 -0.0161 -0.3906 -0.3621
 9343TIP3    H149444   6.432   6.291   4.344 -1.9593 -0.0041 -1.0144
 9343TIP3    H249445   6.381   6.398   4.439  0.9027 -0.1868  0.7818
 9344TIP3   OH249446   4.644   1.016   2.865  0.3656 -0.4917  0.0172
 9344TIP3    H149447   4.701   1.076   2.913  0.2213 -1.1904  1.0957
 9344TIP3    H249448   4.626   1.060   2.783 -0.4536  1.3350  1.1495
 9345TIP3   OH249449   5.658   4.828  14.645 -0.4308 -0.4164 -0.0586
 9345TIP3    H149450   5.676   4.764  14.714  2.0287 -0.3197 -0.5877
 9345TIP3    H249451   5.582   4.876  14.678  1.4226  0.4639  3.2206
 9346TIP3   OH249452   2.148   0.243  15.017 -0.7480 -0.4720  0.0241
 9346TIP3    H149453   2.099   0.225  14.936 -0.3548  0.3959 -0.4058
 9346TIP3    H249454   2.215   0.175  15.020 -1.5457 -1.2580  0.2662
 9347TIP3   OH249455   2.765   5.854   2.633 -0.5551  0.1893 -0.4330
 9347TIP3    H149456   2.790   5.777   2.583  0.0728  1.1947 -1.6883
 9347TIP3    H249457   2.721   5.819   2.711  1.5824 -1.4732  0.0580
 9348TIP3   OH249458   2.258   3.566  14.777 -0.3676  0.4762  0.3545
 9348TIP3    H149459   2.226   3.536  14.691  0.5145 -0.6786  0.4153
 9348TIP3    H249460   2.196   3.529  14.840  1.6745 -2.7617  0.5650
 9349TIP3   OH249461   2.629   2.303  16.133  0.4286 -0.3748  0.2312
 9349TIP3    H149462   2.589   2.226  16.092 -0.4832 -0.4687  1.2491
 9349TIP3    H249463   2.680   2.267  16.206 -0.4482  0.0024  1.0515
 9350TIP3   OH249464   5.758   0.396  11.752 -0.1182  0.3071  0.1758
 9350TIP3    H149465   5.713   0.312  11.759 -1.0055  0.6889 -0.6716
 9350TIP3    H249466   5.734   0.443  11.831  0.9028 -0.4818  0.9560
 9351TIP3   OH249467   3.387   4.953   0.799  0.9590  0.1447 -0.4919
 9351TIP3    H149468   3.405   5.038   0.757 -0.2114  0.8142  0.3265
 9351TIP3    H249469   3.380   4.973   0.892 -2.0990 -0.3321 -0.5542
 9352TIP3   OH249470   3.005   4.710  14.994  0.5558  0.0080 -0.1786
 9352TIP3    H149471   2.928   4.709  14.936 -0.3922 -1.8598  1.0583
 9352TIP3    H249472   3.072   4.664  14.943 -0.2270 -1.4936  0.0935
 9353TIP3   OH249473   2.690   4.739  11.886 -0.2933  0.0774 -0.0937
 9353TIP3    H149474   2.773   4.695  11.902 -0.2735  0.3771  0.6647
 9353TIP3    H249475   2.672   4.724  11.793  1.1365  0.9425 -0.5155
 9354TIP3   OH249476   0.679   3.541   3.224 -0.1308 -0.4516 -0.0449
 9354TIP3    H149477   0.693   3.553   3.130  0.7423  0.8998  0.2401
 9354TIP3    H249478   0.762   3.506   3.256  0.7668  2.3155  0.7570
 9355TIP3   OH249479   4.746   2.330  11.901 -0.2945 -0.1839 -0.4446
 9355TIP3    H149480   4.746   2.425  11.912 -0.5952 -0.0807 -1.3569
 9355TIP3    H249481   4.792   2.297  11.979  0.8411  0.7706 -0.6992
 9356TIP3   OH249482   4.587   0.035  15.346 -0.2534  0.0510 -0.3078
 9356TIP3    H149483   4.672   0.002  15.376 -0.4961 -0.5637 -0.2781
 9356TIP3    H249484   4.596   0.130  15.349 -0.1293 -0.0012  1.3148
 9357TIP3   OH249485   3.304   1.070  16.576 -0.3308  0.5969 -0.1226
 9357TIP3    H149486   3.299   0.979  16.548  2.6243  0.4076 -0.2182
 9357TIP3    H249487   3.228   1.082  16.634  0.3821 -2.5409  1.5661
 9358TIP3   OH249488   3.241   3.479   6.614  0.2979  0.8123  0.0944
 9358TIP3    H149489   3.311   3.418   6.639 -1.1575 -0.7310  0.5421
 9358TIP3    H249490   3.245   3.548   6.680  0.5985  0.0564  0.8897
 9359TIP3   OH249491   3.879   5.466   0.434 -0.5059  0.0306 -0.6212
 9359TIP3    H149492   3.886   5.535   0.500 -0.1342  0.7144 -1.3661
 9359TIP3    H249493   3.958   5.476   0.380 -0.7787 -0.5512 -1.1398
 9360TIP3   OH249494   2.680   5.293  15.207  0.0430 -0.8467 -0.2571
 9360TIP3    H149495   2.770   5.271  15.181  0.3060  0.9505 -0.9263
 9360TIP3    H249496   2.671   5.386  15.186 -2.3204 -1.2466 -1.1564
 9361TIP3   OH249497   1.809   6.493   2.024  0.2045 -0.0750  0.1027
 9361TIP3    H149498   1.782   6.434   1.954 -2.2846  1.7934 -0.5679
 9361TIP3    H249499   1.752   6.472   2.097  1.3803 -0.5722  0.8944
 9362TIP3   OH249500   2.316   5.127   0.985  0.3743  0.2705 -0.0896
 9362TIP3    H149501   2.306   5.040   1.023  0.4213  0.6268  0.7609
 9362TIP3    H249502   2.304   5.187   1.059  1.2966  0.9512 -0.4787
 9363TIP3   OH249503   2.601   6.682  13.112 -0.0497  0.0870  0.7189
 9363TIP3    H149504   2.639   6.604  13.071  0.8091 -0.2603  2.1216
 9363TIP3    H249505   2.559   6.729  13.040  3.1470  0.5437 -0.9192
 9364TIP3   OH249506   4.513   4.610   1.632  0.9235 -0.1256 -0.1219
 9364TIP3    H149507   4.541   4.695   1.668 -0.4197  1.3146 -2.3626
 9364TIP3    H249508   4.524   4.620   1.537 -2.5691 -1.1999 -0.6876
 9365TIP3   OH249509   6.606   6.071   1.990  0.2106 -0.1559  0.5289
 9365TIP3    H149510   6.672   6.099   2.054 -1.6649  0.8162  2.0775
 9365TIP3    H249511   6.546   6.016   2.039 -0.5485 -0.4350 -0.6933
 9366TIP3   OH249512   4.594   1.416  11.312  0.0760  0.3190  0.0315
 9366TIP3    H149513   4.686   1.416  11.285 -0.2187 -1.9717 -1.1039
 9366TIP3    H249514   4.545   1.424  11.230 -0.7596  0.4791  0.5419
 9367TIP3   OH249515   4.585   3.268  11.753 -0.0647  0.0248 -0.5800
 9367TIP3    H149516   4.541   3.268  11.838  0.3400 -2.8679 -0.3109
 9367TIP3    H249517   4.526   3.218  11.696 -0.4945  2.2147 -2.1311
 9368TIP3   OH249518   2.015   3.715  14.056 -0.8943 -0.1087 -0.0997
 9368TIP3    H149519   1.947   3.667  14.008 -0.6178 -1.3260  0.7205
 9368TIP3    H249520   2.048   3.653  14.121  1.4309  0.2691 -0.8753
 9369TIP3   OH249521   1.115   1.968   0.421  0.3112 -0.0444 -0.1213
 9369TIP3    H149522   1.119   2.008   0.334 -1.4629 -2.3561 -1.3329
 9369TIP3    H249523   1.207   1.948   0.442  0.9643  2.3265 -0.5515
 9370TIP3   OH249524   2.883   1.975  14.273  0.7780 -0.2485  0.4775
 9370TIP3    H149525   2.812   1.972  14.210 -0.8169  0.6268  2.1828
 9370TIP3    H249526   2.859   2.045  14.334  2.9651 -0.1055  1.2449
 9371TIP3   OH249527   5.589   1.827  12.880 -0.9292 -0.7316 -0.4337
 9371TIP3    H149528   5.551   1.743  12.856 -1.9323  0.1998 -2.1708
 9371TIP3    H249529   5.647   1.806  12.954 -2.3443 -2.6703  0.1823
 9372TIP3   OH249530   3.904   0.043   4.698 -0.2408  0.4332  0.6504
 9372TIP3    H149531   3.835   0.101   4.666  1.3678  2.9815  1.6326
 9372TIP3    H249532   3.954   0.096   4.759  2.0580 -1.6261  0.6537
 9373TIP3   OH249533   2.399   4.626  15.919 -0.1860 -0.4009 -0.4179
 9373TIP3    H149534   2.325   4.566  15.930 -1.1202  0.4501 -1.8900
 9373TIP3    H249535   2.377   4.702  15.974 -1.0923  0.4438 -1.9016
 9374TIP3   OH249536   3.186   1.066   0.069  0.1785 -0.1470 -0.1152
 9374TIP3    H149537   3.125   1.109   0.130 -2.1385 -2.6263 -0.6073
 9374TIP3    H249538   3.185   0.974   0.095  2.0836 -0.5931 -1.5401
 9375TIP3   OH249539   3.288   4.986   4.558 -0.2844 -0.0202  0.3650
 9375TIP3    H149540   3.292   4.900   4.601 -2.1487 -0.2725  0.0693
 9375TIP3    H249541   3.309   4.968   4.466 -2.7793 -0.5245 -0.1387
 9376TIP3   OH249542   0.937   2.867   0.135  0.3688  0.1127  0.4684
 9376TIP3    H149543   1.014   2.857   0.078 -0.2403 -0.2516 -0.3025
 9376TIP3    H249544   0.924   2.781   0.174 -0.5508 -0.2310 -0.5775
 9377TIP3   OH249545   6.527   3.994  14.137  0.2050  0.0586  0.1020
 9377TIP3    H149546   6.542   4.088  14.136  1.3968 -0.1295  0.0659
 9377TIP3    H249547   6.572   3.963  14.215  0.1436 -0.5358 -0.0934
 9378TIP3   OH249548   0.200   2.562   3.565 -0.7299 -0.0567 -0.2686
 9378TIP3    H149549   0.109   2.568   3.536 -0.4076  2.8317 -0.9062
 9378TIP3    H249550   0.245   2.629   3.514  1.5917 -0.8550  0.6759
 9379TIP3   OH249551   3.106   3.263   5.474 -0.1075  0.0535 -0.2197
 9379TIP3    H149552   3.066   3.331   5.528  0.1731 -0.4167  0.6074
 9379TIP3    H249553   3.036   3.231   5.417 -1.0816 -1.1734  1.6111
 9380TIP3   OH249554   5.072   2.121  16.061  0.7224  0.1744 -0.1079
 9380TIP3    H149555   5.073   2.025  16.062  1.3387  0.1854  0.7217
 9380TIP3    H249556   5.133   2.144  15.991  1.7806 -0.0254  0.7396
 9381TIP3   OH249557   4.939   0.161  15.182  0.0484 -0.2546 -0.3126
 9381TIP3    H149558   4.978   0.165  15.269 -0.2896 -1.5246 -0.0836
 9381TIP3    H249559   4.900   0.073  15.177  0.5956 -0.4292 -1.9752
 9382TIP3   OH249560   4.092   4.548  15.176 -0.3740 -0.0577  0.2421
 9382TIP3    H149561   4.105   4.599  15.257  1.4683 -0.0887 -0.0305
 9382TIP3    H249562   4.135   4.599  15.108  0.0881 -1.1905 -0.3231
 9383TIP3   OH249563   4.642   0.098  11.690 -0.4994  0.3170  0.2459
 9383TIP3    H149564   4.679   0.123  11.775  0.5026  2.1635 -0.7196
 9383TIP3    H249565   4.648   0.177  11.637  1.7035 -1.6189 -2.5361
 9384TIP3   OH249566   3.972   3.060  13.756  0.1484 -0.0563 -0.0486
 9384TIP3    H149567   3.894   3.113  13.771 -0.6845 -1.3144  0.1397
 9384TIP3    H249568   3.998   3.081  13.667 -0.9326 -0.2811 -0.4295
 9385TIP3   OH249569   4.359   4.995   1.841 -0.1913 -0.1563  0.7998
 9385TIP3    H149570   4.285   5.042   1.880  0.5823  1.8306 -0.0254
 9385TIP3    H249571   4.321   4.914   1.807 -1.4820 -0.4025  2.7244
 9386TIP3   OH249572   3.831   1.946   1.261  0.2002 -0.0829 -0.3876
 9386TIP3    H149573   3.879   1.863   1.256 -0.3605 -0.5191  1.1359
 9386TIP3    H249574   3.899   2.012   1.272  0.5767 -0.4850 -0.2603
 9387TIP3   OH249575   1.450   0.116  13.212 -0.2459 -0.2315 -0.4228
 9387TIP3    H149576   1.444   0.206  13.245  1.1209 -0.6174  0.9702
 9387TIP3    H249577   1.362   0.080  13.224 -0.0067 -0.0874  2.1168
 9388TIP3   OH249578   2.154   2.910  15.866  0.8067  0.1093 -0.0602
 9388TIP3    H149579   2.209   2.983  15.894  1.4780 -0.7697  0.9696
 9388TIP3    H249580   2.177   2.897  15.773  0.0665  1.7243 -0.4728
 9389TIP3   OH249581   4.410   5.040  13.672 -0.6912  0.4124  0.1455
 9389TIP3    H149582   4.326   5.002  13.644  0.2619  0.4617 -3.0158
 9389TIP3    H249583   4.420   5.118  13.617  0.3371  1.7215  2.1450
 9390TIP3   OH249584   2.406   4.145   3.191 -0.2103 -0.0545 -0.0023
 9390TIP3    H149585   2.343   4.217   3.204 -0.1386  0.2512 -1.2355
 9390TIP3    H249586   2.355   4.077   3.148  0.3027  0.2126 -1.0495
 9391TIP3   OH249587   5.582   1.700  16.460 -0.2651 -0.3248  0.1194
 9391TIP3    H149588   5.524   1.766  16.423 -0.1617 -0.3249 -0.0432
 9391TIP3    H249589   5.666   1.715  16.417 -0.0239 -0.0318  0.6781
 9392TIP3   OH249590   0.094   3.108   2.626  0.0800  0.7454  0.3925
 9392TIP3    H149591   0.177   3.118   2.672  0.0035  0.3495  0.6269
 9392TIP3    H249592   0.112   3.044   2.557 -0.2713 -0.1294  1.0876
 9393TIP3   OH249593   4.873   3.098   0.428 -0.0610  0.1953  0.2594
 9393TIP3    H149594   4.838   3.066   0.511  1.0709  3.2159  1.9778
 9393TIP3    H249595   4.796   3.113   0.373 -1.0801  1.2273  1.9353
 9394TIP3   OH249596   2.857   4.048   3.645 -0.5876  0.6242 -0.2947
 9394TIP3    H149597   2.782   4.007   3.602  0.2664  2.1498 -3.4050
 9394TIP3    H249598   2.832   4.140   3.655 -0.2211  0.5628  1.2423
 9395TIP3   OH249599   3.556   3.569   0.790 -0.2925  0.3906 -0.5632
 9395TIP3    H149600   3.593   3.648   0.751 -1.3334  0.3660 -1.6413
 9395TIP3    H249601   3.628   3.506   0.788  0.7179  1.4588  0.8339
 9396TIP3   OH249602   1.494   6.342   1.179  0.2624  0.3585 -0.2174
 9396TIP3    H149603   1.493   6.246   1.186  1.5622  0.4777  2.4131
 9396TIP3    H249604   1.567   6.361   1.120 -0.1896 -0.2669 -0.9890
 9397TIP3   OH249605   5.717   6.031   1.228 -0.3443 -0.1672  0.0039
 9397TIP3    H149606   5.713   5.986   1.312 -2.6668 -0.0742 -0.0136
 9397TIP3    H249607   5.805   6.013   1.194 -0.6479 -3.2932  0.7531
 9398TIP3   OH249608   1.421   3.393   3.691  0.4457 -0.1569 -0.2900
 9398TIP3    H149609   1.471   3.312   3.680  0.6749 -0.0259 -0.2049
 9398TIP3    H249610   1.406   3.424   3.602  1.1530  0.1966 -0.2850
 9399TIP3   OH249611   4.424   3.979   4.571  0.2259 -0.6175 -0.4833
 9399TIP3    H149612   4.506   3.996   4.525  0.8051 -2.1901 -0.0727
 9399TIP3    H249613   4.446   3.989   4.663 -0.7638  1.8356 -0.4948
 9400TIP3   OH249614   2.417   6.003   0.446 -0.0747 -0.0038 -0.0625
 9400TIP3    H149615   2.442   5.913   0.427 -1.7274 -0.3788 -0.5403
 9400TIP3    H249616   2.441   6.051   0.366 -0.4200 -0.2739 -0.3338
 9401TIP3   OH249617   4.535   4.159  11.501 -0.1942  0.5748  0.2530
 9401TIP3    H149618   4.603   4.127  11.560 -0.6427 -0.4438  0.2380
 9401TIP3    H249619   4.506   4.081  11.453  0.5733  1.4722 -1.7491
 9402TIP3   OH249620   0.694   4.034   2.810 -0.0423 -0.3600  0.4241
 9402TIP3    H149621   0.669   4.021   2.902  0.6140 -0.5952  0.5709
 9402TIP3    H249622   0.610   4.046   2.764 -0.3536  0.2870  1.1303
 9403TIP3   OH249623   1.636   1.626  16.795  0.5867  0.2088  0.0280
 9403TIP3    H149624   1.625   1.706  16.847 -2.6912  0.0919 -0.3588
 9403TIP3    H249625   1.622   1.654  16.704 -2.8407 -1.0987  0.0691
 9404TIP3   OH249626   0.317   1.181  11.533  0.0320 -0.2095  0.0871
 9404TIP3    H149627   0.317   1.191  11.438 -1.1356 -0.2193  0.0799
 9404TIP3    H249628   0.409   1.184  11.557  0.3732 -0.8124 -1.1095
 9405TIP3   OH249629   0.939   0.773   1.297  0.2306  0.0653  0.0487
 9405TIP3    H149630   0.908   0.862   1.311  0.8783  0.5277 -1.4244
 9405TIP3    H249631   0.881   0.737   1.229  0.9897 -0.0917 -0.5191
 9406TIP3   OH249632   2.549   6.227  16.447 -0.4794 -1.0001  0.0790
 9406TIP3    H149633   2.516   6.152  16.497 -1.2846  1.1340  2.8934
 9406TIP3    H249634   2.643   6.228  16.464 -0.6563 -0.6547  1.0350
 9407TIP3   OH249635   1.466   6.595  16.935  0.2293 -0.4309 -0.8830
 9407TIP3    H149636   1.448   6.506  16.965  0.4253 -1.1044 -2.7013
 9407TIP3    H249637   1.391   6.646  16.964 -0.4440 -1.4353 -0.8428
 9408TIP3   OH249638   4.150   5.219   1.766 -0.4667  0.3104  0.4581
 9408TIP3    H149639   4.099   5.272   1.705 -0.6608  0.6810  0.9390
 9408TIP3    H249640   4.193   5.283   1.823  0.6884  0.0114 -0.0642
 9409TIP3   OH249641   3.981   4.762  14.143  0.8534 -0.5260  0.1918
 9409TIP3    H149642   4.007   4.763  14.235  1.6639  3.4346  0.0119
 9409TIP3    H249643   3.889   4.738  14.144  1.3522 -2.4291  1.8632
 9410TIP3   OH249644   1.358   0.746  13.640 -0.4939  0.0889 -0.2750
 9410TIP3    H149645   1.385   0.688  13.711 -0.5844  1.8371  1.2174
 9410TIP3    H249646   1.375   0.695  13.560  1.9768 -0.9754  0.8576
 9411TIP3   OH249647   6.691   5.621  13.120 -0.2906  0.2630  0.7034
 9411TIP3    H149648   6.785   5.608  13.131 -0.1910  1.6031  1.4965
 9411TIP3    H249649   6.683   5.709  13.083 -1.2082 -0.0919  0.0205
 9412TIP3   OH249650   5.154   1.473  14.344  0.6873 -0.2163 -0.0354
 9412TIP3    H149651   5.209   1.547  14.369  0.9367 -0.6790  0.8199
 9412TIP3    H249652   5.074   1.485  14.395  0.3918 -0.0934 -0.5206
 9413TIP3   OH249653   5.071   3.821   1.978 -0.2063 -0.0636 -0.0108
 9413TIP3    H149654   5.113   3.869   2.049 -0.2304 -0.6547  0.4126
 9413TIP3    H249655   4.978   3.838   1.989 -0.0812  1.2071 -0.9187
 9414TIP3   OH249656   4.491   3.359   2.036 -0.5448  0.8838  0.3066
 9414TIP3    H149657   4.562   3.389   2.092 -2.1968  1.0301  2.3952
 9414TIP3    H249658   4.473   3.434   1.979  0.7533  0.9596 -0.0016
 9415TIP3   OH249659   2.584   5.705  16.892  0.0459 -0.1013 -0.4805
 9415TIP3    H149660   2.543   5.624  16.923 -1.3432  1.1445  1.0851
 9415TIP3    H249661   2.674   5.700  16.923 -0.6632  0.0001  1.7163
 9416TIP3   OH249662   3.367   5.833   2.474  0.5268  0.5867 -0.1252
 9416TIP3    H149663   3.457   5.844   2.503  0.1483  0.8607  0.9808
 9416TIP3    H249664   3.374   5.788   2.389  1.6261 -0.9783  0.7713
 9417TIP3   OH249665   5.793   6.093   2.123  0.5168 -0.4579 -0.0739
 9417TIP3    H149666   5.796   6.167   2.183 -0.5008 -0.2678 -0.2433
 9417TIP3    H249667   5.884   6.065   2.115  0.7571  0.0123  0.9290
 9418TIP3   OH249668   3.056   3.771  14.269 -0.2241  0.4047  0.6026
 9418TIP3    H149669   3.063   3.716  14.191  0.7589 -1.2869  1.8401
 9418TIP3    H249670   2.997   3.723  14.327 -0.6820  1.4861  1.0413
 9419TIP3   OH249671   2.305   2.581   5.809  0.2593 -0.2837 -0.2672
 9419TIP3    H149672   2.386   2.631   5.821 -1.1835  1.9801  0.2505
 9419TIP3    H249673   2.307   2.556   5.717  0.6627  1.3590 -0.7219
 9420TIP3   OH249674   2.484   4.728   4.555 -0.3933 -0.4647 -0.1762
 9420TIP3    H149675   2.448   4.807   4.514  1.3204  0.4282  0.0046
 9420TIP3    H249676   2.574   4.724   4.523  0.0373 -1.4323  1.1459
 9421TIP3   OH249677   4.303   6.743   3.989 -0.4084 -0.2747  0.0195
 9421TIP3    H149678   4.339   6.656   4.005 -0.0323  0.2694  2.4618
 9421TIP3    H249679   4.209   6.732   4.003 -0.2106 -0.0483  1.7143
 9422TIP3   OH249680   0.042   3.752   4.349 -0.0033 -0.3880  0.3729
 9422TIP3    H149681   0.014   3.661   4.339 -0.8361 -0.0636 -0.3821
 9422TIP3    H249682   0.001   3.781   4.431  0.3547 -0.7270  0.6711
 9423TIP3   OH249683   0.160   6.321  16.079 -1.0822  0.1823 -0.0964
 9423TIP3    H149684   0.083   6.352  16.127 -0.9588  0.7520 -0.2576
 9423TIP3    H249685   0.165   6.379  16.003 -0.1490  0.5283  0.2257
 9424TIP3   OH249686   2.056   6.547  12.411 -0.2068  0.5654 -0.1444
 9424TIP3    H149687   2.051   6.515  12.321  2.2222  0.7235 -0.3631
 9424TIP3    H249688   1.976   6.598  12.422 -1.3531 -0.8368 -1.6504
 9425TIP3   OH249689   3.105   2.922   5.721 -0.1776 -0.4932  0.3305
 9425TIP3    H149690   3.118   2.828   5.706 -0.8189 -0.4190 -0.7630
 9425TIP3    H249691   3.157   2.941   5.799 -0.6010 -1.8979  0.9872
 9426TIP3   OH249692   1.932   3.757   2.833  0.2871 -0.8001  0.0284
 9426TIP3    H149693   1.952   3.834   2.887  2.9243 -1.3460 -0.1265
 9426TIP3    H249694   1.892   3.695   2.894  1.3274 -0.6095  0.9134
 9427TIP3   OH249695   5.473   6.429  16.857  0.0924  0.3235  0.0613
 9427TIP3    H149696   5.471   6.470  16.944 -0.1820 -0.3611  0.3851
 9427TIP3    H249697   5.394   6.460  16.814 -0.5947 -0.5960  0.6480
 9428TIP3   OH249698   6.592   5.798   0.418  0.1331  0.5007  0.5630
 9428TIP3    H149699   6.527   5.865   0.394  0.1693  0.7809  1.2587
 9428TIP3    H249700   6.637   5.779   0.335 -0.6699  0.4809  0.1230
 9429TIP3   OH249701   2.722   5.942  16.153 -0.3456  0.1472 -0.4124
 9429TIP3    H149702   2.771   5.898  16.084 -1.3119  0.1282 -1.0888
 9429TIP3    H249703   2.750   5.898  16.234 -0.7279 -1.2117 -1.0053
 9430TIP3   OH249704   5.569   1.815   1.618  0.0785  0.0401  0.2305
 9430TIP3    H149705   5.648   1.786   1.573 -1.9184 -1.7949 -2.2540
 9430TIP3    H249706   5.523   1.870   1.554 -0.5912  1.2217  1.6931
 9431TIP3   OH249707   1.140   5.533  13.195  0.1846  0.0148 -0.5397
 9431TIP3    H149708   1.170   5.618  13.227  0.5507  0.1889 -1.3210
 9431TIP3    H249709   1.126   5.481  13.273 -1.9923  1.4418  0.0560
 9432TIP3   OH249710   1.204   3.499   4.903 -0.2624  0.6378  0.7089
 9432TIP3    H149711   1.161   3.494   4.988  1.6838  0.2766  1.6938
 9432TIP3    H249712   1.158   3.569   4.857 -2.0315  0.1159  1.6497
 9433TIP3   OH249713   6.385   6.266  14.407  0.4881 -0.3800  0.2059
 9433TIP3    H149714   6.310   6.273  14.347  1.7736  2.0487 -1.2001
 9433TIP3    H249715   6.437   6.193  14.372 -0.2226 -0.8095  0.0390
 9434TIP3   OH249716   0.203   1.875   0.162 -0.0948  0.0812  0.1199
 9434TIP3    H149717   0.140   1.806   0.141 -1.8376  1.7160 -0.1130
 9434TIP3    H249718   0.231   1.855   0.252 -0.6989 -0.8329  0.1144
 9435TIP3   OH249719   0.223   4.263  11.505 -0.4755 -0.0815  0.1603
 9435TIP3    H149720   0.276   4.292  11.580 -0.7974 -0.5030  0.5563
 9435TIP3    H249721   0.138   4.307  11.517 -0.2996  0.3988 -0.3387
 9436TIP3   OH249722   4.253   5.226   5.275  0.5982 -0.2743 -0.3034
 9436TIP3    H149723   4.201   5.189   5.203  1.0995 -0.9132 -0.3402
 9436TIP3    H249724   4.263   5.153   5.337  0.7687  0.0749  0.0833
 9437TIP3   OH249725   1.081   5.834  13.869 -0.3586  0.3719 -0.3147
 9437TIP3    H149726   1.166   5.864  13.902  0.6511 -0.2578 -2.2332
 9437TIP3    H249727   1.103   5.769  13.802 -2.3191  0.8387 -1.4634
 9438TIP3   OH249728   1.702   2.429   5.984  0.1147  0.3962  0.3757
 9438TIP3    H149729   1.793   2.456   5.975  0.7565 -1.7164  0.2926
 9438TIP3    H249730   1.694   2.403   6.076 -0.2199 -0.0702  0.2180
 9439TIP3   OH249731   1.681   2.948  14.639 -0.3941  0.5434 -0.4579
 9439TIP3    H149732   1.606   2.942  14.580 -1.6188 -0.6034  1.1918
 9439TIP3    H249733   1.753   2.977  14.582 -2.1542  2.1110 -1.9692
 9440TIP3   OH249734   0.655   2.496   3.957 -0.1294 -0.0419  0.1357
 9440TIP3    H149735   0.750   2.494   3.948 -0.0921  1.1248  0.2900
 9440TIP3    H249736   0.636   2.580   3.999 -1.1936 -0.4594  0.5103
 9441TIP3   OH249737   5.116   3.793  13.676  0.0827 -0.2102  0.2269
 9441TIP3    H149738   5.109   3.849  13.754 -2.2508  0.3388 -0.3665
 9441TIP3    H249739   5.119   3.704  13.711  0.0093  0.0839  0.9941
 9442TIP3   OH249740   1.482   6.154   2.756 -0.1018  0.0327  0.5221
 9442TIP3    H149741   1.430   6.229   2.728 -1.6430  0.3967  4.1165
 9442TIP3    H249742   1.449   6.081   2.703  1.6743  1.8647 -3.2727
 9443TIP3   OH249743   1.886   4.511  13.028 -0.2880 -0.1601  0.6268
 9443TIP3    H149744   1.976   4.478  13.037  0.3552  1.2250 -0.4690
 9443TIP3    H249745   1.875   4.570  13.102  0.2836  0.8886 -0.1034
 9444TIP3   OH249746   5.238   4.010   4.824  0.3576 -0.4515 -0.7091
 9444TIP3    H149747   5.182   4.071   4.872 -0.1950 -1.5569  0.0928
 9444TIP3    H249748   5.319   4.006   4.875  0.1568 -0.8533 -0.4167
 9445TIP3   OH249749   3.935   1.059   3.622  0.0316  0.1367 -0.6603
 9445TIP3    H149750   3.905   0.996   3.556 -1.1221  2.0494 -1.9992
 9445TIP3    H249751   4.024   1.082   3.595  0.4357 -0.8370 -0.1993
 9446TIP3   OH249752   2.948   3.040  15.288 -0.2158 -0.0527 -0.0709
 9446TIP3    H149753   2.963   2.967  15.348  1.3647  0.2124 -0.1248
 9446TIP3    H249754   3.010   3.026  15.217 -1.5822  0.0294 -1.2917
 9447TIP3   OH249755   5.282   6.439  12.462 -0.2816 -0.4341  0.7972
 9447TIP3    H149756   5.322   6.373  12.405 -0.1847  1.6593 -1.5964
 9447TIP3    H249757   5.335   6.435  12.543  0.9391 -1.9175 -0.0400
 9448TIP3   OH249758   3.810   1.851  14.853 -0.0579  0.6809  0.5802
 9448TIP3    H149759   3.726   1.850  14.899 -0.4553 -0.1118 -0.1459
 9448TIP3    H249760   3.874   1.870  14.921 -0.8511  1.5533  1.0962
 9449TIP3   OH249761   3.088   5.422   3.797 -0.5122  0.1046 -0.0526
 9449TIP3    H149762   3.069   5.329   3.782  2.4961 -0.5585 -0.2016
 9449TIP3    H249763   3.028   5.468   3.740 -2.3918 -1.7285  0.3680
 9450TIP3   OH249764   1.184   1.058   3.410 -0.2075  0.4375 -0.4984
 9450TIP3    H149765   1.129   1.000   3.462  0.8520  0.8943  1.1576
 9450TIP3    H249766   1.126   1.130   3.386 -0.4945  0.6110  0.7022
 9451TIP3   OH249767   1.244   2.460  12.837 -0.2597 -0.0483  0.1214
 9451TIP3    H149768   1.306   2.497  12.774  0.9263  2.0378  2.4332
 9451TIP3    H249769   1.159   2.490  12.807 -0.1382 -2.0554 -2.4840
 9452TIP3   OH249770   4.877   0.541  14.981 -0.1602  0.6435  0.2409
 9452TIP3    H149771   4.804   0.592  15.016 -0.3904 -0.3274  1.1964
 9452TIP3    H249772   4.856   0.531  14.888 -1.3128  0.2781  0.5249
 9453TIP3   OH249773   3.166   4.653  14.485 -0.0285 -0.1884  0.7493
 9453TIP3    H149774   3.148   4.562  14.461 -0.3541 -0.0907  0.6195
 9453TIP3    H249775   3.081   4.696  14.480  0.5658  0.7926 -2.0863
 9454TIP3   OH249776   6.522   2.020   4.103 -0.2665 -0.2157 -0.0718
 9454TIP3    H149777   6.556   2.000   4.016 -0.1714 -2.3842  0.4283
 9454TIP3    H249778   6.427   2.030   4.090 -0.2080 -0.1691 -0.4760
 9455TIP3   OH249779   5.982   0.346   3.909 -0.6443  0.2607 -0.1107
 9455TIP3    H149780   6.077   0.342   3.916 -0.8561 -3.7320  2.2276
 9455TIP3    H249781   5.955   0.413   3.972  0.6231  1.8999 -1.2927
 9456TIP3   OH249782   1.089   1.235  11.956  0.1987  0.0070  0.0114
 9456TIP3    H149783   1.035   1.156  11.964 -3.2067  2.0313 -2.0320
 9456TIP3    H249784   1.178   1.201  11.946 -1.1512 -3.6159 -0.7358
 9457TIP3   OH249785   1.157   1.989  17.170  0.0060  1.1837  0.4497
 9457TIP3    H149786   1.131   2.006  17.260 -0.0649  2.1960  0.2436
 9457TIP3    H249787   1.155   1.894  17.161 -0.5138  1.1124  1.3550
 9458TIP3   OH249788   6.348   1.610  11.938  0.1619  0.0887 -0.2949
 9458TIP3    H149789   6.268   1.634  11.985 -0.3461 -2.4617  0.2138
 9458TIP3    H249790   6.319   1.594  11.848  0.4901  1.2354 -0.6195
 9459TIP3   OH249791   5.392   2.452   2.816  0.3631  0.6943  0.4118
 9459TIP3    H149792   5.483   2.465   2.843 -0.2758  0.3812  2.7813
 9459TIP3    H249793   5.348   2.534   2.836  0.0013  0.6861 -0.3132
 9460TIP3   OH249794   5.114   6.313  16.683  0.2126  0.1540 -0.4684
 9460TIP3    H149795   5.154   6.249  16.742  0.1977  0.1720 -0.4393
 9460TIP3    H249796   5.168   6.308  16.603 -0.9023 -1.2654 -1.1651
 9461TIP3   OH249797   6.443   4.891   5.317  0.4156  0.5914  0.0032
 9461TIP3    H149798   6.478   4.979   5.331  1.5171  0.4539 -1.6890
 9461TIP3    H249799   6.348   4.901   5.326  0.6171  1.7285  0.9250
 9462TIP3   OH249800   0.767   3.623   3.604  0.3291 -0.0971 -0.0685
 9462TIP3    H149801   0.681   3.583   3.588  0.7439 -1.7000  1.4840
 9462TIP3    H249802   0.823   3.587   3.536 -0.2896  1.1945 -1.2773
 9463TIP3   OH249803   5.842   4.204   2.722  0.5242 -0.4699 -0.5840
 9463TIP3    H149804   5.884   4.177   2.640 -0.3659  1.0873 -1.5671
 9463TIP3    H249805   5.792   4.127   2.750 -0.2166 -0.5980 -2.1996
 9464TIP3   OH249806   1.497   5.600   5.327  0.7268 -0.4426 -0.1301
 9464TIP3    H149807   1.411   5.602   5.286 -0.0746  0.7185  1.5462
 9464TIP3    H249808   1.487   5.539   5.400  1.7248 -1.3578 -0.7424
 9465TIP3   OH249809   6.341   0.106  13.897  0.4754  0.0017  0.0688
 9465TIP3    H149810   6.343   0.012  13.910  0.8888  0.0886  0.7276
 9465TIP3    H249811   6.410   0.123  13.833  0.4491 -0.1376  0.0039
 9466TIP3   OH249812   2.392   2.666   4.463  0.0419  0.1676 -0.3570
 9466TIP3    H149813   2.389   2.743   4.519 -1.0876  0.6159 -0.9970
 9466TIP3    H249814   2.485   2.650   4.447  0.2663  1.6927 -0.6134
 9467TIP3   OH249815   1.192   6.230   3.899  0.3196 -0.2930 -0.2601
 9467TIP3    H149816   1.220   6.211   3.989  0.1350 -1.5192 -0.4556
 9467TIP3    H249817   1.141   6.311   3.907  1.2613  0.2250  0.5658
 9468TIP3   OH249818   3.848   5.606   2.059 -0.0820 -0.1982 -0.1741
 9468TIP3    H149819   3.878   5.553   1.985  1.3160 -0.1214  0.3112
 9468TIP3    H249820   3.927   5.653   2.088 -1.4257  2.7387 -1.0696
 9469TIP3   OH249821   4.145   6.330   0.612  0.5036 -0.4790 -0.7379
 9469TIP3    H149822   4.132   6.243   0.574  1.3723  0.2489 -2.7969
 9469TIP3    H249823   4.111   6.323   0.701 -1.9465 -2.1636 -1.7598
 9470TIP3   OH249824   0.302   4.726   5.268 -0.4700 -0.0724  0.8182
 9470TIP3    H149825   0.330   4.809   5.230 -2.1056 -0.2142 -0.7962
 9470TIP3    H249826   0.312   4.663   5.196 -2.3283 -0.6078  0.9961
 9471TIP3   OH249827   0.208   6.102   4.316  0.1254  0.2709 -0.0530
 9471TIP3    H149828   0.234   6.010   4.313  0.2716  0.3365 -0.7756
 9471TIP3    H249829   0.113   6.100   4.317  0.1242  0.0305  2.5435
 9472TIP3   OH249830   2.303   6.212  14.780 -0.3669 -0.0004 -0.6655
 9472TIP3    H149831   2.249   6.196  14.857 -1.7690  1.0150 -1.4231
 9472TIP3    H249832   2.389   6.236  14.816 -1.0983  0.7929  0.5882
 9473TIP3   OH249833   1.793   6.735   1.505 -0.0454  0.3119  0.2757
 9473TIP3    H149834   1.839   6.819   1.508  0.9493 -0.1386 -1.6053
 9473TIP3    H249835   1.839   6.684   1.439 -0.0503 -2.0930  2.0327
 9474TIP3   OH249836   2.130   1.167  13.350  0.4371  0.4902  0.7321
 9474TIP3    H149837   2.075   1.099  13.389  0.1600 -0.0960 -0.6441
 9474TIP3    H249838   2.069   1.230  13.312  0.6857 -0.4468 -1.2805
 9475TIP3   OH249839   3.930   3.612   5.112  0.3965  0.4888  0.4958
 9475TIP3    H149840   3.923   3.580   5.202  0.5645  1.1131  0.7349
 9475TIP3    H249841   3.983   3.546   5.068  2.5140  1.4310  1.5071
 9476TIP3   OH249842   3.078   2.812   1.897  0.5211  0.5490 -0.3863
 9476TIP3    H149843   3.166   2.776   1.899 -0.0289 -0.7425  2.9948
 9476TIP3    H249844   3.074   2.870   1.973 -1.5474  0.5771 -0.4898
 9477TIP3   OH249845   5.794   1.096  13.066  0.1273  0.2836  0.3942
 9477TIP3    H149846   5.859   1.103  13.135  2.4814  0.2260 -1.7527
 9477TIP3    H249847   5.745   1.178  13.070  1.1241  0.8455  1.2452
 9478TIP3   OH249848   0.955   3.212  10.380  0.0461 -0.1308  0.0009
 9478TIP3    H149849   1.042   3.243  10.407 -0.5401  0.3324  1.3779
 9478TIP3    H249850   0.972   3.160  10.301  1.7085 -0.8740  0.8179
 9479TIP3   OH249851   5.819   2.155  15.254  0.1437  0.1973 -0.1936
 9479TIP3    H149852   5.912   2.153  15.274 -0.0911 -0.2259  0.8857
 9479TIP3    H249853   5.780   2.092  15.314 -1.3102  3.0248  1.9731
 9480TIP3   OH249854   1.266   3.168   3.578  0.0199  0.0579 -0.7097
 9480TIP3    H149855   1.181   3.148   3.538  0.0510  0.1452 -0.8210
 9480TIP3    H249856   1.296   3.246   3.532 -0.7319  1.1717  0.6847
 9481TIP3   OH249857   5.949   5.542  13.162 -0.0959  0.2688  0.3392
 9481TIP3    H149858   5.926   5.576  13.075  1.0364  0.5763  0.1519
 9481TIP3    H249859   5.981   5.453  13.144 -0.4140  0.1139  0.5214
 9482TIP3   OH249860   4.473   0.279  15.859  0.0102 -0.4339 -0.6056
 9482TIP3    H149861   4.520   0.330  15.794 -2.3100  1.8549 -0.5558
 9482TIP3    H249862   4.538   0.260  15.927  1.2769  1.1838 -1.3498
 9483TIP3   OH249863   2.052   6.077   0.009  0.5812 -0.2566  0.1057
 9483TIP3    H149864   2.073   6.118  -0.075  1.2596 -3.6363 -1.4690
 9483TIP3    H249865   2.084   6.139   0.074  1.1793  1.8853 -2.1336
 9484TIP3   OH249866   5.214   6.375   2.445  0.6708  0.3509  0.0017
 9484TIP3    H149867   5.174   6.458   2.469  1.6465  1.1817 -1.1713
 9484TIP3    H249868   5.180   6.356   2.358 -1.9290 -2.0523  1.4420
 9485TIP3   OH249869   4.147   4.672  12.112 -0.0635  0.5638  0.4773
 9485TIP3    H149870   4.225   4.664  12.166  1.6725 -2.1914 -2.2607
 9485TIP3    H249871   4.166   4.744  12.051  0.0598  0.3600  0.2739
 9486TIP3   OH249872   1.698   3.433  13.676 -0.0909 -0.9696 -0.6845
 9486TIP3    H149873   1.741   3.348  13.685  1.0963 -0.7544 -3.6977
 9486TIP3    H249874   1.754   3.482  13.616 -1.2594  1.6237  0.2493
 9487TIP3   OH249875   5.311   1.331   4.340 -0.2450  0.3382 -0.3480
 9487TIP3    H149876   5.282   1.411   4.296 -0.2085  1.2050  1.1736
 9487TIP3    H249877   5.406   1.343   4.352 -0.8758  2.0864  3.8148
 9488TIP3   OH249878   1.601   1.963  13.335 -0.7474 -0.4028  0.1380
 9488TIP3    H149879   1.530   1.964  13.399 -0.5073  1.5449  0.3998
 9488TIP3    H249880   1.617   2.055  13.315  0.0062 -0.9303 -1.8276
 9489TIP3   OH249881   4.056   0.618   4.548  0.2129 -0.2734  0.2833
 9489TIP3    H149882   4.110   0.677   4.600  1.8439 -1.3409 -0.1661
 9489TIP3    H249883   4.077   0.530   4.580 -1.1507 -0.7280  0.0014
 9490TIP3   OH249884   5.504   6.042  16.242  0.3087  0.1201 -0.5581
 9490TIP3    H149885   5.575   5.998  16.195  0.9677  0.8441 -0.2502
 9490TIP3    H249886   5.510   6.133  16.214 -1.1323  0.0087 -1.2898
 9491TIP3   OH249887   1.926   2.938   6.640  0.1394 -0.4186 -0.1977
 9491TIP3    H149888   1.875   3.019   6.640 -0.1759 -0.6156 -0.8707
 9491TIP3    H249889   1.959   2.930   6.730 -2.9415 -1.5070  0.8970
 9492TIP3   OH249890   2.171   2.695  16.867  0.7654 -0.0284  0.1355
 9492TIP3    H149891   2.152   2.669  16.957  0.0129  0.2621  0.0592
 9492TIP3    H249892   2.134   2.783  16.859  0.6140 -0.1515 -0.5376
 9493TIP3   OH249893   2.962   3.094  17.065 -0.4213 -0.2179 -0.0595
 9493TIP3    H149894   2.895   3.028  17.081  1.3476 -2.2304 -0.7456
 9493TIP3    H249895   3.043   3.044  17.055  1.2795  2.1837  1.2230
 9494TIP3   OH249896   1.349   3.602  16.937  0.5115 -0.2724  0.4782
 9494TIP3    H149897   1.444   3.613  16.941  0.4860  0.0810  0.1458
 9494TIP3    H249898   1.336   3.507  16.942  0.9241 -0.3705 -0.3059
 9495TIP3   OH249899   2.912   0.991  15.768 -0.4106 -0.4810 -0.1561
 9495TIP3    H149900   2.966   1.070  15.763 -0.0372 -0.7727 -0.9342
 9495TIP3    H249901   2.969   0.926  15.809 -0.7402 -0.3337  0.5434
 9496TIP3   OH249902   6.785   5.632   0.764  0.1519  0.1943 -0.0144
 9496TIP3    H149903   6.831   5.715   0.750 -0.4722  0.2336 -2.0569
 9496TIP3    H249904   6.738   5.644   0.846 -1.2479  2.5200 -1.0959
 9497TIP3   OH249905   2.701   1.622   5.055 -0.1290  0.0640  0.3697
 9497TIP3    H149906   2.689   1.656   4.966  0.3595  0.4073  0.4319
 9497TIP3    H249907   2.796   1.614   5.065 -0.2344 -1.1911  0.4138
 9498TIP3   OH249908   1.769   1.679  11.848  0.0845  0.0748  0.2615
 9498TIP3    H149909   1.862   1.671  11.827 -0.0809 -1.2562 -0.0287
 9498TIP3    H249910   1.757   1.771  11.871  1.1141  0.6575 -1.4403
 9499TIP3   OH249911   0.565   0.967   1.760 -0.5126  0.3387  0.1547
 9499TIP3    H149912   0.635   0.988   1.698 -0.1429 -0.1472  0.4068
 9499TIP3    H249913   0.530   1.052   1.786 -0.5101  0.5563 -0.5378
 9500TIP3   OH249914   3.566   5.924  13.465 -0.1327 -0.0146  0.1790
 9500TIP3    H149915   3.531   5.894  13.381 -1.7859 -0.1351  0.8985
 9500TIP3    H249916   3.596   6.013  13.448  1.2372 -0.6799 -0.9890
 9501TIP3   OH249917   3.935   4.227  17.221 -0.1766  0.3496 -0.1788
 9501TIP3    H149918   3.948   4.137  17.249  1.1070  0.5058 -0.2696
 9501TIP3    H249919   3.840   4.236  17.213 -0.2906 -1.0536 -0.4000
 9502TIP3   OH249920   6.357   5.326  11.797 -0.1430  0.5205 -0.5441
 9502TIP3    H149921   6.353   5.309  11.703  0.1304  0.3135 -0.5176
 9502TIP3    H249922   6.283   5.385  11.813 -1.7225 -1.4270 -0.4515
 9503TIP3   OH249923   3.175   6.530  14.484  0.2893 -0.2703  0.3276
 9503TIP3    H149924   3.230   6.499  14.412  0.6405  0.3323  0.3291
 9503TIP3    H249925   3.112   6.588  14.443 -0.2218 -0.8058  0.3537
 9504TIP3   OH249926   5.518   1.816  14.720  0.4014 -0.2538  0.4929
 9504TIP3    H149927   5.458   1.860  14.661  0.5743 -0.9236 -0.1881
 9504TIP3    H249928   5.605   1.851  14.696  0.3948 -0.0069  0.8250
 9505TIP3   OH249929   5.717   1.031  15.840  0.1553 -0.0404  0.1838
 9505TIP3    H149930   5.658   1.094  15.799  1.1207  0.8922  0.2210
 9505TIP3    H249931   5.692   0.947  15.801 -1.2600  0.3225  0.2778
 9506TIP3   OH249932   1.467   2.821  13.573 -0.8112  0.3483 -0.4494
 9506TIP3    H149933   1.525   2.827  13.497  0.8638  1.3821  0.8853
 9506TIP3    H249934   1.495   2.891  13.630 -2.0390 -0.4468  1.1648
 9507TIP3   OH249935   0.246   3.270  12.806 -0.3554 -0.2720  0.1228
 9507TIP3    H149936   0.246   3.236  12.716  0.2860 -1.7505  0.6658
 9507TIP3    H249937   0.226   3.194  12.860 -1.4457  0.7673  1.1969
 9508TIP3   OH249938   1.132   4.216  13.346 -0.8105  0.1465 -0.1743
 9508TIP3    H149939   1.101   4.292  13.296  0.9552  1.6556  0.9580
 9508TIP3    H249940   1.110   4.237  13.437 -0.2925 -0.6858  0.1484
 9509TIP3   OH249941   4.183   5.287  11.890  0.4126 -0.0508 -0.0314
 9509TIP3    H149942   4.183   5.230  11.967 -2.6607 -0.5655 -0.3366
 9509TIP3    H249943   4.182   5.227  11.816  1.6241  0.4355 -0.4472
 9510TIP3   OH249944   5.867   4.368  13.797 -0.4132  0.2025 -0.7184
 9510TIP3    H149945   5.904   4.312  13.865 -1.7160  1.2244  0.8411
 9510TIP3    H249946   5.866   4.312  13.719  0.0112 -1.3506  0.3614
 9511TIP3   OH249947   4.617   4.583   2.549  0.0028  0.2867 -0.4655
 9511TIP3    H149948   4.593   4.564   2.640  1.2992 -0.3811 -0.2474
 9511TIP3    H249949   4.713   4.583   2.549  0.0305  2.0070 -1.4880
 9512TIP3   OH249950   0.404   2.078  16.546 -0.1249  0.6348  0.0460
 9512TIP3    H149951   0.413   2.010  16.612 -0.9486  0.2626 -0.2101
 9512TIP3    H249952   0.430   2.036  16.464 -2.7730 -0.0707 -0.4839
 9513TIP3   OH249953   0.924   3.374  13.044  0.4476 -0.0575 -0.3680
 9513TIP3    H149954   0.954   3.286  13.024 -0.9304 -0.4278 -0.8501
 9513TIP3    H249955   0.829   3.367  13.049  0.2085  1.6826 -1.8310
 9514TIP3   OH249956   5.032   1.030   4.917 -0.3567 -0.5686  0.1852
 9514TIP3    H149957   4.997   0.956   4.966  0.7451 -0.2086  1.5545
 9514TIP3    H249958   5.016   1.106   4.973  1.2399 -0.2021  0.1717
 9515TIP3   OH249959   5.616   6.663   2.257  0.1389 -0.0693  0.2916
 9515TIP3    H149960   5.587   6.649   2.167 -0.4063  2.9975 -0.0539
 9515TIP3    H249961   5.701   6.708   2.249 -0.1765  0.7395  1.2756
 9516TIP3   OH249962   5.711   4.609  14.816 -0.7606 -0.1932 -0.1882
 9516TIP3    H149963   5.625   4.626  14.855 -0.2165 -0.0328  0.9711
 9516TIP3    H249964   5.692   4.560  14.736 -1.8981 -0.6243  0.3402
 9517TIP3   OH249965   1.261   1.563  11.205 -0.8482  0.1779  0.5702
 9517TIP3    H149966   1.278   1.621  11.279 -0.4720  1.5764 -0.5972
 9517TIP3    H249967   1.166   1.560  11.197 -0.9120 -0.3938  1.4120
 9518TIP3   OH249968   4.453   6.449  13.288  0.0181 -0.1850 -0.2267
 9518TIP3    H149969   4.524   6.511  13.308 -0.2662  0.2554 -0.5576
 9518TIP3    H249970   4.465   6.377  13.350  2.2057 -1.2831 -1.8677
 9519TIP3   OH249971   1.246   1.000  14.266  0.0526 -0.1886  0.4442
 9519TIP3    H149972   1.313   1.036  14.324  0.8163 -1.2524  0.2290
 9519TIP3    H249973   1.204   1.077  14.227  0.7776  0.4922  0.9910
 9520TIP3   OH249974   3.255   4.314  12.923 -0.1509  0.1733  0.5727
 9520TIP3    H149975   3.306   4.381  12.968  0.3249 -0.5569  1.1298
 9520TIP3    H249976   3.296   4.232  12.948  1.0054 -0.1774 -2.3751
 9521TIP3   OH249977   6.074   3.815  15.067  0.1609 -0.4887 -0.7353
 9521TIP3    H149978   5.982   3.804  15.046  0.0444  0.9224 -1.0030
 9521TIP3    H249979   6.075   3.842  15.159  0.3321 -0.8967 -0.6163
 9522TIP3   OH249980   2.400   3.648  11.503  0.3213  0.0069 -0.7557
 9522TIP3    H149981   2.400   3.615  11.413 -1.1798 -1.3480 -0.2763
 9522TIP3    H249982   2.375   3.573  11.556  0.4528  0.9935  0.7342
 9523TIP3   OH249983   2.705   3.535  15.469  0.0765 -0.6870  0.3687
 9523TIP3    H149984   2.714   3.595  15.543  0.1161 -0.3477  0.0893
 9523TIP3    H249985   2.763   3.462  15.490  1.4719  0.2396 -0.1588
 9524TIP3   OH249986   4.561   5.441  12.695  0.2748  0.2684 -0.2435
 9524TIP3    H149987   4.596   5.392  12.621  1.0721 -0.3087  0.5059
 9524TIP3    H249988   4.475   5.471  12.666  1.7733  2.5544 -2.4889
 9525TIP3   OH249989   5.627   6.324  13.455  0.9101 -0.3309  0.1902
 9525TIP3    H149990   5.603   6.232  13.450  0.7307 -0.4380  2.5139
 9525TIP3    H249991   5.723   6.323  13.459  0.8805 -0.4555  0.8853
 9526TIP3   OH249992   1.063   3.413  16.394 -0.0870  0.5963 -0.0690
 9526TIP3    H149993   1.026   3.499  16.415 -0.7861  0.9849 -2.7762
 9526TIP3    H249994   0.987   3.357  16.380  0.3330  0.5509 -2.2847
 9527TIP3   OH249995   3.542   3.469  16.381 -0.1384 -0.6087 -0.0748
 9527TIP3    H149996   3.549   3.532  16.309  1.6324  0.2046  0.7772
 9527TIP3    H249997   3.537   3.384  16.338 -1.8095  0.0330 -1.2283
 9528TIP3   OH249998   5.027   5.915  11.510 -0.4988 -0.4275 -0.0274
 9528TIP3    H149999   4.949   5.948  11.464 -0.9695 -2.6314 -0.8885
 9528TIP3    H250000   5.062   5.847  11.452  1.7187  0.0966  0.6588
 9529TIP3   OH250001   3.133   4.532  14.812 -0.6630 -0.2968  0.6060
 9529TIP3    H150002   3.069   4.545  14.741 -0.5118 -0.2765  0.4732
 9529TIP3    H250003   3.133   4.438  14.826  0.2308 -0.4303 -0.2752
 9530TIP3   OH250004   5.197   3.926  15.530  0.3796  0.1693 -0.4279
 9530TIP3    H150005   5.109   3.922  15.492  0.5336  0.6424 -0.8415
 9530TIP3    H250006   5.210   3.840  15.569  0.4951 -0.5868 -2.0963
 9531TIP3   OH250007   5.736   4.595  12.688 -0.2327  0.3893 -0.3113
 9531TIP3    H150008   5.700   4.517  12.730  3.8681 -1.1600  0.4733
 9531TIP3    H250009   5.813   4.617  12.739  0.4626  3.1246 -2.4249
 9532TIP3   OH250010   6.585   4.081  12.415  0.3088  0.5269 -0.5572
 9532TIP3    H150011   6.520   4.015  12.390  1.2272 -0.0312 -1.4713
 9532TIP3    H250012   6.543   4.164  12.393 -0.3793  0.2101 -0.4786
 9533TIP3   OH250013   4.731   2.716  12.434  0.2342 -0.0694  0.1245
 9533TIP3    H150014   4.764   2.660  12.504 -0.1085 -1.6145 -0.9082
 9533TIP3    H250015   4.637   2.725  12.454  0.1500 -0.4504 -0.0893
 9534TIP3   OH250016   6.177   4.131   1.711 -0.4904 -0.2655 -0.0496
 9534TIP3    H150017   6.206   4.095   1.795 -0.9538  0.0141  0.2307
 9534TIP3    H250018   6.091   4.091   1.696 -0.2416 -0.6078 -0.5738
 9535TIP3   OH250019   6.490   4.745   1.142 -0.2804  0.0187  0.1608
 9535TIP3    H150020   6.528   4.660   1.123  0.2715  0.3409 -0.1825
 9535TIP3    H250021   6.411   4.749   1.088  0.0227 -0.0223 -0.2834
 9536TIP3   OH250022   6.540   6.343  12.152 -0.0747  0.4506  0.5375
 9536TIP3    H150023   6.492   6.421  12.124 -1.2925  0.6253  2.9870
 9536TIP3    H250024   6.495   6.270  12.110 -0.7631  0.8579  0.5596
 9537TIP3   OH250025   2.992   3.844   5.252 -0.1650 -0.0963 -0.1448
 9537TIP3    H150026   3.068   3.902   5.257 -0.5146  0.2007  2.2174
 9537TIP3    H250027   2.923   3.897   5.212  0.0110  0.5730  0.4346
 9538TIP3   OH250028   1.150   5.087  13.550 -0.0232  0.2517  0.1921
 9538TIP3    H150029   1.169   5.084  13.644  2.0652 -0.4511 -0.2322
 9538TIP3    H250030   1.061   5.051  13.542  0.1862 -0.6535  1.7878
 9539TIP3   OH250031   3.177   6.254   5.966  0.0492  0.3322 -0.6501
 9539TIP3    H150032   3.200   6.178   5.913 -1.2910  0.2105 -1.0919
 9539TIP3    H250033   3.187   6.329   5.907 -2.9391  0.0527 -1.6008
 9540TIP3   OH250034   1.100   4.245  12.946  0.3198 -0.0930  0.1528
 9540TIP3    H150035   1.195   4.247  12.954  0.4203  1.7181 -0.9951
 9540TIP3    H250036   1.071   4.324  12.993 -0.5390 -0.1460 -0.2827
 9541TIP3   OH250037   1.127   6.396  12.005  0.2375 -0.4649  0.3029
 9541TIP3    H150038   1.210   6.434  12.034  0.6632 -1.6791  0.6934
 9541TIP3    H250039   1.074   6.391  12.084 -0.0534 -0.1241  0.1340
 9542TIP3   OH250040   5.496   5.793   4.199  0.1041  0.0721  0.3234
 9542TIP3    H150041   5.522   5.880   4.228  0.2298 -0.1227  0.7870
 9542TIP3    H250042   5.503   5.737   4.276  2.2117 -0.8478 -0.5020
 9543TIP3   OH250043   1.273   5.611  14.051 -0.2948 -0.1307  0.0390
 9543TIP3    H150044   1.289   5.585  14.142 -2.7783  0.7558  0.7676
 9543TIP3    H250045   1.299   5.703  14.048  2.5497 -0.9126 -0.9400
 9544TIP3   OH250046   5.208   4.657   3.597  0.2293 -0.0619  0.4513
 9544TIP3    H150047   5.176   4.675   3.685  1.5089 -0.5549  1.0284
 9544TIP3    H250048   5.164   4.577   3.571  0.3905 -0.3096  0.9340
 9545TIP3   OH250049   2.657   3.801  15.017  0.4931 -0.4715  0.5720
 9545TIP3    H150050   2.646   3.806  14.922 -0.7984 -0.3650  0.7209
 9545TIP3    H250051   2.728   3.738  15.029  0.0336 -1.1993 -0.4431
 9546TIP3   OH250052   6.454   3.963   6.280  0.0978 -0.6801  0.2083
 9546TIP3    H150053   6.362   3.982   6.300  0.2320  1.5329 -1.1774
 9546TIP3    H250054   6.484   3.912   6.356 -1.4019  1.2367  2.1534
 9547TIP3   OH250055   2.852   1.776  12.192 -0.2313  0.2435  0.3851
 9547TIP3    H150056   2.866   1.685  12.217 -0.3931  0.6139  1.8914
 9547TIP3    H250057   2.927   1.798  12.137 -0.9465 -1.2267 -1.1991
 9548TIP3   OH250058   2.590   4.451  11.868 -0.1578  0.4472  0.3628
 9548TIP3    H150059   2.556   4.503  11.941  1.0212 -0.3226  1.4901
 9548TIP3    H250060   2.513   4.428  11.817 -1.1119  0.2796  1.8538
 9549TIP3   OH250061   2.422   1.305   5.259  0.3062  0.1461 -0.3789
 9549TIP3    H150062   2.415   1.331   5.168 -0.4176  1.1501 -0.0400
 9549TIP3    H250063   2.331   1.295   5.289  0.5175  0.6243  0.4521
 9550TIP3   OH250064   0.721   4.213  15.883 -0.1615 -0.5070  0.4520
 9550TIP3    H150065   0.696   4.300  15.915 -2.2822 -0.9266  0.0109
 9550TIP3    H250066   0.811   4.224  15.853 -0.2600  1.4483  0.7821
 9551TIP3   OH250067   0.068   3.248   0.026 -0.4584 -0.0593  0.0783
 9551TIP3    H150068   0.160   3.255   0.054 -0.6289  0.1761  0.5863
 9551TIP3    H250069   0.034   3.338   0.034 -0.5866 -0.0399 -0.6270
 9552TIP3   OH250070   5.032   1.448  13.765  0.2335 -0.2306  0.0697
 9552TIP3    H150071   5.097   1.399  13.715 -0.5817 -0.4233 -0.8023
 9552TIP3    H250072   5.057   1.540  13.753  0.3635 -0.3061 -0.2389
 9553TIP3   OH250073   3.719   2.614  13.037 -0.3672 -0.7168  0.7871
 9553TIP3    H150074   3.660   2.679  12.999 -1.3056 -2.2209 -0.4192
 9553TIP3    H250075   3.722   2.635  13.130 -1.9170  0.0627  0.6714
 9554TIP3   OH250076   4.361   3.731   2.983  0.3643  0.0865 -0.3574
 9554TIP3    H150077   4.429   3.778   2.935  0.5083  0.8250  0.5540
 9554TIP3    H250078   4.399   3.645   2.999  0.5685  0.0555 -1.0061
 9555TIP3   OH250079   1.564   3.558  11.979 -0.6569 -0.1436 -0.3277
 9555TIP3    H150080   1.522   3.473  11.984  0.3537 -0.5541  1.8441
 9555TIP3    H250081   1.574   3.585  12.071  2.7021  0.4506 -0.7974
 9556TIP3   OH250082   3.516   5.412   2.956 -0.1779  0.1856 -0.3754
 9556TIP3    H150083   3.461   5.338   2.932 -1.5231  1.3105 -0.8327
 9556TIP3    H250084   3.467   5.489   2.926 -2.0989  1.7474  5.9239
 9557TIP3   OH250085   3.475   4.013  14.220 -0.0394  0.3662 -0.3724
 9557TIP3    H150086   3.540   4.049  14.280 -0.5318  1.0396 -0.2344
 9557TIP3    H250087   3.427   3.948  14.273 -0.2714  0.7384 -0.1228
 9558TIP3   OH250088   1.194   6.008  14.889  0.6919 -0.0191 -0.1379
 9558TIP3    H150089   1.206   5.914  14.876  0.5752  0.0532 -0.7525
 9558TIP3    H250090   1.150   6.014  14.974  0.2473 -0.5444 -0.3217
 9559TIP3   OH250091   4.209   3.907  12.798 -0.1780  0.6938 -0.7916
 9559TIP3    H150092   4.163   3.858  12.866 -0.2752  0.3728 -1.0904
 9559TIP3    H250093   4.198   3.999  12.824  0.0310  0.5618 -0.2180
 9560TIP3   OH250094   3.631   2.891   2.239 -0.8662  0.5483  0.2537
 9560TIP3    H150095   3.670   2.966   2.284  0.8078  0.3705 -0.8571
 9560TIP3    H250096   3.583   2.844   2.307 -0.0700  1.3956  1.4095
 9561TIP3   OH250097   5.597   1.137  11.379 -0.1975  0.4383  0.2712
 9561TIP3    H150098   5.689   1.159  11.364 -0.1321 -0.5875 -0.9175
 9561TIP3    H250099   5.558   1.218  11.409  0.7160  1.3760 -0.9878
 9562TIP3   OH250100   6.463   3.260   2.716 -0.4120  0.1695 -0.1639
 9562TIP3    H150101   6.493   3.332   2.773  0.8741  1.3806 -2.3209
 9562TIP3    H250102   6.529   3.254   2.647 -1.5286 -1.8148 -1.1036
 9563TIP3   OH250103   5.938   4.823  15.710  0.0155  0.4271 -0.1685
 9563TIP3    H150104   5.876   4.752  15.692 -2.0625  2.2169 -0.3923
 9563TIP3    H250105   5.930   4.838  15.804  1.9968 -0.9749  0.2539
 9564TIP3   OH250106   4.300   1.512  14.181 -0.2834 -0.2681 -0.2085
 9564TIP3    H150107   4.245   1.443  14.217  1.9401 -1.9579  0.0123
 9564TIP3    H250108   4.333   1.559  14.257  0.3027 -0.6259 -0.2359
 9565TIP3   OH250109   2.256   1.305   1.314  0.2469  0.2039 -0.1346
 9565TIP3    H150110   2.327   1.251   1.280  1.3518  2.0858 -0.8807
 9565TIP3    H250111   2.244   1.374   1.248 -2.7589 -0.4670 -0.3830
 9566TIP3   OH250112   2.830   3.427  15.778 -0.0179 -0.3954 -0.2274
 9566TIP3    H150113   2.786   3.347  15.751  2.1109 -1.4667 -0.5995
 9566TIP3    H250114   2.762   3.495  15.773 -1.6234 -2.0110 -0.6750
 9567TIP3   OH250115   3.770   3.861  14.222  0.4844 -0.3594 -0.3641
 9567TIP3    H150116   3.787   3.954  14.211  0.0740 -0.2235  0.1570
 9567TIP3    H250117   3.802   3.841  14.310  0.4788 -0.6855 -0.4353
 9568TIP3   OH250118   4.665   6.635  13.352 -0.0265  0.5156 -0.2880
 9568TIP3    H150119   4.746   6.584  13.355  0.7659  1.7370 -0.7231
 9568TIP3    H250120   4.689   6.716  13.309 -1.2340  1.3567  0.5935
 9569TIP3   OH250121   0.752   3.115   4.237  0.2745 -0.2477  0.4034
 9569TIP3    H150122   0.661   3.145   4.237  0.0285 -0.9977  0.3436
 9569TIP3    H250123   0.770   3.094   4.329  0.0168 -1.2188  0.2359
 9570TIP3   OH250124   3.694   3.571   3.920 -0.1493  0.0310  0.1776
 9570TIP3    H150125   3.613   3.548   3.874  0.5817 -3.6120  0.4994
 9570TIP3    H250126   3.671   3.567   4.013 -0.0031  0.6235  0.2392
 9571TIP3   OH250127   3.598   6.767  16.440 -0.6000 -0.1583 -0.7314
 9571TIP3    H150128   3.590   6.810  16.355 -0.7338  0.9376 -0.1799
 9571TIP3    H250129   3.569   6.833  16.503 -1.5226 -1.3216  0.0838
 9572TIP3   OH250130   5.737   2.699  15.401  0.4084  0.5629 -0.9650
 9572TIP3    H150131   5.824   2.663  15.420  0.2666 -0.1459 -1.6389
 9572TIP3    H250132   5.752   2.793  15.389  0.6540  0.8859  1.6143
 9573TIP3   OH250133   1.442   1.038  13.595  0.1063 -0.3170 -0.6644
 9573TIP3    H150134   1.423   0.999  13.680  0.7318  1.3185  0.2439
 9573TIP3    H250135   1.451   0.964  13.535  0.4784 -1.5094  0.8644
 9574TIP3   OH250136   6.174   6.670  11.668  0.1506  0.1469  0.2701
 9574TIP3    H150137   6.201   6.591  11.714 -0.6174 -0.2046  0.1288
 9574TIP3    H250138   6.252   6.726  11.668  0.8358 -0.7889 -0.0271
 9575TIP3   OH250139   3.431   1.445  13.487  0.3171  0.5855  0.6445
 9575TIP3    H150140   3.379   1.382  13.538 -0.2047  0.5614  0.0987
 9575TIP3    H250141   3.402   1.531  13.517  0.7029  0.5660  1.0707
 9576TIP3   OH250142   5.053   5.023   1.117 -0.2955 -0.3075  0.2498
 9576TIP3    H150143   4.987   4.958   1.144  0.4300 -0.8208  0.7956
 9576TIP3    H250144   5.007   5.078   1.054 -1.0151 -1.1756 -0.0013
 9577TIP3   OH250145   4.137   5.718  13.923 -0.1737  0.0060 -0.4918
 9577TIP3    H150146   4.166   5.741  13.835  1.5895 -1.7108 -0.3976
 9577TIP3    H250147   4.139   5.622  13.925  1.5165  0.0514  1.9457
 9578TIP3   OH250148   1.447   1.567   1.198 -0.7639 -0.1622 -0.2955
 9578TIP3    H150149   1.455   1.477   1.229 -2.1273 -0.4994 -0.8937
 9578TIP3    H250150   1.353   1.580   1.186 -0.7656  1.9653  1.6252
 9579TIP3   OH250151   3.032   3.299   4.688 -0.3062  0.0442 -0.1774
 9579TIP3    H150152   2.975   3.376   4.682 -0.6392 -0.0928  1.0320
 9579TIP3    H250153   3.114   3.326   4.645  0.1298  1.6138  1.5772
 9580TIP3   OH250154   0.090   1.021   6.371 -1.0099 -0.0373 -0.0856
 9580TIP3    H150155   0.163   0.965   6.397  0.5459  1.1042 -1.8589
 9580TIP3    H250156   0.034   1.025   6.448  0.5949 -1.2653  1.1737
 9581TIP3   OH250157   6.630   5.774   5.033 -0.2344 -0.0727  0.1749
 9581TIP3    H150158   6.672   5.842   4.980  0.6630  1.2029  2.4431
 9581TIP3    H250159   6.560   5.819   5.078 -0.1403 -0.8340  1.0945
 9582TIP3   OH250160   4.808   0.899  14.875 -0.8157 -0.3314 -0.2207
 9582TIP3    H150161   4.723   0.887  14.832 -0.8608 -0.4103 -0.1094
 9582TIP3    H250162   4.793   0.873  14.966 -0.7895  0.1004 -0.0918
 9583TIP3   OH250163   5.002   5.601   3.339 -0.3744 -0.1744  0.0435
 9583TIP3    H150164   5.002   5.574   3.247 -1.8768  0.8823 -0.2832
 9583TIP3    H250165   5.003   5.696   3.336 -1.9870 -0.1042  1.0963
 9584TIP3   OH250166   5.449   3.368   2.700 -0.3541 -0.0235 -0.0112
 9584TIP3    H150167   5.414   3.452   2.669 -0.6041 -0.5464 -1.1914
 9584TIP3    H250168   5.379   3.305   2.680 -0.0576 -0.5560  0.6258
 9585TIP3   OH250169   6.619   3.003  12.356  0.4019  0.5799  0.2869
 9585TIP3    H150170   6.579   3.016  12.270 -0.8227 -0.2492  0.7231
 9585TIP3    H250171   6.612   2.909  12.372  0.0210  0.8179  1.5674
 9586TIP3   OH250172   3.117   2.407  14.124 -0.2455 -0.6405  0.0134
 9586TIP3    H150173   3.116   2.315  14.150 -2.1459 -1.1976 -1.9597
 9586TIP3    H250174   3.172   2.409  14.046 -1.8813 -0.4676 -1.1581
 9587TIP3   OH250175   3.737   1.952   4.012 -0.0776  0.6736  0.5320
 9587TIP3    H150176   3.746   2.046   4.002 -0.5007  0.6837  0.1994
 9587TIP3    H250177   3.724   1.938   4.105  1.5566  0.8028  0.7842
 9588TIP3   OH250178   5.686   3.667   2.145  0.6376  0.2188 -1.0088
 9588TIP3    H150179   5.701   3.593   2.085  0.8815 -0.6210  0.0547
 9588TIP3    H250180   5.742   3.647   2.221 -1.8403 -0.2381  0.7579
 9589TIP3   OH250181   5.449   2.123  14.288  0.8285  0.2156  0.1353
 9589TIP3    H150182   5.399   2.198  14.320  2.4812  1.0775  0.7407
 9589TIP3    H250183   5.468   2.144  14.196  0.4481  0.0708  0.0205
 9590TIP3   OH250184   0.256   1.827   1.470  0.4664 -0.0337  0.4705
 9590TIP3    H150185   0.194   1.764   1.506  0.0514 -0.6092 -1.2071
 9590TIP3    H250186   0.329   1.775   1.440  0.5945  0.3857  0.0453
 9591TIP3   OH250187   4.410   1.356   5.543 -0.5000 -0.1965  0.5916
 9591TIP3    H150188   4.471   1.426   5.567 -0.2244 -0.2603  0.0746
 9591TIP3    H250189   4.338   1.401   5.497 -0.1205 -0.3006 -0.1105
 9592TIP3   OH250190   0.960   3.146  16.880  0.2109 -0.5202  0.2067
 9592TIP3    H150191   0.960   3.119  16.972 -0.5515 -0.2130  0.3018
 9592TIP3    H250192   0.928   3.069  16.833  1.2387 -0.9004  0.1247
 9593TIP3   OH250193   6.517   1.690   3.786  0.0505 -0.1107  0.5152
 9593TIP3    H150194   6.540   1.646   3.868  0.7013  0.6566  0.7521
 9593TIP3    H250195   6.517   1.783   3.808  1.1063  0.1539 -0.5728
 9594TIP3   OH250196   1.889   0.077   3.452 -0.0825 -0.3565  0.8110
 9594TIP3    H150197   1.864  -0.006   3.410  1.3259 -0.0877 -0.6020
 9594TIP3    H250198   1.858   0.068   3.542 -0.8544 -2.0090  0.4061
 9595TIP3   OH250199   6.547   3.214  15.158 -0.3600 -0.0591  0.7008
 9595TIP3    H150200   6.566   3.191  15.249  1.2958 -1.7645 -0.0478
 9595TIP3    H250201   6.546   3.130  15.112 -2.8341  0.6286 -0.5910
 9596TIP3   OH250202   3.570   3.570   4.164 -0.3293  0.5020  0.0716
 9596TIP3    H150203   3.577   3.524   4.247 -0.6714 -0.5491 -0.4764
 9596TIP3    H250204   3.533   3.655   4.186 -1.0444 -0.0238  0.8976
 9597TIP3   OH250205   0.671   2.905  16.445 -0.0762  0.4237  0.3826
 9597TIP3    H150206   0.697   2.814  16.459  0.0715  0.5138  0.6982
 9597TIP3    H250207   0.578   2.900  16.424  0.1449  0.1174 -0.5474
 9598TIP3   OH250208   2.514   4.431   2.488  0.2449  0.0093  0.4255
 9598TIP3    H150209   2.478   4.343   2.500  0.3319 -0.2332 -0.9498
 9598TIP3    H250210   2.591   4.434   2.545  1.0041 -1.2717 -0.4991
 9599TIP3   OH250211   2.116   5.550  13.222  0.6259 -0.3191 -0.1014
 9599TIP3    H150212   2.189   5.542  13.161 -0.3379 -2.6588 -0.9813
 9599TIP3    H250213   2.043   5.505  13.180 -0.6873 -0.0440  1.7840
 9600TIP3   OH250214   1.454   3.052   2.696  0.4011  0.5716 -0.5459
 9600TIP3    H150215   1.377   3.087   2.650  0.3424  0.5552 -0.4611
 9600TIP3    H250216   1.516   3.031   2.627  1.6992  3.8184 -0.4491
 9601TIP3   OH250217   4.106   4.085   1.320  0.1792  0.1642  0.0073
 9601TIP3    H150218   4.058   4.004   1.332 -0.0230  0.5147  1.6378
 9601TIP3    H250219   4.040   4.149   1.293 -0.1490  0.4657  1.5112
 9602TIP3   OH250220   1.312   4.814  16.309  0.2749 -0.5275  0.7129
 9602TIP3    H150221   1.257   4.763  16.369 -0.6055 -0.0761  0.3006
 9602TIP3    H250222   1.290   4.781  16.222  0.7220 -0.3920  0.5476
 9603TIP3   OH250223   5.241   4.786  13.104 -0.0681 -0.4744 -0.0726
 9603TIP3    H150224   5.155   4.746  13.109 -0.6466  0.8392  0.7136
 9603TIP3    H250225   5.225   4.880  13.112  1.5740 -0.3211  2.1574
 9604TIP3   OH250226   1.606   0.175  13.613  0.6057 -0.1955  0.0824
 9604TIP3    H150227   1.643   0.100  13.566 -0.0162 -0.7488  0.4606
 9604TIP3    H250228   1.648   0.251  13.573 -2.2679 -0.4301 -3.6255
 9605TIP3   OH250229   2.954   4.512  12.637 -0.5431  0.4679  0.2147
 9605TIP3    H150230   3.007   4.591  12.648  0.0006  0.0497  0.6547
 9605TIP3    H250231   2.958   4.469  12.723 -0.4524 -0.2714 -0.1530
 9606TIP3   OH250232   6.613   2.880   6.455  0.1008 -0.0824 -0.3798
 9606TIP3    H150233   6.679   2.934   6.410  0.6823 -1.0746 -0.7353
 9606TIP3    H250234   6.604   2.920   6.541  2.2778 -0.7895  0.2079
 9607TIP3   OH250235   3.390   2.059   3.162 -0.3403  0.3593  0.3577
 9607TIP3    H150236   3.406   2.141   3.116  0.9132 -1.5645 -2.8040
 9607TIP3    H250237   3.475   2.015   3.163 -1.2496 -1.4309  0.9520
 9608TIP3   OH250238   3.380   1.487   1.565  0.7202  0.2880 -0.1505
 9608TIP3    H150239   3.377   1.534   1.482  0.8682 -1.3786 -1.1134
 9608TIP3    H250240   3.427   1.406   1.545  1.4835  0.2395  1.7490
 9609TIP3   OH250241   1.547   0.954  16.253 -0.5338  0.3900  0.2081
 9609TIP3    H150242   1.535   0.860  16.240 -1.2119  0.5152 -0.0656
 9609TIP3    H250243   1.610   0.959  16.325  0.1641 -0.2715 -0.3502
 9610TIP3   OH250244   4.232   6.640   2.005  0.2192  0.1733 -0.7113
 9610TIP3    H150245   4.318   6.616   1.973  0.2643  0.9584 -1.1931
 9610TIP3    H250246   4.246   6.722   2.053  0.0635 -0.6924  0.8576
 9611TIP3   OH250247   2.249   4.442   3.055 -0.3670  0.3827 -0.1308
 9611TIP3    H150248   2.199   4.365   3.028  0.0603 -0.8887  2.5238
 9611TIP3    H250249   2.297   4.469   2.977 -2.0232 -0.8871 -1.5943
 9612TIP3   OH250250   2.443   0.621   3.152 -0.5375 -0.1102 -0.5880
 9612TIP3    H150251   2.467   0.549   3.093  0.8782 -0.1888  0.0719
 9612TIP3    H250252   2.360   0.654   3.117 -0.3728 -1.0104 -1.8491
 9613TIP3   OH250253   4.737   0.664  11.928 -0.3362  0.3361 -0.4567
 9613TIP3    H150254   4.769   0.637  12.014 -3.9427 -3.8220 -0.2228
 9613TIP3    H250255   4.661   0.719  11.947 -1.1095 -0.5508 -0.9474
 9614TIP3   OH250256   5.142   1.871  16.019  0.2056 -0.1407 -0.4114
 9614TIP3    H150257   5.237   1.883  16.011  0.4517  0.6935  2.8578
 9614TIP3    H250258   5.132   1.786  16.063 -0.4610  0.4735  0.6594
 9615TIP3   OH250259   5.239   0.307  15.702 -0.2566 -0.0468 -0.4758
 9615TIP3    H150260   5.296   0.237  15.734 -0.2926  0.6857  1.2424
 9615TIP3    H250261   5.161   0.261  15.671  0.1442 -0.8392 -0.3509
 9616TIP3   OH250262   2.388   4.276   0.323 -0.7906  0.1739  0.1496
 9616TIP3    H150263   2.463   4.218   0.307 -1.4642 -1.1666  1.6649
 9616TIP3    H250264   2.410   4.357   0.277  2.1069  0.2067  1.4849
 9617TIP3   OH250265   4.956   6.752   3.260  0.1786 -0.0579 -0.1519
 9617TIP3    H150266   4.976   6.779   3.350  2.1370  0.5741 -0.7549
 9617TIP3    H250267   4.978   6.829   3.207  1.3970 -1.2585 -1.4189
 9618TIP3   OH250268   5.210   2.131  14.604  0.2268 -0.4259 -0.1514
 9618TIP3    H150269   5.116   2.141  14.623  0.1135 -1.0103 -0.4180
 9618TIP3    H250270   5.251   2.204  14.651 -0.3209 -0.3977  0.2920
 9619TIP3   OH250271   4.168   4.155   4.564 -0.6111 -0.0328 -0.2785
 9619TIP3    H150272   4.252   4.112   4.575  0.1992  1.8075  1.0483
 9619TIP3    H250273   4.140   4.176   4.653 -2.0052  0.2242 -0.7690
 9620TIP3   OH250274   3.402   3.332   1.908  0.4625 -0.0809 -0.9352
 9620TIP3    H150275   3.384   3.241   1.932  1.6007 -0.2747 -0.8073
 9620TIP3    H250276   3.442   3.371   1.986 -1.3615  0.9533 -0.4736
 9621TIP3   OH250277   3.778   4.192   2.010 -0.4818 -0.5159  0.3753
 9621TIP3    H150278   3.738   4.135   1.944 -1.0650 -0.0189  0.2966
 9621TIP3    H250279   3.721   4.183   2.086  0.3851 -1.3628  0.9441
 9622TIP3   OH250280   6.042   3.216   2.027  0.0673 -0.4072 -0.0885
 9622TIP3    H150281   6.092   3.256   2.099 -0.7248  1.4963 -0.5851
 9622TIP3    H250282   6.100   3.222   1.951  1.0889 -2.8319  0.4363
 9623TIP3   OH250283   5.732   2.842  13.207  0.1069  0.2196  0.0096
 9623TIP3    H150284   5.783   2.909  13.252 -0.3276  0.6496 -0.1327
 9623TIP3    H250285   5.706   2.781  13.276 -0.0198  0.5346  0.2463
 9624TIP3   OH250286   3.287   2.505  15.224 -0.2226 -0.3193  0.4762
 9624TIP3    H150287   3.230   2.432  15.249 -2.1489  1.8925  2.8216
 9624TIP3    H250288   3.373   2.481  15.257 -1.2346 -0.7277  2.8851
 9625TIP3   OH250289   1.311   0.970  16.041 -0.0229  0.0111 -0.2520
 9625TIP3    H150290   1.341   0.957  15.951 -1.7627 -1.2289 -0.6611
 9625TIP3    H250291   1.329   0.887  16.084 -0.9142 -0.0136  0.0633
 9626TIP3   OH250292   1.341   4.560   2.943 -0.8172  0.1156 -0.2344
 9626TIP3    H150293   1.381   4.621   3.005  1.2816 -1.3068 -0.1520
 9626TIP3    H250294   1.260   4.604   2.916  0.4194  2.7296  0.1353
 9627TIP3   OH250295   4.746   6.480  13.621  0.1590  0.4242  0.7015
 9627TIP3    H150296   4.700   6.444  13.545  1.4639  0.2198  0.0001
 9627TIP3    H250297   4.829   6.512  13.586 -0.0943  2.2058  1.6853
 9628TIP3   OH250298   4.885   5.757  15.488  0.0351  0.1059 -0.6245
 9628TIP3    H150299   4.890   5.683  15.547  0.2811 -0.5712 -1.4869
 9628TIP3    H250300   4.972   5.762  15.448  0.6134  2.0170  0.8054
 9629TIP3   OH250301   5.035   2.138   3.680  0.4818  0.3394 -0.2115
 9629TIP3    H150302   5.081   2.222   3.678  0.1697  0.5177  0.1641
 9629TIP3    H250303   4.979   2.143   3.757 -1.4761  0.7986 -1.6389
 9630TIP3   OH250304   0.117   0.334  13.918 -0.3495  0.4918 -0.1904
 9630TIP3    H150305   0.106   0.313  13.825  0.7255  0.4962 -0.3216
 9630TIP3    H250306   0.113   0.249  13.962 -0.9051  0.4937 -0.2250
 9631TIP3   OH250307   1.475   3.722   4.867 -0.3361  0.6858 -0.3995
 9631TIP3    H150308   1.469   3.698   4.960  0.6163  0.1231 -0.4712
 9631TIP3    H250309   1.408   3.669   4.825 -0.6544  0.8120 -0.0629
 9632TIP3   OH250310   0.306   1.759   2.032 -0.2407 -0.0632  0.0904
 9632TIP3    H150311   0.227   1.812   2.044  0.9391  1.1881  2.8562
 9632TIP3    H250312   0.350   1.799   1.957 -0.4178  1.5913  0.8308
 9633TIP3   OH250313   6.077   5.506  14.996 -0.4944 -0.2359  0.2672
 9633TIP3    H150314   6.003   5.559  15.029 -0.9474 -1.4419  1.2188
 9633TIP3    H250315   6.141   5.508  15.067 -0.6900 -1.3197  0.4701
 9634TIP3   OH250316   1.582   5.980   0.564 -0.1246  0.2437  0.4537
 9634TIP3    H150317   1.667   6.009   0.530 -0.1074  0.9839  1.1135
 9634TIP3    H250318   1.601   5.898   0.609 -0.1593 -0.7909 -1.3633
 9635TIP3   OH250319   5.552   6.402   2.113 -0.0901  0.3542 -0.0163
 9635TIP3    H150320   5.468   6.389   2.157  0.5622 -0.2916  1.0691
 9635TIP3    H250321   5.537   6.376   2.023 -0.0836 -3.5073  1.0081
 9636TIP3   OH250322   1.710   3.661   4.747 -0.1405  0.3067  0.5646
 9636TIP3    H150323   1.718   3.663   4.652  1.8263  0.0414  0.7060
 9636TIP3    H250324   1.623   3.697   4.765 -0.4860  0.4334 -1.3180
 9637TIP3   OH250325   4.721   4.402  17.146 -0.2675  0.7145 -0.1279
 9637TIP3    H150326   4.631   4.384  17.174 -0.2960  1.0374 -0.0081
 9637TIP3    H250327   4.769   4.419  17.227  0.1483 -0.5054 -0.1049
 9638TIP3   OH250328   1.971   0.150  13.849 -0.0374  0.1699  0.1469
 9638TIP3    H150329   1.930   0.079  13.898  0.5447  1.0095  1.8885
 9638TIP3    H250330   2.001   0.109  13.768 -0.6084 -1.3410  0.6783
 9639TIP3   OH250331   3.654   6.052  12.283 -0.3105  0.1217  0.7282
 9639TIP3    H150332   3.577   6.078  12.232  0.3557  1.4707  0.3802
 9639TIP3    H250333   3.677   5.966  12.249  0.3202  1.1336 -1.5557
 9640TIP3   OH250334   0.515   4.157  10.548  0.0440  0.3826  0.1676
 9640TIP3    H150335   0.525   4.119  10.635  0.5634 -0.5969 -0.3214
 9640TIP3    H250336   0.420   4.169  10.538 -0.0090  0.5495  0.8890
 9641TIP3   OH250337   4.583   4.543   4.980 -0.2781  0.2239 -0.0965
 9641TIP3    H150338   4.513   4.513   5.039  1.4205 -3.3195  0.2467
 9641TIP3    H250339   4.630   4.610   5.030 -1.4261  0.2898  0.9188
 9642TIP3   OH250340   4.588   0.892  16.662  0.3817 -0.0353  0.2110
 9642TIP3    H150341   4.523   0.881  16.593  0.3206  1.0684  0.0965
 9642TIP3    H250342   4.562   0.827  16.728 -1.7456  1.3899  0.8417
 9643TIP3   OH250343   6.642   1.477  15.677 -0.0776 -0.0800 -0.2338
 9643TIP3    H150344   6.635   1.567  15.710 -0.2128  0.3933 -1.5233
 9643TIP3    H250345   6.586   1.476  15.600 -0.9716 -1.5975  0.4183
 9644TIP3   OH250346   0.738   1.778  15.927 -0.2475 -0.2965 -0.2639
 9644TIP3    H150347   0.748   1.836  15.852  1.0447 -0.6679 -0.3795
 9644TIP3    H250348   0.761   1.691  15.894 -0.8358 -0.6580  0.2590
 9645TIP3   OH250349   3.761   3.372   5.458 -0.2037  0.5531 -0.1688
 9645TIP3    H150350   3.757   3.282   5.490 -0.1976  0.0140 -1.6523
 9645TIP3    H250351   3.845   3.377   5.412 -1.1339  0.7024 -1.8792
 9646TIP3   OH250352   1.653   2.980  10.717 -0.3730 -0.1723  0.1359
 9646TIP3    H150353   1.622   3.061  10.758 -2.3090 -1.3946  1.2234
 9646TIP3    H250354   1.575   2.945  10.673  0.6105 -1.0904 -0.8876
 9647TIP3   OH250355   3.440   3.646  12.732  0.0371  0.1488 -0.3750
 9647TIP3    H150356   3.519   3.593  12.718 -0.3841 -0.2845 -1.1398
 9647TIP3    H250357   3.368   3.584  12.722 -0.3902  0.4278  0.8918
 9648TIP3   OH250358   2.177   5.508  14.948 -0.0997  0.1072 -0.7585
 9648TIP3    H150359   2.131   5.457  14.881  0.1606  0.0588 -0.9046
 9648TIP3    H250360   2.255   5.455  14.968 -0.8637 -0.5259  0.5561
 9649TIP3   OH250361   3.219   5.009   6.123  0.1522 -0.0579  0.2904
 9649TIP3    H150362   3.140   5.055   6.149  0.9843  1.1285  0.7785
 9649TIP3    H250363   3.237   4.949   6.195 -1.7542 -2.2523 -1.0056
 9650TIP3   OH250364   1.452   1.495  15.917  0.4607  0.5050  0.0833
 9650TIP3    H150365   1.529   1.468  15.867 -0.5242 -2.0176 -0.1239
 9650TIP3    H250366   1.480   1.575  15.962  2.0603  1.6403 -2.7720
 9651TIP3   OH250367   3.164   3.761   0.969 -0.0915 -0.4838  0.3044
 9651TIP3    H150368   3.161   3.710   0.888 -0.1358  0.1173 -0.0718
 9651TIP3    H250369   3.146   3.697   1.038 -0.5072 -0.9098 -0.1958
 9652TIP3   OH250370   4.180   6.314   1.222 -0.2092  0.4316 -0.8359
 9652TIP3    H150371   4.190   6.282   1.312 -0.2902  0.0029 -0.9760
 9652TIP3    H250372   4.088   6.339   1.216 -0.5097 -0.7345 -1.1786
 9653TIP3   OH250373   4.094   4.425   4.104  0.0564  0.4991 -0.0059
 9653TIP3    H150374   4.000   4.429   4.086  0.2201 -0.5553 -1.0975
 9653TIP3    H250375   4.102   4.369   4.180 -0.2266  0.9039  0.3243
 9654TIP3   OH250376   5.178   2.710   2.028 -0.3670  0.2313  0.3559
 9654TIP3    H150377   5.120   2.725   2.102  0.7616  0.4399  1.2108
 9654TIP3    H250378   5.196   2.616   2.030 -0.1566  0.2754  0.4718
 9655TIP3   OH250379   3.134   4.132   5.811 -0.4757 -0.3342  0.5538
 9655TIP3    H150380   3.056   4.137   5.867  0.1172 -0.4528  1.4031
 9655TIP3    H250381   3.162   4.223   5.802  0.1597 -0.4259  1.5082
 9656TIP3   OH250382   4.994   6.781  10.878  0.1482  0.6640  0.9318
 9656TIP3    H150383   4.917   6.830  10.906 -0.2269  0.5454  0.1037
 9656TIP3    H250384   5.023   6.825  10.798 -0.2393 -0.5167  0.1298
 9657TIP3   OH250385   0.373   4.371   3.267 -0.2851 -0.1994  0.1867
 9657TIP3    H150386   0.387   4.381   3.361  0.6837 -0.7971  0.1133
 9657TIP3    H250387   0.376   4.460   3.233 -1.2371  0.0765  0.7905
 9658TIP3   OH250388   2.722   0.343  10.385 -0.1828 -0.0873  0.1278
 9658TIP3    H150389   2.758   0.412  10.330 -2.2801  0.7514 -0.2343
 9658TIP3    H250390   2.657   0.300  10.329 -0.9164 -0.5205  1.3062
 9659TIP3   OH250391   3.380   6.676  11.569  0.0744 -0.2420  0.0374
 9659TIP3    H150392   3.430   6.751  11.535 -0.6466  0.2156 -0.0139
 9659TIP3    H250393   3.443   6.604  11.569  1.0287  0.5811  0.9700
 9660TIP3   OH250394   6.011   5.282  14.852  0.0190  0.0917  0.3476
 9660TIP3    H150395   6.063   5.358  14.878  1.6169 -0.5110 -1.0166
 9660TIP3    H250396   5.925   5.317  14.834  1.2446  1.9135 -2.1679
 9661TIP3   OH250397   6.479   1.923  12.842  0.4207  0.0429 -0.3144
 9661TIP3    H150398   6.486   1.830  12.819  3.5695  0.2913 -0.5775
 9661TIP3    H250399   6.492   1.924  12.937 -0.4310  0.1799 -0.1895
 9662TIP3   OH250400   2.436   3.366  14.165 -0.1883 -0.2362 -0.1324
 9662TIP3    H150401   2.361   3.424  14.150 -0.5650 -0.7954 -0.4302
 9662TIP3    H250402   2.499   3.420  14.213 -1.7961 -0.4474  2.3258
 9663TIP3   OH250403   4.909   4.234   3.489  0.4307 -0.2480  0.5633
 9663TIP3    H150404   4.826   4.207   3.450  0.2483 -0.3602  1.0253
 9663TIP3    H250405   4.966   4.158   3.478  0.3847 -0.2728  0.4955
 9664TIP3   OH250406   6.094   3.604   4.029 -0.0914  0.9293  0.0342
 9664TIP3    H150407   6.156   3.633   4.096  1.3725 -0.5368 -0.6326
 9664TIP3    H250408   6.089   3.509   4.042 -0.3876  0.7371 -1.4336
 9665TIP3   OH250409   2.485   6.707  15.910  0.2315 -0.0978 -0.6672
 9665TIP3    H150410   2.575   6.675  15.899 -0.0205 -1.0719  0.0398
 9665TIP3    H250411   2.455   6.665  15.991  0.0883  2.3950  0.6166
 9666TIP3   OH250412   2.610   6.073  13.450 -0.0928 -0.0880 -0.3998
 9666TIP3    H150413   2.637   6.106  13.535 -0.3513  1.2546 -0.8306
 9666TIP3    H250414   2.515   6.064  13.457 -0.0414 -0.6266 -0.3319
 9667TIP3   OH250415   6.639   5.403  10.655  0.4087  0.4702 -0.1071
 9667TIP3    H150416   6.679   5.335  10.600 -1.9827  0.9595 -2.5612
 9667TIP3    H250417   6.560   5.429  10.607 -0.2807  2.9061  2.2403
 9668TIP3   OH250418   4.382   4.933  11.658  0.0775  0.1597 -0.0659
 9668TIP3    H150419   4.405   4.847  11.625  1.1814  0.5945 -0.4526
 9668TIP3    H250420   4.327   4.971  11.589  1.7502  0.7692 -1.0983
 9669TIP3   OH250421   1.884   5.291   6.306 -0.4563  0.4110  0.6454
 9669TIP3    H150422   1.933   5.350   6.364 -0.0416 -0.5075  1.2453
 9669TIP3    H250423   1.947   5.222   6.284 -0.5606  0.8462 -1.0494
 9670TIP3   OH250424   0.802   1.416  16.086  0.2256 -0.4585  0.5181
 9670TIP3    H150425   0.877   1.457  16.129  0.7803 -1.6197  0.6751
 9670TIP3    H250426   0.786   1.469  16.009  0.0870  0.8362  1.4229
 9671TIP3   OH250427   0.467   0.592   4.297  0.4305 -0.6676  0.3659
 9671TIP3    H150428   0.478   0.497   4.300  1.1711 -0.5808  0.4937
 9671TIP3    H250429   0.468   0.620   4.388 -0.9067 -0.6542  0.3857
 9672TIP3   OH250430   6.368   6.662   5.324  0.1262 -0.1460  0.4490
 9672TIP3    H150431   6.462   6.662   5.342 -0.0218 -1.6972  1.3586
 9672TIP3    H250432   6.346   6.754   5.309  1.5051  0.4326  1.8126
 9673TIP3   OH250433   1.154   0.741  11.734  0.6276 -0.8672 -0.8752
 9673TIP3    H150434   1.189   0.654  11.715  2.9595  0.0030 -0.7975
 9673TIP3    H250435   1.232   0.796  11.744 -0.7888  1.0322  0.0130
 9674TIP3   OH250436   4.942   3.406  14.846 -0.1391 -0.1963  0.2763
 9674TIP3    H150437   4.988   3.401  14.930  2.3973 -2.5699 -1.1360
 9674TIP3    H250438   4.850   3.390  14.868  0.5037 -1.0321  2.5796
 9675TIP3   OH250439   4.120   0.689  11.861  0.0610  0.3664  0.0526
 9675TIP3    H150440   4.055   0.649  11.919 -0.7771  3.4346  1.3541
 9675TIP3    H250441   4.182   0.731  11.921  2.2184 -0.9104 -1.2264
 9676TIP3   OH250442   2.899   3.004  12.129  0.2683  0.8697  0.0985
 9676TIP3    H150443   2.891   3.013  12.224  1.4007  1.1074  0.1784
 9676TIP3    H250444   2.897   3.094  12.096  1.1485  0.8608  0.0098
 9677TIP3   OH250445   6.122   2.586   1.809  0.6517 -0.4673  0.2141
 9677TIP3    H150446   6.091   2.674   1.830  0.5852  0.1014 -2.1646
 9677TIP3    H250447   6.057   2.528   1.850 -0.1463  0.6042  0.4972
 9678TIP3   OH250448   3.208   6.577   4.342 -0.5812  0.2344 -0.2369
 9678TIP3    H150449   3.119   6.547   4.325 -0.1904 -1.3163  0.4098
 9678TIP3    H250450   3.251   6.503   4.384  1.2301  0.7168 -1.1982
 9679TIP3   OH250451   1.522   4.137   2.980  0.5586 -0.2196 -0.3679
 9679TIP3    H150452   1.465   4.155   2.905  0.6071 -0.8852 -0.5680
 9679TIP3    H250453   1.602   4.100   2.941  0.2650 -1.3230  0.0610
 9680TIP3   OH250454   1.329   3.727   5.126  0.0962 -0.3040  0.1231
 9680TIP3    H150455   1.330   3.636   5.157  4.3586 -0.4747 -0.2187
 9680TIP3    H250456   1.349   3.779   5.204  3.4034 -0.1674 -0.7485
 9681TIP3   OH250457   4.845   1.246  11.891  0.5492  0.2390 -0.5347
 9681TIP3    H150458   4.832   1.279  11.980 -0.4149  0.9141 -0.9250
 9681TIP3    H250459   4.899   1.168  11.903  0.9863  0.6955  0.5878
 9682TIP3   OH250460   2.812   4.445  14.780 -0.2400 -0.3046 -0.2514
 9682TIP3    H150461   2.817   4.447  14.876 -2.7680  0.6941 -0.1110
 9682TIP3    H250462   2.820   4.537  14.754  1.3417 -0.6571 -1.0813
 9683TIP3   OH250463   6.753   5.850   5.783 -0.2823 -0.2481  0.0955
 9683TIP3    H150464   6.833   5.867   5.832 -0.1227  0.9843 -0.5697
 9683TIP3    H250465   6.700   5.928   5.795 -0.4089 -0.1004 -1.3484
 9684TIP3   OH250466   1.121   0.068  14.079 -1.0519  0.5996 -0.3295
 9684TIP3    H150467   1.079  -0.003  14.030  1.3349 -1.0706 -0.0355
 9684TIP3    H250468   1.155   0.127  14.012  0.4787 -0.6563 -0.6953
 9685TIP3   OH250469   4.505   4.989   2.175 -0.2511  0.5587  0.5141
 9685TIP3    H150470   4.585   5.040   2.185  0.6495 -0.8724  0.8819
 9685TIP3    H250471   4.516   4.915   2.235 -1.0085 -0.6738 -0.8226
 9686TIP3   OH250472   2.828   4.613  16.930  0.2366  0.0277  0.3048
 9686TIP3    H150473   2.865   4.643  17.014  1.3645 -1.5458  0.3983
 9686TIP3    H250474   2.904   4.606  16.872 -0.2581 -0.8162 -0.2563
 9687TIP3   OH250475   0.428   1.758  14.585  0.4553 -0.4086 -0.5154
 9687TIP3    H150476   0.426   1.741  14.491  0.6462 -0.8003 -0.4503
 9687TIP3    H250477   0.373   1.835  14.596  1.8700  0.7086 -1.1786
 9688TIP3   OH250478   2.321   0.119  17.127  0.3822  0.4014  0.2327
 9688TIP3    H150479   2.360   0.065  17.196 -1.1707  1.9205  2.3526
 9688TIP3    H250480   2.371   0.201  17.129  1.0480  0.0461 -1.2167
 9689TIP3   OH250481   2.595   5.635   5.174 -0.4785  0.2943  0.2026
 9689TIP3    H150482   2.665   5.687   5.133 -0.4699 -0.6412 -1.0099
 9689TIP3    H250483   2.635   5.600   5.254 -0.2725  1.5880  0.6799
 9690TIP3   OH250484   0.250   6.018   1.921 -0.0142  0.1711 -0.0771
 9690TIP3    H150485   0.210   6.055   1.843 -0.1252 -0.1026 -0.1492
 9690TIP3    H250486   0.337   5.991   1.893  0.5752  1.6124  0.3018
 9691TIP3   OH250487   0.742   3.061   1.971 -0.1762  0.0662 -0.1127
 9691TIP3    H150488   0.673   3.068   1.905 -1.0136 -0.6674  0.6718
 9691TIP3    H250489   0.702   3.094   2.052  0.5781  0.1965  0.2099
 9692TIP3   OH250490   3.293   2.139   1.936 -0.1623  0.4015 -0.1097
 9692TIP3    H150491   3.323   2.212   1.882 -0.0367  0.1355 -0.3972
 9692TIP3    H250492   3.214   2.107   1.893  0.9986 -1.0320 -1.1954
 9693TIP3   OH250493   1.559   4.072   0.566  0.1726 -0.1582 -0.4916
 9693TIP3    H150494   1.651   4.059   0.543  1.1216  2.3765  1.5977
 9693TIP3    H250495   1.523   4.125   0.495  0.7156  0.0443 -0.6176
 9694TIP3   OH250496   3.136   0.408  11.862  0.7805 -0.0129 -0.4350
 9694TIP3    H150497   3.228   0.389  11.875  0.9635  1.6448  0.8786
 9694TIP3    H250498   3.099   0.412  11.950  0.2008  2.7302 -0.7592
 9695TIP3   OH250499   2.104   3.159  12.020  0.0033 -0.3249 -0.1942
 9695TIP3    H150500   2.170   3.096  11.992  0.0103 -0.7091  0.6828
 9695TIP3    H250501   2.153   3.229  12.062 -0.2371 -1.2079  1.5768
 9696TIP3   OH250502   1.931   4.033  16.411 -0.2056 -0.0981 -0.2381
 9696TIP3    H150503   2.004   3.992  16.364  1.4325  0.6448  1.5664
 9696TIP3    H250504   1.924   3.982  16.492 -2.1720 -0.5830 -0.6802
 9697TIP3   OH250505   4.016   5.337  13.299 -0.6950 -0.3159 -0.1216
 9697TIP3    H150506   4.000   5.413  13.354 -1.5318 -0.7861  0.2952
 9697TIP3    H250507   3.965   5.353  13.219 -3.7417 -2.0147  1.3851
 9698TIP3   OH250508   4.404   3.820   3.572 -0.4213 -0.0337 -0.1784
 9698TIP3    H150509   4.383   3.824   3.478  0.7796 -0.4387 -0.4738
 9698TIP3    H250510   4.388   3.729   3.596 -1.0334  0.1398  0.0941
 9699TIP3   OH250511   1.019   4.840  17.222 -0.1566 -0.5502 -0.5152
 9699TIP3    H150512   1.111   4.857  17.242 -0.5635  0.6852  0.4252
 9699TIP3    H250513   1.003   4.751  17.254  0.6386 -0.6684 -0.4405
 9700TIP3   OH250514   6.473   4.265   5.601  0.4130  0.5465  0.2786
 9700TIP3    H150515   6.509   4.349   5.628  0.6928  0.8188 -0.9321
 9700TIP3    H250516   6.381   4.269   5.628  0.7979  0.6232  1.5994
 9701TIP3   OH250517   0.232   6.420   0.248  0.2372  0.0033 -0.3076
 9701TIP3    H150518   0.206   6.330   0.226 -3.3368  0.8971 -0.1336
 9701TIP3    H250519   0.182   6.475   0.187  1.0519  1.9327  0.7214
 9702TIP3   OH250520   4.408   0.482  16.246  0.2585 -0.0902 -0.1042
 9702TIP3    H150521   4.408   0.578  16.241 -2.1776 -0.0865 -0.8003
 9702TIP3    H250522   4.332   0.461  16.300 -0.5826 -1.6774 -1.8473
 9703TIP3   OH250523   3.889   1.443  11.823 -0.5131  0.3407  0.5568
 9703TIP3    H150524   3.818   1.505  11.804 -0.0411  0.1018 -2.1851
 9703TIP3    H250525   3.965   1.498  11.841 -0.3401  0.5890 -0.8886
 9704TIP3   OH250526   3.863   6.530  13.269 -0.2957  0.0806  0.1335
 9704TIP3    H150527   3.953   6.495  13.274 -1.3297 -2.7347  0.0387
 9704TIP3    H250528   3.832   6.505  13.183 -1.4289  0.3833  0.4486
 9705TIP3   OH250529   5.616   5.672   1.197 -0.7246 -0.3031  0.0016
 9705TIP3    H150530   5.598   5.617   1.273 -0.0304 -1.4341 -0.6477
 9705TIP3    H250531   5.711   5.672   1.190 -0.8252 -1.0519 -1.4808
 9706TIP3   OH250532   1.353   6.772  11.620 -0.0588 -0.0698 -0.2046
 9706TIP3    H150533   1.428   6.810  11.665 -0.1435  0.9928 -0.9193
 9706TIP3    H250534   1.286   6.763  11.688  0.2693  0.2184  0.1594
 9707TIP3   OH250535   4.176   1.860   4.116 -0.1533  0.3437  0.3763
 9707TIP3    H150536   4.196   1.812   4.036  1.0839  0.6124  0.5104
 9707TIP3    H250537   4.120   1.801   4.166  0.4454 -0.5033  0.0504
 9708TIP3   OH250538   2.533   5.344  14.305  0.6903  0.1958  0.0770
 9708TIP3    H150539   2.472   5.397  14.254  0.8970  0.7496  0.4065
 9708TIP3    H250540   2.608   5.331  14.247  0.7633  0.5064  0.1043
 9709TIP3   OH250541   3.016   5.048   6.309  0.5256 -0.3149  0.3656
 9709TIP3    H150542   3.007   5.127   6.362  1.7349  0.7031 -0.9119
 9709TIP3    H250543   2.945   4.990   6.339 -0.7387  1.4834  0.8926
 9710TIP3   OH250544   2.040   4.838  11.580  0.5691  0.0022 -0.3523
 9710TIP3    H150545   2.039   4.761  11.637 -0.9710  1.1427  1.1814
 9710TIP3    H250546   2.085   4.808  11.500 -2.1565 -3.2168 -0.7795
 9711TIP3   OH250547   0.030   2.603   3.193 -0.3328 -0.3736  0.4155
 9711TIP3    H150548  -0.063   2.620   3.212  0.1991  1.2229  1.6808
 9711TIP3    H250549   0.077   2.673   3.238  1.3669  0.1413 -2.0401
 9712TIP3   OH250550   1.125   6.576   2.567  0.2161  0.7186 -0.0813
 9712TIP3    H150551   1.042   6.570   2.614  1.0760  0.1587  1.3675
 9712TIP3    H250552   1.101   6.561   2.475 -1.1912 -0.0167  0.3962
 9713TIP3   OH250553   2.682   0.076   1.585  0.1901 -0.3376 -0.5044
 9713TIP3    H150554   2.746   0.118   1.642 -0.4345  0.0920 -0.1054
 9713TIP3    H250555   2.609   0.138   1.582 -1.7881 -2.4256  2.0817
 9714TIP3   OH250556   0.396   0.679   5.240 -0.0273  0.2107 -0.1633
 9714TIP3    H150557   0.376   0.734   5.316  0.4035 -0.1832  0.2356
 9714TIP3    H250558   0.356   0.726   5.166  3.5919  3.1157 -0.4571
 9715TIP3   OH250559   5.456   3.159   4.504 -0.3682  0.2838 -0.1301
 9715TIP3    H150560   5.485   3.069   4.487 -0.0400  0.7123 -1.9503
 9715TIP3    H250561   5.530   3.201   4.548  0.8719  0.6630 -2.5108
 9716TIP3   OH250562   1.822   4.315   1.140 -0.2350  0.6740 -0.2949
 9716TIP3    H150563   1.846   4.231   1.099  0.9051  0.0246  1.6314
 9716TIP3    H250564   1.867   4.381   1.086 -0.5416  0.0037 -1.3868
 9717TIP3   OH250565   6.108   6.785  13.913  0.1356 -0.1227  0.0533
 9717TIP3    H150566   6.094   6.795  14.008 -0.7111  0.2653 -0.1079
 9717TIP3    H250567   6.176   6.848  13.892  0.0302  0.0856  0.3350
 9718TIP3   OH250568   2.229   4.261   5.197 -0.1192  0.9126 -0.1160
 9718TIP3    H150569   2.258   4.204   5.268 -0.1819  0.5947 -0.3476
 9718TIP3    H250570   2.264   4.348   5.220 -0.0587  0.7893  0.2529
 9719TIP3   OH250571   2.994   2.683  14.199  0.0379  0.3126  0.4259
 9719TIP3    H150572   3.042   2.600  14.195  2.4250  1.7231 -1.3627
 9719TIP3    H250573   3.027   2.726  14.278 -1.3315 -0.4567  1.4534
 9720TIP3   OH250574   4.957   2.913   0.163 -0.4795  0.1595  0.3928
 9720TIP3    H150575   4.868   2.939   0.140 -0.8152 -2.2720 -1.2496
 9720TIP3    H250576   5.013   2.979   0.121 -1.4123  0.3334 -0.5870
 9721TIP3   OH250577   2.701   1.207  14.071 -0.1087 -0.2333  0.1899
 9721TIP3    H150578   2.663   1.295  14.071  0.9291  0.2322  0.4256
 9721TIP3    H250579   2.667   1.165  13.993  0.3093  0.7986 -0.5552
 9722TIP3   OH250580   0.052   4.559  12.894 -0.2384 -0.3414  0.4190
 9722TIP3    H150581   0.005   4.581  12.814 -1.5696 -1.3461  0.9045
 9722TIP3    H250582   0.115   4.492  12.867  0.6699  0.7354 -0.1598
 9723TIP3   OH250583   4.895   2.138   5.935 -0.2430 -0.2208  0.2752
 9723TIP3    H150584   4.812   2.174   5.904  0.0533 -0.3289 -0.6476
 9723TIP3    H250585   4.899   2.162   6.028 -1.3110 -0.2344  0.3231
 9724TIP3   OH250586   0.137   4.078   0.288  0.1362  0.6682 -0.4280
 9724TIP3    H150587   0.127   4.083   0.383 -0.9074 -0.9646 -0.4445
 9724TIP3    H250588   0.148   3.985   0.270 -0.3388  0.9083 -1.9789
 9725TIP3   OH250589   4.940   0.022  11.604 -0.5799 -0.1121 -0.4276
 9725TIP3    H150590   4.878  -0.017  11.543 -0.4676  0.2384 -0.7685
 9725TIP3    H250591   4.979   0.095  11.555  0.4014 -0.5831 -0.3731
 9726TIP3   OH250592   6.494   4.336  12.797 -0.0766  0.3055 -0.3975
 9726TIP3    H150593   6.482   4.268  12.731 -0.5554  0.7164 -0.7289
 9726TIP3    H250594   6.419   4.394  12.787 -0.4238  0.0961  0.8413
 9727TIP3   OH250595   2.725   5.719  11.845 -0.0989 -0.4371  0.1032
 9727TIP3    H150596   2.650   5.749  11.896  0.1883  0.1126  0.2064
 9727TIP3    H250597   2.689   5.653  11.786 -0.8763  0.6177 -0.6206
 9728TIP3   OH250598   1.905   5.927  14.136  0.1306 -0.4478 -0.3317
 9728TIP3    H150599   1.883   5.908  14.227 -0.9480  1.6478 -0.1176
 9728TIP3    H250600   1.821   5.953  14.097  0.7526 -0.4834 -1.7057
 9729TIP3   OH250601   4.682   0.008   0.202  0.3154  0.2250 -0.6424
 9729TIP3    H150602   4.689   0.075   0.134 -0.0433  2.0475  1.0733
 9729TIP3    H250603   4.638  -0.066   0.159 -1.9949  2.2152 -1.7679
 9730TIP3   OH250604   5.694   5.393  11.768  0.8720 -0.3488 -0.5895
 9730TIP3    H150605   5.601   5.409  11.749  1.1169 -0.8568 -2.3160
 9730TIP3    H250606   5.697   5.301  11.795  0.5987  0.2347  1.5421
 9731TIP3   OH250607   1.640   3.999  13.809  0.3900  0.0326 -0.1406
 9731TIP3    H150608   1.632   3.964  13.898 -0.3729  1.9574  0.5748
 9731TIP3    H250609   1.702   4.071  13.817 -2.4731  2.6105 -0.4122
 9732TIP3   OH250610   0.310   5.705   0.860  0.0634  0.0070  0.4785
 9732TIP3    H150611   0.254   5.722   0.935  1.9932 -0.2757  2.0159
 9732TIP3    H250612   0.356   5.787   0.845 -0.3551  0.0783 -0.4358
 9733TIP3   OH250613   2.466   0.230   1.508 -0.3049 -0.1357  0.6217
 9733TIP3    H150614   2.391   0.170   1.515 -1.4767  1.4117  1.4646
 9733TIP3    H250615   2.487   0.229   1.414 -0.1183 -2.0811  0.6539
 9734TIP3   OH250616   5.528   4.506   2.931  1.1922 -0.5528  0.3984
 9734TIP3    H150617   5.501   4.598   2.935  1.9516 -0.3358  0.5052
 9734TIP3    H250618   5.564   4.494   2.843 -3.3449 -1.9907 -1.4125
 9735TIP3   OH250619   1.334   3.767  15.411  0.0132 -0.4113 -0.2707
 9735TIP3    H150620   1.304   3.754  15.501 -0.2758  2.1718  0.0252
 9735TIP3    H250621   1.429   3.776  15.418 -0.1672  1.4871  0.0097
 9736TIP3   OH250622   4.991   2.747   5.437 -0.4292  0.1015 -0.7128
 9736TIP3    H150623   4.995   2.678   5.503 -1.1514 -0.0625 -0.8367
 9736TIP3    H250624   5.078   2.788   5.439 -0.4423  0.0716  0.3088
 9737TIP3   OH250625   5.391   4.132  14.133 -0.8334  0.7150 -0.2053
 9737TIP3    H150626   5.396   4.226  14.152 -0.0406  0.2966  1.7765
 9737TIP3    H250627   5.346   4.095  14.209 -0.6601 -0.5876 -0.7331
 9738TIP3   OH250628   5.071   0.174   4.704 -0.4421 -0.1110  0.4834
 9738TIP3    H150629   4.979   0.150   4.718 -0.4784  0.8852  2.0661
 9738TIP3    H250630   5.067   0.256   4.656 -0.3864  0.3673  1.2968
 9739TIP3   OH250631   3.174   6.576  15.933  0.3557  1.0412 -0.5466
 9739TIP3    H150632   3.235   6.505  15.953  0.1599  0.7772 -0.8846
 9739TIP3    H250633   3.196   6.601  15.843 -0.0020  0.9753 -0.6530
 9740TIP3   OH250634   3.882   0.431   2.933 -0.4172 -0.1734 -0.0041
 9740TIP3    H150635   3.951   0.376   2.972  0.1287  1.9370  2.1655
 9740TIP3    H250636   3.930   0.505   2.895 -1.2761 -0.3066 -1.3750
 9741TIP3   OH250637   0.400   0.807   4.136 -0.1748  0.0987  0.1634
 9741TIP3    H150638   0.421   0.732   4.191 -0.6536 -0.2561 -0.1413
 9741TIP3    H250639   0.415   0.777   4.047 -1.0074  0.1608  0.0035
 9742TIP3   OH250640   3.079   1.692  11.434  0.4422  0.5411  0.0047
 9742TIP3    H150641   3.080   1.695  11.338 -1.7964 -0.9163 -0.0993
 9742TIP3    H250642   3.018   1.761  11.458  1.2634  1.1297  0.4052
 9743TIP3   OH250643   0.234   2.868  11.331  0.2260 -0.1887 -0.4554
 9743TIP3    H150644   0.328   2.859  11.342  0.2259  0.4108  0.0564
 9743TIP3    H250645   0.212   2.949  11.377 -0.0584  1.4257 -3.3684
 9744TIP3   OH250646   5.267   0.043  14.239 -0.2282 -0.1418 -0.2572
 9744TIP3    H150647   5.311   0.096  14.306 -1.2708 -0.4797  0.7133
 9744TIP3    H250648   5.213  -0.018  14.289 -1.7725  0.2408 -1.4171
 9745TIP3   OH250649   6.479   6.407   1.633 -0.3279  0.0832  0.4609
 9745TIP3    H150650   6.452   6.396   1.542 -0.7991  0.5791  0.5361
 9745TIP3    H250651   6.401   6.387   1.684 -0.3430  0.7513  0.7102
 9746TIP3   OH250652   5.211   4.622  15.779 -0.0827 -0.0487  0.7197
 9746TIP3    H150653   5.198   4.712  15.810 -1.2548 -0.0228  0.1761
 9746TIP3    H250654   5.190   4.568  15.855 -0.0033  0.1174  0.8614
 9747TIP3   OH250655   0.292   2.907  15.801 -0.1470 -0.2162  0.7033
 9747TIP3    H150656   0.284   2.856  15.881  0.5352  1.2019  1.6855
 9747TIP3    H250657   0.371   2.960  15.813 -1.7158  2.2924  0.4234
 9748TIP3   OH250658   1.414   3.127   5.891  0.1682 -0.1210  0.1933
 9748TIP3    H150659   1.354   3.163   5.957  1.5356  0.0166  1.3835
 9748TIP3    H250660   1.488   3.188   5.889  0.0573 -0.0231 -1.6285
 9749TIP3   OH250661   6.606   6.474  12.495 -0.0436  0.6162 -0.0703
 9749TIP3    H150662   6.593   6.564  12.466  1.8890  0.9885  0.1627
 9749TIP3    H250663   6.549   6.465  12.572  0.0892  1.7719  0.1632
 9750TIP3   OH250664   2.253   1.461  10.952  0.1353 -0.1070 -0.3352
 9750TIP3    H150665   2.309   1.534  10.978 -0.4112 -0.0909  0.8126
 9750TIP3    H250666   2.172   1.502  10.923 -1.2109 -0.3588  2.9214
 9751TIP3   OH250667   4.801   3.914   0.129  0.7898  0.0552  0.2401
 9751TIP3    H150668   4.783   3.949   0.042  0.3170  0.0314  0.3269
 9751TIP3    H250669   4.748   3.834   0.134 -2.0035  1.9290  1.8818
 9752TIP3   OH250670   2.488   1.546   4.431  0.6326  0.0796  0.0179
 9752TIP3    H150671   2.410   1.593   4.402  1.6668  1.0396 -1.3089
 9752TIP3    H250672   2.473   1.456   4.405 -0.3690  0.1067  0.4839
 9753TIP3   OH250673   0.965   6.371   5.512  0.0941  0.1162  0.3666
 9753TIP3    H150674   1.010   6.419   5.444 -2.1372  0.9561 -0.5739
 9753TIP3    H250675   0.899   6.319   5.466  0.8151 -1.9475  1.5835
 9754TIP3   OH250676   4.644   0.417   0.572 -0.7456 -0.1704 -0.3409
 9754TIP3    H150677   4.551   0.392   0.566 -0.9962  0.9226 -1.1710
 9754TIP3    H250678   4.649   0.471   0.651 -1.0537  0.7517 -0.9457
 9755TIP3   OH250679   5.062   6.518  16.257  0.9131  0.3911 -0.4163
 9755TIP3    H150680   5.093   6.598  16.300 -0.6098  0.4876  0.5291
 9755TIP3    H250681   4.984   6.545  16.209  1.6505 -0.0746 -1.9213
 9756TIP3   OH250682   3.103   1.285   2.713 -0.1397  0.5522 -0.2153
 9756TIP3    H150683   3.065   1.296   2.800 -0.3923  1.6164 -0.4504
 9756TIP3    H250684   3.190   1.249   2.729 -0.4898 -0.0151  0.4313
 9757TIP3   OH250685   3.150   2.902  10.822  0.2253 -0.0372  0.4553
 9757TIP3    H150686   3.233   2.855  10.835  0.1014 -0.4324 -0.1409
 9757TIP3    H250687   3.082   2.837  10.841  0.0530  0.1271  0.4033
 9758TIP3   OH250688   6.174   5.366   5.753  0.2483  0.0686  0.6083
 9758TIP3    H150689   6.170   5.423   5.830  0.4830 -0.3054  0.8975
 9758TIP3    H250690   6.091   5.319   5.754  0.4458 -0.2760  0.8954
 9759TIP3   OH250691   6.167   4.615   3.413  0.5244  0.2795 -0.1047
 9759TIP3    H150692   6.131   4.699   3.384 -1.0704  0.8775  3.4055
 9759TIP3    H250693   6.207   4.634   3.498  1.6903 -2.1667 -0.0644
 9760TIP3   OH250694   5.153   2.231  13.662 -0.2263  1.0219  0.1842
 9760TIP3    H150695   5.131   2.222  13.569 -0.7537 -1.1665  0.4777
 9760TIP3    H250696   5.070   2.252  13.704  0.0133  2.0170  0.1746
 9761TIP3   OH250697   0.730   2.020   0.583 -0.4534  0.0328 -0.2207
 9761TIP3    H150698   0.712   2.039   0.490 -0.6126  1.0394  0.0054
 9761TIP3    H250699   0.649   1.982   0.615 -1.3678  2.1888  0.1571
 9762TIP3   OH250700   3.818   4.673  14.858 -0.2069 -0.2340 -0.2144
 9762TIP3    H150701   3.759   4.612  14.814 -0.3455  0.0414 -0.4162
 9762TIP3    H250702   3.833   4.635  14.944 -2.6956  0.9626  0.7832
 9763TIP3   OH250703   5.026   4.822  12.855  0.1474  0.1989  0.0171
 9763TIP3    H150704   5.003   4.804  12.764 -0.5774  1.5008 -0.0786
 9763TIP3    H250705   5.104   4.769  12.871  0.7024  0.4996 -1.5863
 9764TIP3   OH250706   2.016   3.784  17.170  0.2288  0.2086  0.8538
 9764TIP3    H150707   2.110   3.770  17.164  0.2582  0.8837 -0.6781
 9764TIP3    H250708   1.977   3.702  17.138  0.2797 -0.2930  2.0546
 9765TIP3   OH250709   2.015   5.483   6.553  0.0483 -0.2506 -0.0836
 9765TIP3    H150710   1.993   5.408   6.608 -0.1037  0.3542  0.6916
 9765TIP3    H250711   2.070   5.538   6.608 -0.3097  0.4852 -0.4476
 9766TIP3   OH250712   1.311   4.004  12.693  0.0927  0.0107 -0.3529
 9766TIP3    H150713   1.239   3.948  12.664 -2.6483  2.3144  1.6489
 9766TIP3    H250714   1.350   3.958  12.766 -0.8965 -0.1751  0.0576
 9767TIP3   OH250715   1.057   0.504   2.396 -0.3360  0.1480 -0.2104
 9767TIP3    H150716   1.047   0.582   2.450  1.4153  0.8387 -0.8661
 9767TIP3    H250717   1.112   0.445   2.448 -1.8425 -0.7743  0.3838
 9768TIP3   OH250718   3.162   0.099  12.821  0.2953 -0.0495 -0.2399
 9768TIP3    H150719   3.256   0.116  12.833  0.1353  1.6930 -1.2942
 9768TIP3    H250720   3.158   0.039  12.747  0.7909 -3.6874  2.5757
 9769TIP3   OH250721   1.991   5.322   4.915  0.6657  0.1487 -0.4978
 9769TIP3    H150722   1.963   5.295   4.828 -0.3860 -0.1619 -0.0737
 9769TIP3    H250723   2.077   5.283   4.926  0.4435 -0.5070 -1.0760
 9770TIP3   OH250724   1.212   2.990  15.296 -0.7348  0.4916  0.4801
 9770TIP3    H150725   1.196   3.054  15.365 -0.1816  1.3149 -0.1431
 9770TIP3    H250726   1.307   2.992  15.284 -0.5691 -1.3840  1.3342
 9771TIP3   OH250727   6.001   3.653  13.768 -0.1725 -0.9628 -0.3311
 9771TIP3    H150728   6.060   3.709  13.718 -0.9501 -0.8806 -1.1609
 9771TIP3    H250729   6.052   3.627  13.845  1.2310 -1.5347 -1.4330
 9772TIP3   OH250730   5.462   4.809   4.967  0.1689  0.6606  0.1116
 9772TIP3    H150731   5.536   4.849   5.012 -0.7383  1.2416  1.1255
 9772TIP3    H250732   5.446   4.727   5.014  0.0859  0.6048 -0.0137
 9773TIP3   OH250733   3.382   2.561   3.363 -0.3651  0.0283 -0.2786
 9773TIP3    H150734   3.329   2.634   3.331 -0.5107  0.2254  0.4180
 9773TIP3    H250735   3.338   2.532   3.443 -0.5015 -1.0447 -0.7197
 9774TIP3   OH250736   3.851   4.981  16.889 -0.0432  0.0913 -0.5566
 9774TIP3    H150737   3.849   4.892  16.926 -0.5122  0.3560  0.0488
 9774TIP3    H250738   3.939   4.988  16.852  0.2433 -0.3832  0.0033
 9775TIP3   OH250739   1.258   5.783   5.840 -0.5932 -0.7757 -0.9484
 9775TIP3    H150740   1.217   5.848   5.783 -1.7141 -1.0313 -0.4364
 9775TIP3    H250741   1.197   5.709   5.842 -0.7138 -0.6667  0.7760
 9776TIP3   OH250742   2.475   4.560   1.403  0.6699 -0.2735  0.1582
 9776TIP3    H150743   2.484   4.504   1.481  0.1300  0.0394  0.4516
 9776TIP3    H250744   2.460   4.498   1.331 -3.7365 -0.4180  1.0435
 9777TIP3   OH250745   0.862   6.142  12.729  0.4724 -0.5054 -0.1268
 9777TIP3    H150746   0.795   6.076  12.743 -0.3400 -0.1386 -2.1736
 9777TIP3    H250747   0.871   6.149  12.634  2.0116  0.8495  0.0825
 9778TIP3   OH250748   3.933   3.270  13.170  0.1175  0.1109 -0.1671
 9778TIP3    H150749   3.904   3.181  13.188  2.3065 -0.3405  1.4825
 9778TIP3    H250750   3.870   3.326  13.216 -1.1478 -0.5917 -1.0442
 9779TIP3   OH250751   3.766   0.963  11.910 -0.4312  0.3827  0.4903
 9779TIP3    H150752   3.794   0.875  11.933 -1.0298  0.4442  1.5099
 9779TIP3    H250753   3.846   1.014  11.905 -0.3171  0.5462  3.3114
 9780TIP3   OH250754   3.727   5.119   2.070 -0.3356 -0.2734 -0.4931
 9780TIP3    H150755   3.745   5.029   2.041 -0.9961  0.2520 -2.6707
 9780TIP3    H250756   3.681   5.108   2.153 -0.0741 -1.9534 -0.5423
 9781TIP3   OH250757   3.420   2.769   5.787  0.1924  0.2668 -0.1986
 9781TIP3    H150758   3.461   2.726   5.713  3.7593  1.2002  1.1443
 9781TIP3    H250759   3.336   2.724   5.798  0.5229 -1.2385 -3.4610
 9782TIP3   OH250760   1.350   6.580   3.205  0.3764 -0.0263  0.2299
 9782TIP3    H150761   1.354   6.574   3.300 -0.1504  1.8585  0.4035
 9782TIP3    H250762   1.391   6.500   3.173 -0.1450 -1.0316  2.0471
 9783TIP3   OH250763   4.472   3.700   0.378 -0.1187 -0.2137  0.5625
 9783TIP3    H150764   4.377   3.708   0.367  0.1080  0.6840 -0.7587
 9783TIP3    H250765   4.509   3.773   0.329  1.2678 -0.5714  1.0485
 9784TIP3   OH250766   3.965   0.850   2.169 -0.1686  0.2351 -0.0173
 9784TIP3    H150767   4.051   0.816   2.143 -0.3525  0.1620 -0.5457
 9784TIP3    H250768   3.974   0.872   2.262  0.2919 -0.1859  0.0377
 9785TIP3   OH250769   3.071   3.626   6.432 -0.1422  0.2822 -0.0552
 9785TIP3    H150770   3.132   3.698   6.447  0.2584  0.0490 -0.5104
 9785TIP3    H250771   3.093   3.561   6.499  0.6893 -0.1606 -0.7399
 9786TIP3   OH250772   0.909   2.045  15.045  0.1643  0.6659  0.4020
 9786TIP3    H150773   0.866   2.005  15.121 -0.9699 -1.5922 -1.3946
 9786TIP3    H250774   0.838   2.080  14.993  0.8739  1.3844 -0.0948
 9787TIP3   OH250775   1.099   6.526   1.734 -0.8021 -0.1251 -0.5635
 9787TIP3    H150776   1.034   6.504   1.667 -2.1252 -3.8143  1.7469
 9787TIP3    H250777   1.083   6.618   1.754 -3.7601 -0.3129 -1.8015
 9788TIP3   OH250778   3.264   4.958   2.179 -0.1202  0.1757  0.2760
 9788TIP3    H150779   3.268   4.934   2.271  0.4295  1.5546  0.6266
 9788TIP3    H250780   3.175   4.934   2.152  0.1969 -1.5995  0.7551
 9789TIP3   OH250781   1.806   2.258  12.537  0.1074  0.4040 -0.1449
 9789TIP3    H150782   1.825   2.236  12.446 -0.1557  0.3910 -0.1981
 9789TIP3    H250783   1.742   2.329  12.531  0.9598  1.1886  0.0200
 9790TIP3   OH250784   0.574   6.688  11.193  0.2482 -0.2207  0.0788
 9790TIP3    H150785   0.642   6.694  11.126 -0.0206  0.8008 -0.1078
 9790TIP3    H250786   0.610   6.627  11.258  1.6066  0.7769  0.2858
 9791TIP3   OH250787   3.785   2.568   5.198  0.7575 -0.4570  0.5197
 9791TIP3    H150788   3.868   2.605   5.227  0.0087  0.4133  1.6252
 9791TIP3    H250789   3.720   2.633   5.225 -0.1827 -0.6603 -1.2140
 9792TIP3   OH250790   5.162   2.540  14.753 -0.1669 -0.1129 -0.0188
 9792TIP3    H150791   5.114   2.476  14.806 -0.0528 -0.9317 -0.8984
 9792TIP3    H250792   5.105   2.618  14.753 -2.1971 -1.5272 -2.1929
 9793TIP3   OH250793   5.064   5.107  12.834 -0.3344 -0.2041 -0.4510
 9793TIP3    H150794   4.986   5.162  12.840 -0.7995 -0.9538  0.4902
 9793TIP3    H250795   5.030   5.018  12.823  0.3271 -0.7474  1.5606
 9794TIP3   OH250796   0.792   4.833  16.704  0.1584 -0.1513 -0.0245
 9794TIP3    H150797   0.857   4.835  16.774  0.5662 -1.8784 -0.3288
 9794TIP3    H250798   0.720   4.782  16.739 -1.2190  2.0610  0.4339
 9795TIP3   OH250799   1.582   4.219  16.996 -0.0880 -0.0853  0.3173
 9795TIP3    H150800   1.589   4.127  17.023  2.1413  0.3622  1.3363
 9795TIP3    H250801   1.648   4.230  16.928 -2.3017  0.0767 -1.8613
 9796TIP3   OH250802   1.928   4.821   1.440  0.4833 -0.1984  0.0355
 9796TIP3    H150803   1.970   4.893   1.487  0.7216 -1.0264  1.1316
 9796TIP3    H250804   1.834   4.834   1.456  0.4512  0.4505 -0.6430
 9797TIP3   OH250805   3.713   4.278  16.353  0.3891 -0.1187 -0.3726
 9797TIP3    H150806   3.768   4.345  16.312 -1.2024  0.0399 -2.2547
 9797TIP3    H250807   3.687   4.317  16.437 -0.8830  1.8141 -1.6407
 9798TIP3   OH250808   3.518   5.982  12.989 -0.2012 -0.0377  0.8115
 9798TIP3    H150809   3.459   5.934  12.931  1.4812 -1.8300  0.5341
 9798TIP3    H250810   3.590   6.010  12.932 -0.6540  1.9483  1.1876
 9799TIP3   OH250811   2.653   5.913   1.545 -0.5418  0.3020 -0.1923
 9799TIP3    H150812   2.591   5.885   1.613 -0.0704  0.7928  0.4391
 9799TIP3    H250813   2.724   5.955   1.593  0.6106 -0.8422 -0.8577
 9800TIP3   OH250814   3.952   5.960   0.553  0.2328 -0.9306  0.3335
 9800TIP3    H150815   4.036   5.950   0.509 -0.2096  0.0631 -0.7845
 9800TIP3    H250816   3.936   6.054   0.552 -1.2551 -1.1783 -0.1659
 9801TIP3   OH250817   6.578   1.591  14.479  0.2111  0.0161 -0.1139
 9801TIP3    H150818   6.580   1.545  14.563 -1.7349 -1.9247 -1.0708
 9801TIP3    H250819   6.581   1.521  14.414  1.5185  1.4816 -1.6761
 9802TIP3   OH250820   6.616   4.057  15.415 -0.1508 -0.0499  0.2279
 9802TIP3    H150821   6.650   4.030  15.500  0.2282  0.6875  0.3113
 9802TIP3    H250822   6.673   4.012  15.352 -0.3704 -0.5173  0.3571
 9803TIP3   OH250823   0.117   5.440  14.076  0.1252  0.1947  0.2659
 9803TIP3    H150824   0.180   5.416  14.008  0.9166  0.6380  0.8314
 9803TIP3    H250825   0.134   5.533  14.093 -0.8060  0.3695  0.3054
 9804TIP3   OH250826   5.754   4.977   6.234 -0.6345  0.1484  0.3134
 9804TIP3    H150827   5.748   5.034   6.311  0.5749 -0.7712  1.1258
 9804TIP3    H250828   5.683   4.913   6.246 -1.4258  0.9466 -0.1350
 9805TIP3   OH250829   2.303   1.776   3.006 -0.5490  0.1194 -0.2211
 9805TIP3    H150830   2.261   1.851   2.962  0.6557  0.7079 -0.3877
 9805TIP3    H250831   2.351   1.815   3.079 -0.3303 -0.5568 -0.0025
 9806TIP3   OH250832   4.337   0.125  10.491 -0.3670 -0.2510  0.4947
 9806TIP3    H150833   4.394   0.119  10.567 -0.0604 -0.7617  0.2275
 9806TIP3    H250834   4.292   0.041  10.487 -0.1803 -0.3287 -0.0459
 9807TIP3   OH250835   4.804   0.618  16.862 -0.0804  0.3527 -0.2074
 9807TIP3    H150836   4.814   0.571  16.945 -1.8377  0.7455  0.2483
 9807TIP3    H250837   4.791   0.710  16.888 -2.0008  0.2898 -0.8084
 9808TIP3   OH250838   3.343   5.201  14.844  0.2836 -0.2722  0.0768
 9808TIP3    H150839   3.300   5.250  14.914  0.1957  1.0597 -0.8901
 9808TIP3    H250840   3.326   5.252  14.765  0.8489 -1.4715 -0.8350
 9809TIP3   OH250841   0.861   6.154   4.628  0.0351  0.2724  0.9520
 9809TIP3    H150842   0.774   6.117   4.611  0.6954 -0.8624  0.0517
 9809TIP3    H250843   0.920   6.079   4.629  1.3210  1.2246 -0.4682
 9810TIP3   OH250844   5.165   4.102  16.319 -0.0140  0.5864 -0.7035
 9810TIP3    H150845   5.075   4.134  16.320 -0.4769 -0.6930 -0.6507
 9810TIP3    H250846   5.178   4.064  16.406  0.8962  1.6233 -0.3759
 9811TIP3   OH250847   0.416   2.701   0.862  0.1017  0.5168  0.0066
 9811TIP3    H150848   0.462   2.621   0.888  0.0342  0.0576 -1.2141
 9811TIP3    H250849   0.417   2.756   0.939  0.8130 -0.3710  0.6407
 9812TIP3   OH250850   3.413   2.485  13.643  0.1467 -0.0569  0.0221
 9812TIP3    H150851   3.409   2.577  13.669 -3.1704 -0.0025 -0.3788
 9812TIP3    H250852   3.368   2.482  13.558 -1.0920 -2.2215  0.6977
 9813TIP3   OH250853   3.074   3.264  11.236  0.0906 -0.1071 -0.2185
 9813TIP3    H150854   3.104   3.346  11.198  1.7334 -0.1991  0.8439
 9813TIP3    H250855   3.150   3.205  11.232 -0.9366 -1.4517 -0.5813
 9814TIP3   OH250856   2.424   5.281   6.101  0.3935 -0.2004 -0.4230
 9814TIP3    H150857   2.445   5.196   6.064 -1.1315 -1.3127  1.1844
 9814TIP3    H250858   2.417   5.266   6.196 -0.2303  1.6236 -0.1417
 9815TIP3   OH250859   0.194   4.046  15.507  0.4169 -0.1651 -0.3615
 9815TIP3    H150860   0.218   3.965  15.461  0.4786 -0.1025 -0.4391
 9815TIP3    H250861   0.267   4.061  15.567 -0.2401 -0.9259  0.6367
 9816TIP3   OH250862   2.487   2.701  15.768 -0.2080  0.2325  0.1470
 9816TIP3    H150863   2.511   2.660  15.851 -1.5991  0.6134  0.7542
 9816TIP3    H250864   2.520   2.641  15.701  1.6365  0.3251  0.9520
 9817TIP3   OH250865   1.424   2.142  15.268  0.4681 -0.2207  0.2339
 9817TIP3    H150866   1.396   2.114  15.355  1.3986 -1.2972  0.1942
 9817TIP3    H250867   1.465   2.065  15.230 -0.0157  0.2148 -1.2024
 9818TIP3   OH250868   2.875   1.791  10.666  0.2638  0.4080  0.2616
 9818TIP3    H150869   2.833   1.746  10.739  1.1476 -1.1272 -0.1667
 9818TIP3    H250870   2.902   1.876  10.702  1.6857 -0.7679  2.0452
 9819TIP3   OH250871   5.931   6.775  13.222 -0.7596 -0.3802  0.4576
 9819TIP3    H150872   6.006   6.719  13.244  0.7349  1.3044 -0.2236
 9819TIP3    H250873   5.964   6.864  13.233 -2.4232  0.4053 -0.6940
 9820TIP3   OH250874   0.497   2.497   4.710 -0.1769  0.6706 -0.1548
 9820TIP3    H150875   0.483   2.517   4.618 -1.0913  1.7985  0.2191
 9820TIP3    H250876   0.443   2.561   4.757  0.2941  0.1188  1.1575
 9821TIP3   OH250877   3.337   0.451   5.256 -0.1130  0.1284  0.4027
 9821TIP3    H150878   3.319   0.518   5.190 -1.7196 -1.1391 -0.4798
 9821TIP3    H250879   3.256   0.400   5.261  0.6800 -1.0237  1.9218
 9822TIP3   OH250880   5.447   1.724   1.269  0.5662  0.0221  0.2328
 9822TIP3    H150881   5.475   1.649   1.321 -1.1370 -1.1962 -0.5430
 9822TIP3    H250882   5.450   1.798   1.329  2.9482 -0.5003  0.8265
 9823TIP3   OH250883   5.121   3.788  15.033 -0.0160  0.2710 -0.2898
 9823TIP3    H150884   5.077   3.746  14.959  0.6864 -0.2041 -0.4348
 9823TIP3    H250885   5.097   3.881  15.024  1.2462  0.4676 -1.9719
 9824TIP3   OH250886   0.984   0.331  13.887 -0.3205  0.1923  0.3220
 9824TIP3    H150887   0.923   0.405  13.884  1.0939  1.3392 -0.5388
 9824TIP3    H250888   1.067   0.367  13.856  0.8937 -1.2711  1.7903
 9825TIP3   OH250889   4.991   3.378   3.592 -0.2328  0.4967 -0.6014
 9825TIP3    H150890   4.946   3.325   3.527  1.6211  0.1164 -1.6013
 9825TIP3    H250891   4.968   3.338   3.676 -1.5540  0.1919 -1.0877
 9826TIP3   OH250892   0.066   5.529  14.522  0.2677 -0.3512 -0.0489
 9826TIP3    H150893   0.063   5.559  14.431  0.4225 -0.0754  0.0332
 9826TIP3    H250894   0.092   5.437  14.517  3.5157  0.4788 -0.1597
 9827TIP3   OH250895   6.524   3.079  16.492 -0.0188  0.0439 -0.0576
 9827TIP3    H150896   6.610   3.062  16.531  1.1090  1.9273 -1.6654
 9827TIP3    H250897   6.466   3.092  16.568  1.2756 -0.3288  1.0225
 9828TIP3   OH250898   4.505   4.911  16.960 -0.0891  0.0833  0.1536
 9828TIP3    H150899   4.591   4.883  16.992 -0.9102 -0.2800  2.1339
 9828TIP3    H250900   4.509   5.007  16.963  0.1006  0.0625  0.6454
 9829TIP3   OH250901   6.375   3.460  16.306 -0.1697 -0.1044 -0.2409
 9829TIP3    H150902   6.356   3.391  16.369 -0.6392  1.2833  1.1534
 9829TIP3    H250903   6.290   3.502  16.290 -0.0852 -0.5216 -1.9029
 9830TIP3   OH250904   1.490   6.453   2.562  0.1038 -0.4721  0.4285
 9830TIP3    H150905   1.489   6.375   2.506  0.5285 -1.6216  1.9928
 9830TIP3    H250906   1.503   6.526   2.501  1.0761 -1.7419 -0.9185
 9831TIP3   OH250907   4.492   6.622  11.434 -0.2231  0.0613 -0.2317
 9831TIP3    H150908   4.575   6.623  11.482 -0.3702 -1.1279  0.0808
 9831TIP3    H250909   4.439   6.557  11.481 -2.0466  2.1929  0.7436
 9832TIP3   OH250910   5.730   6.211  14.567  0.2076 -0.4146 -0.6818
 9832TIP3    H150911   5.755   6.303  14.559  0.2766 -0.2148  1.5535
 9832TIP3    H250912   5.635   6.214  14.579  0.1640 -0.6574 -0.9667
 9833TIP3   OH250913   2.845   1.677   2.595  0.1067  0.2975 -0.3049
 9833TIP3    H150914   2.931   1.714   2.617 -0.2288  1.1512 -0.4113
 9833TIP3    H250915   2.796   1.681   2.677  0.3795 -0.8218 -0.0714
 9834TIP3   OH250916   0.522   2.215  11.806  0.2230 -0.0873 -0.2472
 9834TIP3    H150917   0.575   2.265  11.744  0.1714  0.1924 -0.0665
 9834TIP3    H250918   0.528   2.125  11.774  1.8769 -0.2720  0.5099
 9835TIP3   OH250919   4.803   5.090  15.237 -0.2285 -0.1712 -0.1942
 9835TIP3    H150920   4.820   5.120  15.148 -1.0345 -0.6230 -0.4964
 9835TIP3    H250921   4.724   5.037  15.231  0.7603 -1.7681  0.4702
 9836TIP3   OH250922   4.163   2.618  11.841  0.1146  0.1354  0.0380
 9836TIP3    H150923   4.187   2.661  11.758 -1.4751  0.0031 -0.4919
 9836TIP3    H250924   4.169   2.688  11.906  0.0585  0.5580 -0.4042
 9837TIP3   OH250925   3.298   6.028   6.388 -0.1030  0.4755  0.1854
 9837TIP3    H150926   3.334   6.115   6.369  0.4684 -0.0414 -1.2286
 9837TIP3    H250927   3.293   5.986   6.302  0.6438 -1.2669  0.9757
 9838TIP3   OH250928   2.199   3.984  15.217  0.5107 -0.1577  0.4203
 9838TIP3    H150929   2.252   3.976  15.138  2.1689  0.1515  1.4749
 9838TIP3    H250930   2.250   3.941  15.285 -2.0142 -2.6246  0.8610
 9839TIP3   OH250931   2.028   5.989   4.824 -0.1301  0.0498  0.0496
 9839TIP3    H150932   2.006   5.916   4.882 -2.8914 -2.2450 -3.6640
 9839TIP3    H250933   2.093   5.952   4.764 -0.3522  1.1554 -0.8746
 9840TIP3   OH250934   5.553   1.894   2.916  0.0433 -0.0965  0.6113
 9840TIP3    H150935   5.467   1.918   2.883 -0.1540 -0.5850  0.7685
 9840TIP3    H250936   5.545   1.900   3.012  0.3216  0.3246  0.6110
 9841TIP3   OH250937   1.983   5.719  16.179 -0.1319 -0.7338  0.1658
 9841TIP3    H150938   1.925   5.772  16.125  1.9097  1.8999  0.4512
 9841TIP3    H250939   2.068   5.726  16.135  0.8718 -1.0975  2.0213
 9842TIP3   OH250940   5.227   4.565   5.846  0.1634 -0.0532 -0.8609
 9842TIP3    H150941   5.161   4.618   5.802 -0.8255  1.7262  2.6014
 9842TIP3    H250942   5.309   4.612   5.831 -0.4639  1.6198  0.8205
 9843TIP3   OH250943   6.420   5.406  13.712  0.8359 -0.0805  0.1743
 9843TIP3    H150944   6.438   5.436  13.801 -0.8298  2.0420 -0.1496
 9843TIP3    H250945   6.335   5.362  13.718  1.6106 -1.6203 -0.0274
 9844TIP3   OH250946   6.239   1.204  15.104  0.0800  0.1146  0.1077
 9844TIP3    H150947   6.279   1.286  15.077 -0.9869  0.5665 -0.1527
 9844TIP3    H250948   6.283   1.137  15.052  1.7608  0.3777  1.1573
 9845TIP3   OH250949   4.202   6.102  14.118  0.1292  0.3809  0.2573
 9845TIP3    H150950   4.221   6.010  14.133 -0.0683  0.2929 -0.0381
 9845TIP3    H250951   4.200   6.141  14.206 -0.6052 -0.0543  0.4375
 9846TIP3   OH250952   4.613   1.555   4.332  0.3740 -0.4001  0.3590
 9846TIP3    H150953   4.662   1.480   4.297  0.1449 -1.4799  2.2882
 9846TIP3    H250954   4.533   1.557   4.281  1.2942 -0.2048 -1.0990
 9847TIP3   OH250955   0.324   4.710  12.322 -0.1642 -0.3866  0.4177
 9847TIP3    H150956   0.347   4.645  12.388  2.0208 -1.7456 -1.6003
 9847TIP3    H250957   0.404   4.761  12.310 -0.9485  0.7153 -0.2355
 9848TIP3   OH250958   6.268   1.436  13.533 -0.3565  0.2712 -0.2903
 9848TIP3    H150959   6.333   1.472  13.472  0.4941 -0.7250  0.0200
 9848TIP3    H250960   6.217   1.513  13.561 -0.2155  0.8537 -1.6004
 9849TIP3   OH250961   1.870   1.768   4.506  0.1214  0.5505 -0.4724
 9849TIP3    H150962   1.899   1.780   4.597 -0.0282 -2.3511 -0.0080
 9849TIP3    H250963   1.782   1.733   4.513 -0.2256  1.1277 -1.7817
 9850TIP3   OH250964   6.493   0.780  14.179  0.3013 -0.2841  0.7263
 9850TIP3    H150965   6.499   0.873  14.157  0.3036 -0.3861  0.2901
 9850TIP3    H250966   6.401   0.768  14.205  0.2346 -0.2119  0.5304
 9851TIP3   OH250967   2.167   0.922   2.402  0.1301 -0.2221 -0.6053
 9851TIP3    H150968   2.181   0.840   2.355  0.5203  0.2301 -1.2938
 9851TIP3    H250969   2.255   0.958   2.414 -0.1681  0.9892 -1.9463
 9852TIP3   OH250970   4.391   4.593  11.856 -0.7165  0.1696 -0.0097
 9852TIP3    H150971   4.298   4.614  11.870 -0.4667  1.2742  0.1091
 9852TIP3    H250972   4.406   4.613  11.764 -0.9930 -1.6204 -0.4556
 9853TIP3   OH250973   1.931   5.134   0.687 -0.0023 -0.0753  0.1308
 9853TIP3    H150974   2.002   5.133   0.623  0.2774  0.3339  0.4360
 9853TIP3    H250975   1.974   5.146   0.772 -0.3280 -1.1252  0.4541
 9854TIP3   OH250976   1.483   2.884   5.690  0.7877 -0.3921 -0.2204
 9854TIP3    H150977   1.530   2.824   5.631 -1.8502 -1.1574 -1.6002
 9854TIP3    H250978   1.470   2.963   5.638 -1.0901 -0.8813 -0.5322
 9855TIP3   OH250979   0.782   4.486   4.985 -0.4061  0.3299  0.1177
 9855TIP3    H150980   0.750   4.396   4.992 -3.0140  1.0034 -2.1692
 9855TIP3    H250981   0.859   4.480   4.929 -0.5910 -0.4791 -0.0591
 9856TIP3   OH250982   5.197   1.051  16.764 -0.0677  0.0322  0.1978
 9856TIP3    H150983   5.119   1.000  16.742  0.1040  0.0677 -0.5200
 9856TIP3    H250984   5.184   1.078  16.855 -0.6119 -0.4709  0.2709
 9857TIP3   OH250985   6.421   4.213   0.407  0.1918  0.3351 -0.0951
 9857TIP3    H150986   6.506   4.228   0.366  0.8833  0.2369  1.2767
 9857TIP3    H250987   6.398   4.124   0.382  1.1861 -0.1675  0.7333
 9858TIP3   OH250988   2.822   5.066  12.424 -0.8193 -0.2060 -0.0802
 9858TIP3    H150989   2.757   5.003  12.392 -0.0876  0.0859 -2.2142
 9858TIP3    H250990   2.872   5.090  12.347  0.9295  0.6532  1.2876
 9859TIP3   OH250991   3.127   1.742   2.631 -0.0308 -0.2791 -0.3439
 9859TIP3    H150992   3.201   1.799   2.612 -0.0423  0.3254  1.3587
 9859TIP3    H250993   3.160   1.654   2.614  0.5324  0.0998 -1.2713
 9860TIP3   OH250994   3.624   6.281   1.229  0.3188  0.1852  0.6956
 9860TIP3    H150995   3.645   6.374   1.218  0.5849  0.0317 -0.1223
 9860TIP3    H250996   3.559   6.279   1.300 -2.3765  1.3268 -1.6643
 9861TIP3   OH250997   6.585   4.670   5.215 -0.2651 -1.2704  1.0382
 9861TIP3    H150998   6.648   4.659   5.286  0.0133 -0.6397  0.8886
 9861TIP3    H250999   6.541   4.753   5.235 -0.1155 -1.0418  0.4154
 9862TIP3   OH251000   5.393   6.279   0.647  0.2925  0.2002  0.3074
 9862TIP3    H151001   5.405   6.298   0.740  0.7324  0.7881  0.1305
 9862TIP3    H251002   5.386   6.184   0.643  0.5519  0.1535  0.9132
 9863TIP3   OH251003   2.179   1.902  11.837 -0.1176 -0.0679 -0.2694
 9863TIP3    H151004   2.106   1.962  11.856 -0.6880 -0.7179 -0.4052
 9863TIP3    H251005   2.224   1.893  11.921 -0.7072 -0.3525  0.0217
 9864TIP3   OH251006   0.907   1.915   1.986 -0.5691 -0.6770  0.0642
 9864TIP3    H151007   0.900   1.979   2.057 -0.7458 -0.2759 -0.3076
 9864TIP3    H251008   0.955   1.962   1.917 -0.2223 -1.1313 -0.0038
 9865TIP3   OH251009   2.956   0.317  15.085  0.1477 -0.1631 -0.4953
 9865TIP3    H151010   3.051   0.317  15.071 -0.1678 -1.3461 -2.8154
 9865TIP3    H251011   2.920   0.363  15.010 -1.1344  0.4892  0.4932
 9866TIP3   OH251012   1.820   6.381   4.719  0.3173  0.2053 -0.3068
 9866TIP3    H151013   1.792   6.404   4.630  0.5188 -0.0369 -0.4333
 9866TIP3    H251014   1.874   6.303   4.707  2.8404  1.9023 -0.3139
 9867TIP3   OH251015   3.648   0.535  12.768  0.3871  1.0245  0.2466
 9867TIP3    H151016   3.638   0.504  12.858 -1.4255  0.0820 -0.2591
 9867TIP3    H251017   3.577   0.598  12.756 -0.5652 -0.2798 -1.1144
 9868TIP3   OH251018   5.341   6.200  15.564  0.8971 -0.2725  0.1321
 9868TIP3    H151019   5.385   6.116  15.553  1.7736  0.3646 -1.2860
 9868TIP3    H251020   5.261   6.178  15.612  1.1036 -1.9104 -0.2310
 9869TIP3   OH251021   5.417   5.049  15.666  0.1282  0.0485 -1.0067
 9869TIP3    H151022   5.401   4.960  15.697  0.1065  0.4138  0.0392
 9869TIP3    H251023   5.344   5.067  15.607 -2.0328  0.7857  1.7698
 9870TIP3   OH251024   3.465   1.486  13.141  0.0095 -0.2933  0.8415
 9870TIP3    H151025   3.402   1.418  13.116 -0.2201 -0.2848  1.3888
 9870TIP3    H251026   3.485   1.532  13.059  1.1973 -1.8747  0.2143
 9871TIP3   OH251027   4.397   6.366  11.924 -0.1790  0.4979  0.0099
 9871TIP3    H151028   4.406   6.274  11.900  0.1014  0.3516  0.6685
 9871TIP3    H251029   4.371   6.410  11.843 -2.2692 -0.4609  0.1533
 9872TIP3   OH251030   1.923   2.483   2.440 -0.5708 -0.0120 -0.3106
 9872TIP3    H151031   1.843   2.455   2.486 -0.3863  3.0599  2.0436
 9872TIP3    H251032   1.994   2.438   2.486 -0.7946 -1.4146 -1.3131
 9873TIP3   OH251033   1.904   4.976   3.357  0.1327  0.0836  0.7802
 9873TIP3    H151034   1.915   5.063   3.395  1.1303  0.2112  0.2175
 9873TIP3    H251035   1.988   4.957   3.317 -0.8164 -0.1755 -1.1195
 9874TIP3   OH251036   5.603   6.760   4.147 -0.8940  0.2370 -0.1824
 9874TIP3    H151037   5.533   6.791   4.089 -2.5836 -0.0233  1.6603
 9874TIP3    H251038   5.637   6.840   4.186  0.2627  0.4153 -1.5157
 9875TIP3   OH251039   0.289   6.391   2.055  0.9307 -0.0260  0.7466
 9875TIP3    H151040   0.279   6.403   1.960  1.7501  2.2276  0.9198
 9875TIP3    H251041   0.334   6.307   2.063  1.0579 -0.1329 -0.8879
 9876TIP3   OH251042   5.438   4.702   1.563 -0.2132 -0.2616 -0.2663
 9876TIP3    H151043   5.397   4.781   1.598  0.8695  0.5852 -0.8790
 9876TIP3    H251044   5.502   4.734   1.499  0.2247 -1.6320 -0.5386
 9877TIP3   OH251045   0.075   3.169  14.793 -0.3503  0.7487  0.1607
 9877TIP3    H151046   0.170   3.172  14.807  0.0318  0.5285 -2.1955
 9877TIP3    H251047   0.038   3.167  14.881  1.8340  0.7633  1.1122
 9878TIP3   OH251048   1.056   6.459  11.627  0.2214 -0.7006  0.0452
 9878TIP3    H151049   1.007   6.385  11.590  0.0240 -0.5330 -0.0295
 9878TIP3    H251050   0.993   6.530  11.629  0.6853 -0.2572 -0.8052
 9879TIP3   OH251051   1.897   3.707   3.642  0.4243 -0.4588 -0.8639
 9879TIP3    H151052   1.853   3.791   3.627  0.7658 -0.4215 -1.6662
 9879TIP3    H251053   1.948   3.720   3.722 -0.1605 -0.1584 -0.5377
 9880TIP3   OH251054   0.928   5.864   0.406 -0.5181 -0.0506  0.1438
 9880TIP3    H151055   1.004   5.869   0.349 -0.6993  2.2939  0.0678
 9880TIP3    H251056   0.957   5.811   0.481  1.0954  0.5984 -0.0147
 9881TIP3   OH251057   0.904   0.568   6.641  0.1506 -0.1925  0.2851
 9881TIP3    H151058   0.963   0.519   6.698  0.4749 -0.6021 -0.3971
 9881TIP3    H251059   0.816   0.544   6.671  0.3200 -0.3920  0.6222
 9882TIP3   OH251060   1.374   4.244   1.470  0.2643  0.3296 -0.1112
 9882TIP3    H151061   1.337   4.302   1.404  0.7299 -0.6818 -1.2857
 9882TIP3    H251062   1.468   4.261   1.467  0.5106 -1.2126 -1.1782
 9883TIP3   OH251063   3.129   3.327  16.650 -0.1202 -0.0565  0.0923
 9883TIP3    H151064   3.183   3.350  16.725 -0.4227  1.4033 -0.1050
 9883TIP3    H251065   3.191   3.314  16.578 -0.0232  2.5039 -0.3557
 9884TIP3   OH251066   2.099   4.983   1.875 -0.3224 -0.5320 -0.3880
 9884TIP3    H151067   2.163   4.914   1.891  0.1593 -0.6322 -2.6309
 9884TIP3    H251068   2.150   5.063   1.863 -0.8221  0.0435  1.2200
 9885TIP3   OH251069   3.595   2.109  13.735  0.2771 -0.1415 -0.4722
 9885TIP3    H151070   3.532   2.173  13.703  0.0862  0.0942  0.3620
 9885TIP3    H251071   3.680   2.153  13.729  0.3339 -0.3588 -1.3280
 9886TIP3   OH251072   3.704   4.069   5.877  0.2672 -0.1059 -0.1156
 9886TIP3    H151073   3.756   4.063   5.957 -2.2695  0.1686  1.6255
 9886TIP3    H251074   3.739   4.145   5.831  0.2914  1.1107  1.8474
 9887TIP3   OH251075   0.291   5.124  12.326 -0.0315  0.1389 -0.0690
 9887TIP3    H151076   0.207   5.095  12.288 -0.2426  0.8530 -0.1592
 9887TIP3    H251077   0.355   5.060  12.295 -0.3597  0.2045 -0.8975
 9888TIP3   OH251078   0.110   0.931  14.014  0.3794  0.5139 -0.2315
 9888TIP3    H151079   0.078   1.021  14.019 -0.9968  0.0961 -1.1696
 9888TIP3    H251080   0.033   0.877  14.033  0.7679 -0.4815 -1.4248
 9889TIP3   OH251081   2.834   6.424  14.648 -0.4546 -0.2222 -0.0213
 9889TIP3    H151082   2.891   6.366  14.698  0.7478  1.2329  0.3538
 9889TIP3    H251083   2.873   6.428  14.561  0.2486  1.0560  0.3362
 9890TIP3   OH251084   2.896   1.237   6.489  0.0835 -0.0858  0.1825
 9890TIP3    H151085   2.934   1.311   6.442 -0.7911 -0.3274 -0.9257
 9890TIP3    H251086   2.877   1.271   6.577  1.5249  0.4264  0.3083
 9891TIP3   OH251087   4.154   3.898  12.429 -0.1325  0.0441 -0.3780
 9891TIP3    H151088   4.072   3.882  12.476 -0.4287  0.1767 -0.8358
 9891TIP3    H251089   4.166   3.993  12.433 -0.0761  0.0395 -0.4300
 9892TIP3   OH251090   4.412   5.176   0.304  0.8345 -0.0882  0.4990
 9892TIP3    H151091   4.499   5.216   0.297 -0.4310  2.4397 -1.3479
 9892TIP3    H251092   4.375   5.213   0.385  0.9128 -0.0567  0.5200
 9893TIP3   OH251093   0.003   1.523   2.045 -0.1794 -0.0409 -0.0906
 9893TIP3    H151094  -0.011   1.583   2.118 -0.2060 -0.0192 -0.1137
 9893TIP3    H251095   0.039   1.577   1.976 -1.2617  0.1736 -0.5025
 9894TIP3   OH251096   1.500   0.750   5.207  0.6291 -0.6210 -0.2489
 9894TIP3    H151097   1.577   0.796   5.241 -0.7069 -0.4378  2.7876
 9894TIP3    H251098   1.512   0.659   5.236 -0.2814 -0.5870  0.2455
 9895TIP3   OH251099   0.428   2.458  17.157  0.0644  0.4930  0.3318
 9895TIP3    H151100   0.340   2.440  17.190 -0.3699  2.2807  0.2544
 9895TIP3    H251101   0.444   2.390  17.092 -1.1542 -0.0298  0.5664
 9896TIP3   OH251102   1.666   6.544   5.033 -0.2177  0.1784 -0.4930
 9896TIP3    H151103   1.650   6.634   5.060  0.0779 -0.1902  0.9493
 9896TIP3    H251104   1.676   6.495   5.115 -0.8415 -1.2547 -1.2532
 9897TIP3   OH251105   1.247   2.270  10.450 -0.3427 -0.4976 -0.4831
 9897TIP3    H151106   1.189   2.196  10.435 -0.2853 -1.2132  2.4810
 9897TIP3    H251107   1.330   2.231  10.478  0.1822  0.6257 -0.4072
 9898TIP3   OH251108   3.126   6.059   1.709 -0.6795 -0.5749 -0.8887
 9898TIP3    H151109   3.133   5.997   1.782 -1.5142  0.4806  0.1097
 9898TIP3    H251110   3.147   6.007   1.631  0.9354 -1.5501  0.1735
 9899TIP3   OH251111   6.568   3.052   5.177 -0.2174 -0.0455 -0.2640
 9899TIP3    H151112   6.650   3.057   5.227 -1.1140  2.3793  1.0384
 9899TIP3    H251113   6.500   3.045   5.243 -1.1237 -1.5121 -1.3352
 9900TIP3   OH251114   6.061   5.295   4.089  0.2774 -0.2158 -0.1441
 9900TIP3    H151115   6.002   5.369   4.073  1.0332  0.3386 -0.4070
 9900TIP3    H251116   6.028   5.226   4.033  1.0175  0.7071 -1.7352
 9901TIP3   OH251117   0.685   5.956   6.043  0.3613  0.7856  0.0897
 9901TIP3    H151118   0.764   5.973   6.094  0.6238 -0.4128  0.1035
 9901TIP3    H251119   0.716   5.916   5.962 -0.2359  0.0446  0.2143
 9902TIP3   OH251120   2.796   1.559  11.592 -0.3697  0.2037  0.3227
 9902TIP3    H151121   2.707   1.562  11.556 -0.4596 -0.2430  0.5064
 9902TIP3    H251122   2.805   1.471  11.628  0.1879  0.2089  0.2089
 9903TIP3   OH251123   2.982   1.646  16.569 -0.9658  0.4735 -0.0616
 9903TIP3    H151124   2.898   1.623  16.608  0.5592 -2.5885  1.5887
 9903TIP3    H251125   2.994   1.582  16.498  0.2170  0.5350  0.0773
 9904TIP3   OH251126   4.738   4.594  14.814  0.4988  0.4353  0.3536
 9904TIP3    H151127   4.679   4.601  14.738 -1.3817 -2.7612  1.4236
 9904TIP3    H251128   4.686   4.549  14.880  3.4408 -0.4357  2.1485
 9905TIP3   OH251129   0.990   2.559   1.229 -0.0964  0.0477 -0.1926
 9905TIP3    H151130   0.977   2.502   1.154 -0.4277  0.2033 -0.2534
 9905TIP3    H251131   0.918   2.539   1.288  0.5246 -0.5389  0.3795
 9906TIP3   OH251132   4.314   5.856  16.710  0.3412 -0.4369 -0.2555
 9906TIP3    H151133   4.349   5.886  16.795  2.8415 -0.7198 -1.1270
 9906TIP3    H251134   4.371   5.782  16.687 -0.0957 -0.1299 -2.3399
 9907TIP3   OH251135   3.691   0.338  11.469  0.8386  0.1437 -0.2394
 9907TIP3    H151136   3.712   0.430  11.454 -0.3545  0.4695  0.0398
 9907TIP3    H251137   3.776   0.295  11.477  1.4085  1.1089 -1.0159
 9908TIP3   OH251138   4.931   4.954   1.475 -0.2508  0.3922 -0.1356
 9908TIP3    H151139   4.947   4.863   1.500  0.3689  0.0740 -1.6414
 9908TIP3    H251140   5.014   4.983   1.437 -0.7480  1.2806 -0.5580
 9909TIP3   OH251141   0.369   6.121   3.811 -0.1201  0.1125  0.1712
 9909TIP3    H151142   0.380   6.214   3.827 -0.9273  0.1140  0.7481
 9909TIP3    H251143   0.423   6.104   3.733  0.3620  0.9655  0.3101
 9910TIP3   OH251144   0.476   2.857   3.242 -0.6680 -0.1415 -0.3275
 9910TIP3    H151145   0.504   2.800   3.171 -1.5307 -0.3609 -0.5029
 9910TIP3    H251146   0.450   2.939   3.199  0.6615  0.4222 -0.0681
 9911TIP3   OH251147   6.210   1.353   4.635 -0.0413  0.2438 -0.1940
 9911TIP3    H151148   6.285   1.331   4.691 -1.2231 -1.2810  0.8288
 9911TIP3    H251149   6.173   1.432   4.673 -1.3857 -1.2985  1.7617
 9912TIP3   OH251150   5.350   0.206  14.767  0.4319 -0.2762 -0.1812
 9912TIP3    H151151   5.300   0.203  14.849  1.6736 -0.8875  0.5590
 9912TIP3    H251152   5.439   0.227  14.794  0.5147  1.2439 -1.5388
 9913TIP3   OH251153   6.179   3.575  13.951 -0.0931  0.6408  0.0271
 9913TIP3    H151154   6.249   3.627  13.990 -0.6674  2.0633 -0.8116
 9913TIP3    H251155   6.117   3.561  14.023  0.5232  0.2692  0.4994
 9914TIP3   OH251156   6.654   1.172  16.369  0.7668 -0.1817 -0.3918
 9914TIP3    H151157   6.646   1.237  16.299 -0.9083 -1.0169 -1.0108
 9914TIP3    H251158   6.728   1.118  16.343  3.1274  2.3325  0.8664
 9915TIP3   OH251159   0.983   0.651  11.244 -0.2650 -0.7698  0.1137
 9915TIP3    H151160   0.904   0.607  11.277 -0.2915 -0.1353  0.8911
 9915TIP3    H251161   1.001   0.607  11.161 -0.9637 -1.4776  0.3269
 9916TIP3   OH251162   2.750   1.364   0.779 -0.2339 -0.0766  0.2168
 9916TIP3    H151163   2.678   1.377   0.842 -0.4855 -0.1445 -0.0562
 9916TIP3    H251164   2.786   1.452   0.767 -1.0341  0.1598 -0.5475
 9917TIP3   OH251165   3.379   1.776   4.890  0.3366  0.2531  0.3186
 9917TIP3    H151166   3.429   1.849   4.852  1.2021  0.1112  1.1648
 9917TIP3    H251167   3.320   1.749   4.820 -1.0805  2.7638  0.4991
 9918TIP3   OH251168   6.752   1.475  11.312 -0.2147 -0.0946  0.6927
 9918TIP3    H151169   6.717   1.468  11.224  0.2531 -0.9753  0.5646
 9918TIP3    H251170   6.846   1.487  11.300  0.0619 -1.6955  1.0782
 9919TIP3   OH251171   5.599   3.750   5.049  0.1496  0.2084 -0.2137
 9919TIP3    H151172   5.672   3.809   5.066 -0.3311  1.2974 -1.7942
 9919TIP3    H251173   5.564   3.730   5.135  0.3586  2.2001  0.3620
 9920TIP3   OH251174   0.443   6.502  15.466 -0.1103  0.3107 -0.1859
 9920TIP3    H151175   0.526   6.459  15.484  0.1661  1.0242  0.2435
 9920TIP3    H251176   0.385   6.431  15.437  1.2543  0.1274 -2.5750
 9921TIP3   OH251177   0.357   0.053   5.835 -0.6889 -0.3519  0.3254
 9921TIP3    H151178   0.392   0.119   5.896  2.0272  0.0331 -1.5626
 9921TIP3    H251179   0.434   0.010   5.800 -2.3811 -3.2220  0.0207
 9922TIP3   OH251180   3.296   3.911  14.749  0.6731 -0.0374  0.0274
 9922TIP3    H151181   3.231   3.842  14.736  1.4396 -0.5751 -0.9672
 9922TIP3    H251182   3.380   3.866  14.748  1.0937  0.7017  0.9913
 9923TIP3   OH251183   4.267   5.247  17.179 -0.3510  0.7174 -0.2428
 9923TIP3    H151184   4.209   5.245  17.255 -0.3552 -1.7478 -0.2879
 9923TIP3    H251185   4.212   5.220  17.105  0.2087  0.8989 -0.7324
 9924TIP3   OH251186   2.465   3.453   1.152  0.0170 -0.6158  0.2221
 9924TIP3    H151187   2.434   3.375   1.107  2.5621 -1.1700 -0.6494
 9924TIP3    H251188   2.447   3.525   1.090 -0.7899 -0.7185  0.3267
 9925TIP3   OH251189   3.371   2.825   4.774 -0.3062 -0.1861 -0.1620
 9925TIP3    H151190   3.313   2.810   4.700 -0.5981  0.7016 -0.1144
 9925TIP3    H251191   3.429   2.748   4.775 -1.5273 -1.1243 -0.1515
 9926TIP3   OH251192   3.646   3.790  16.229  0.2275  0.5791  0.3129
 9926TIP3    H151193   3.617   3.877  16.256 -1.1644  0.9401 -2.1148
 9926TIP3    H251194   3.565   3.739  16.222  0.8877 -0.4743  0.2617
 9927TIP3   OH251195   1.024   4.269  16.450  0.5195  0.1730 -0.5523
 9927TIP3    H151196   1.024   4.359  16.484  1.1464 -0.2591  0.6018
 9927TIP3    H251197   0.950   4.267  16.389 -0.9734  0.8208  1.1905
 9928TIP3   OH251198   4.932   6.238   4.203 -0.8550  0.6723 -0.7165
 9928TIP3    H151199   4.879   6.196   4.271  1.0795  1.3533  1.2737
 9928TIP3    H251200   4.902   6.329   4.202 -1.3251  0.5197 -1.2636
 9929TIP3   OH251201   2.739   3.757  12.890 -0.3377 -0.2321  0.2550
 9929TIP3    H151202   2.828   3.793  12.884  0.3948 -1.7370  1.5655
 9929TIP3    H251203   2.692   3.798  12.818  2.0971 -1.2169 -1.9996
 9930TIP3   OH251204   4.291   2.469  15.582  0.1643  0.0816 -0.4412
 9930TIP3    H151205   4.365   2.470  15.644 -0.2969  1.7951  0.0957
 9930TIP3    H251206   4.270   2.376  15.573  1.1118 -0.2938  0.9436
 9931TIP3   OH251207   0.232   1.058   3.314  0.2678  0.4765  0.0169
 9931TIP3    H151208   0.141   1.084   3.301  0.6303  1.1065 -1.3274
 9931TIP3    H251209   0.264   1.118   3.381 -0.5584 -0.3717  1.2088
 9932TIP3   OH251210   2.515   5.778   3.721  0.0933 -0.2856  0.0439
 9932TIP3    H151211   2.567   5.850   3.685  1.6145 -1.6171 -0.4835
 9932TIP3    H251212   2.459   5.750   3.648 -0.1424  0.0533  0.0983
 9933TIP3   OH251213   2.211   5.169   6.594 -0.5633 -0.9364  0.3723
 9933TIP3    H151214   2.251   5.129   6.670  0.4695  0.4246  0.5740
 9933TIP3    H251215   2.117   5.164   6.610 -0.4028 -2.0227  1.0060
 9934TIP3   OH251216   2.927   4.284   1.885  0.1337  0.8940  0.5022
 9934TIP3    H151217   2.916   4.377   1.905  1.1189  0.4921  3.0082
 9934TIP3    H251218   2.926   4.240   1.970 -0.3521 -1.4113 -0.6425
 9935TIP3   OH251219   3.425   5.809  14.719 -0.8158 -0.4273  0.5850
 9935TIP3    H151220   3.333   5.833  14.707 -1.1462 -1.8876  0.0456
 9935TIP3    H251221   3.473   5.889  14.703 -2.0041  0.3735  0.9306
 9936TIP3   OH251222   4.973   5.370  11.499 -0.1936 -0.7555 -0.1673
 9936TIP3    H151223   4.899   5.347  11.554  0.1945  0.6289  0.9629
 9936TIP3    H251224   4.939   5.438  11.440  1.0021  2.4462  2.6628
 9937TIP3   OH251225   5.946   4.405   2.347  0.2449 -0.0786 -1.0313
 9937TIP3    H151226   5.866   4.397   2.295 -0.3649 -0.2442 -0.0757
 9937TIP3    H251227   5.965   4.316   2.377  0.9503 -0.0870 -1.4820
 9938TIP3   OH251228   1.675   2.348  14.633 -0.1524 -0.0227  0.8836
 9938TIP3    H151229   1.709   2.394  14.557 -1.4134  0.3585  0.5396
 9938TIP3    H251230   1.653   2.417  14.696 -0.8644 -0.2205  0.8587
 9939TIP3   OH251231   4.668   3.953  13.791  0.3837  0.5526  0.3466
 9939TIP3    H151232   4.690   4.017  13.724  0.8059 -0.6474 -0.6871
 9939TIP3    H251233   4.573   3.960  13.802 -0.5987 -3.0196 -4.3825
 9940TIP3   OH251234   0.020   5.501  12.293  0.4676  0.0919 -0.0613
 9940TIP3    H151235   0.020   5.425  12.351  1.7347 -0.8250 -1.2152
 9940TIP3    H251236  -0.072   5.525  12.284  0.0747 -1.1831  0.4832
 9941TIP3   OH251237   3.772   5.295  15.833  0.0003 -0.0364 -0.6497
 9941TIP3    H151238   3.778   5.203  15.807 -0.8470 -0.3187  0.1211
 9941TIP3    H251239   3.707   5.333  15.774 -1.7623 -0.6264  0.8571
 9942TIP3   OH251240   1.640   0.311   3.218  0.1956 -0.1873  0.0683
 9942TIP3    H151241   1.591   0.252   3.275  0.2764 -0.9228 -0.6039
 9942TIP3    H251242   1.645   0.393   3.266  0.6898 -0.9359  1.3300
 9943TIP3   OH251243   3.202   3.064  10.591  0.0079 -0.1455  0.0787
 9943TIP3    H151244   3.167   3.012  10.664  0.3598 -0.5238 -0.0225
 9943TIP3    H251245   3.295   3.042  10.588  1.4670  4.6898  3.6261
 9944TIP3   OH251246   4.045   2.617   1.028  0.2769 -0.8381 -0.1922
 9944TIP3    H151247   4.058   2.665   1.110  0.7399 -0.0212 -0.7353
 9944TIP3    H251248   3.963   2.652   0.993  0.3019 -0.8737 -0.2874
 9945TIP3   OH251249   3.223   5.187   4.782 -0.1277 -0.1590  0.2458
 9945TIP3    H151250   3.246   5.103   4.741 -2.0059 -0.9745  0.7967
 9945TIP3    H251251   3.306   5.234   4.789  0.7416 -1.3833 -1.4008
 9946TIP3   OH251252   4.338   5.120  10.508 -0.0594  0.0885  0.6582
 9946TIP3    H151253   4.360   5.196  10.455 -0.8327  0.0150  0.2254
 9946TIP3    H251254   4.247   5.100  10.485 -0.5659  0.3265  2.3120
 9947TIP3   OH251255   2.364   3.805   3.979  0.1143 -0.4708 -0.0895
 9947TIP3    H151256   2.349   3.793   4.073 -0.5111  0.0148 -0.1243
 9947TIP3    H251257   2.336   3.895   3.962  1.4914 -0.1021 -0.4814
 9948TIP3   OH251258   0.896   3.108   0.338 -0.1586 -0.2350  0.0570
 9948TIP3    H151259   0.946   3.189   0.325  0.9349 -0.6643  1.3962
 9948TIP3    H251260   0.914   3.057   0.259  0.7687  0.0144  0.0888
 9949TIP3   OH251261   5.502   6.357  15.426  0.5388 -0.0398  0.4161
 9949TIP3    H151262   5.458   6.437  15.399 -0.6627 -0.6895  0.4276
 9949TIP3    H251263   5.432   6.299  15.454  1.3593 -1.2560 -0.0065
 9950TIP3   OH251264   4.225   6.038   4.834 -0.2232 -0.5442  0.1655
 9950TIP3    H151265   4.225   5.948   4.866  0.9806 -0.5596  0.1355
 9950TIP3    H251266   4.228   6.030   4.739  0.1497 -0.4599  0.1729
 9951TIP3   OH251267   6.380   6.587   6.030 -0.0502  0.1545  0.0190
 9951TIP3    H151268   6.462   6.580   5.982 -0.9022  1.4054 -1.6660
 9951TIP3    H251269   6.365   6.499   6.065  2.6808  0.2308  1.5398
 9952TIP3   OH251270   2.758   1.510  13.362 -0.0507  0.4394 -0.3878
 9952TIP3    H151271   2.836   1.502  13.417  1.7162  1.8242 -2.6415
 9952TIP3    H251272   2.713   1.588  13.396 -0.4735 -0.3477  0.8995
 9953TIP3   OH251273   2.247   1.517  15.554  0.4748  0.2738 -0.4127
 9953TIP3    H151274   2.247   1.509  15.649 -3.0598 -0.9249 -0.4574
 9953TIP3    H251275   2.294   1.440  15.523 -1.0926 -0.9866  0.2954
 9954TIP3   OH251276   3.995   3.709   2.804  0.2350 -0.0527  0.5885
 9954TIP3    H151277   4.037   3.790   2.832  1.8936 -0.8279  0.4345
 9954TIP3    H251278   4.068   3.654   2.774 -0.7320 -2.0515  1.8205
 9955TIP3   OH251279   2.808   6.775   3.633  0.3459 -0.3318 -0.3085
 9955TIP3    H151280   2.902   6.764   3.650  0.4218 -0.3123 -0.7178
 9955TIP3    H251281   2.804   6.832   3.557 -0.0639  2.5560  1.8097
 9956TIP3   OH251282   4.693   4.564   3.448 -0.2954 -0.4425  0.1800
 9956TIP3    H151283   4.704   4.658   3.434 -1.4457 -0.2014  0.8392
 9956TIP3    H251284   4.768   4.524   3.404 -0.2287  0.7303 -0.7929
 9957TIP3   OH251285   4.642   3.740  13.255 -0.2315 -0.4956 -0.2057
 9957TIP3    H151286   4.691   3.696  13.185 -0.0601 -1.5219  0.5519
 9957TIP3    H251287   4.636   3.675  13.325  1.3096  1.1458  1.5249
 9958TIP3   OH251288   4.857   3.463  13.656  0.5597  0.4517 -0.0410
 9958TIP3    H151289   4.893   3.376  13.639  3.0022  1.2065  0.9639
 9958TIP3    H251290   4.786   3.473  13.593  0.7609 -1.9632 -0.6843
 9959TIP3   OH251291   6.339   5.869  13.712  0.1563 -0.0071  0.3568
 9959TIP3    H151292   6.422   5.888  13.668 -0.4240  0.5968 -0.4773
 9959TIP3    H251293   6.288   5.821  13.647 -0.4349  0.2743  0.6103
 9960TIP3   OH251294   6.222   2.688   3.502  0.2302  0.2985  0.1507
 9960TIP3    H151295   6.217   2.783   3.490 -1.4936  0.0680 -1.2473
 9960TIP3    H251296   6.154   2.654   3.444 -0.9837 -1.6237  2.6343
 9961TIP3   OH251297   2.375   4.910  14.916  0.1671 -0.6378  0.4832
 9961TIP3    H151298   2.414   4.991  14.948 -0.2575 -0.2065 -0.1014
 9961TIP3    H251299   2.316   4.937  14.846  2.2278 -1.7231 -1.7370
 9962TIP3   OH251300   5.960   1.733  16.713  0.2975 -0.4038  0.4907
 9962TIP3    H151301   5.868   1.705  16.717  0.3822 -0.6419  0.7839
 9962TIP3    H251302   5.959   1.808  16.654 -0.2452  0.1877  1.2334
 9963TIP3   OH251303   1.156   0.631   0.295 -0.3906 -0.6076 -0.1857
 9963TIP3    H151304   1.247   0.608   0.312 -0.7760 -1.8154  0.3693
 9963TIP3    H251305   1.133   0.581   0.216 -1.6407 -3.3268  1.8063
 9964TIP3   OH251306   2.411   1.090   1.111 -0.2548 -0.4304  0.3450
 9964TIP3    H151307   2.421   1.019   1.174  1.4276 -0.2343  0.3070
 9964TIP3    H251308   2.480   1.076   1.047 -2.0922 -0.7656 -1.6317
 9965TIP3   OH251309   4.378   3.835  13.513  1.0645  0.4636 -0.4908
 9965TIP3    H151310   4.387   3.845  13.418 -0.9908 -0.9036 -0.8608
 9965TIP3    H251311   4.296   3.787  13.524  2.2728 -1.1298  1.8826
 9966TIP3   OH251312   0.251   5.508   2.451  0.4570  0.0042  0.1817
 9966TIP3    H151313   0.326   5.510   2.511 -0.2938  0.0679  1.1283
 9966TIP3    H251314   0.175   5.505   2.508 -0.2619 -0.2455 -0.7850
 9967TIP3   OH251315   5.457   0.752   5.218 -0.2579 -0.0111 -0.6615
 9967TIP3    H151316   5.436   0.736   5.126  2.3833  0.3918 -1.3890
 9967TIP3    H251317   5.457   0.847   5.227 -1.8702 -0.0780  0.1058
 9968TIP3   OH251318   2.139   6.772   4.503  0.5400 -0.3160 -0.0912
 9968TIP3    H151319   2.175   6.771   4.414  0.7636  0.2304 -0.0139
 9968TIP3    H251320   2.203   6.722   4.555 -0.0142 -1.3428 -0.3864
 9969TIP3   OH251321   0.797   2.598  15.555  0.3143  0.1429  0.2869
 9969TIP3    H151322   0.732   2.632  15.493  2.0384  0.8033 -1.2249
 9969TIP3    H251323   0.751   2.596  15.639 -2.6292 -2.3455 -1.2631
 9970TIP3   OH251324   2.024   3.119  16.370  0.0686  0.4520 -0.1853
 9970TIP3    H151325   2.111   3.112  16.410  0.7754  1.0990 -1.5610
 9970TIP3    H251326   1.980   3.187  16.420  0.2820 -0.0037  0.6357
 9971TIP3   OH251327   2.014   2.874  12.134 -0.7026  0.4269 -0.0299
 9971TIP3    H151328   1.981   2.927  12.062  1.0997 -0.4496 -1.5411
 9971TIP3    H251329   2.109   2.883  12.129 -0.5294 -0.1564  1.8561
 9972TIP3   OH251330   3.399   0.372  16.166 -0.2355 -0.0669  0.3429
 9972TIP3    H151331   3.349   0.450  16.141 -0.7480 -1.2499 -2.4710
 9972TIP3    H251332   3.491   0.396  16.149 -0.2287  0.5289  1.1925
 9973TIP3   OH251333   3.806   3.488  13.265  0.4959  0.3611  0.4329
 9973TIP3    H151334   3.769   3.546  13.198 -0.0302  0.6795  0.9873
 9973TIP3    H251335   3.865   3.544  13.316  1.3385 -0.0178 -0.1169
 9974TIP3   OH251336   0.341   5.271   4.191 -0.1939 -0.2340  0.3065
 9974TIP3    H151337   0.262   5.318   4.218 -1.1471 -1.5181 -0.1865
 9974TIP3    H251338   0.398   5.275   4.267  0.0537  2.3672  0.0028
 9975TIP3   OH251339   4.051   4.704   4.171  0.2905 -0.2787 -0.0064
 9975TIP3    H151340   4.130   4.754   4.194 -0.1995  0.5698 -0.1524
 9975TIP3    H251341   4.081   4.613   4.166  1.2384  0.0229  0.0490
 9976TIP3   OH251342   0.343   3.923  13.115 -0.0932  0.0567  0.4347
 9976TIP3    H151343   0.434   3.943  13.090 -0.4188  1.8202  0.5640
 9976TIP3    H251344   0.349   3.894  13.206  0.2823  0.7381  0.6350
 9977TIP3   OH251345   2.223   3.460  16.086  0.1331  0.0423  0.1638
 9977TIP3    H151346   2.316   3.442  16.100  0.3763  1.0145 -0.1814
 9977TIP3    H251347   2.202   3.419  16.002  0.2303 -0.2108  0.2599
 9978TIP3   OH251348   2.532   4.983  15.659 -0.1368  0.3347  0.3989
 9978TIP3    H151349   2.440   5.007  15.655 -0.3995 -0.7307 -0.4672
 9978TIP3    H251350   2.534   4.892  15.627  1.0596 -0.0550  1.5353
 9979TIP3   OH251351   0.849   6.724  17.077  0.3245  0.3132 -0.0808
 9979TIP3    H151352   0.785   6.670  17.124  1.1820 -0.1980  0.5003
 9979TIP3    H251353   0.796   6.793  17.037 -0.6929 -0.5297 -0.2282
 9980TIP3   OH251354   1.363   2.163  17.148  0.3107 -1.0558 -0.2674
 9980TIP3    H151355   1.349   2.198  17.236  0.5033 -0.2948 -0.5351
 9980TIP3    H251356   1.288   2.106  17.132  0.3624 -1.3344  0.4502
 9981TIP3   OH251357   5.477   5.558  13.316  0.0301 -0.2605  0.7463
 9981TIP3    H151358   5.457   5.478  13.266 -4.5429  0.6777  0.8622
 9981TIP3    H251359   5.533   5.528  13.387  0.6533 -2.8846 -0.7625
 9982TIP3   OH251360   5.753   2.430   0.740 -0.0309  0.2172  0.0958
 9982TIP3    H151361   5.701   2.434   0.820 -1.1103 -3.5605 -0.3152
 9982TIP3    H251362   5.715   2.497   0.683 -1.5766  0.4893  1.4027
 9983TIP3   OH251363   4.904   6.323   0.250 -0.1223  0.3374 -0.5701
 9983TIP3    H151364   4.858   6.250   0.210 -2.1066  0.8663  0.6736
 9983TIP3    H251365   4.860   6.401   0.216  1.2942  0.9366 -1.0672
 9984TIP3   OH251366   6.706   5.954   4.847  0.1752 -0.0969  0.5713
 9984TIP3    H151367   6.714   6.023   4.913  1.4566 -0.3563  0.6988
 9984TIP3    H251368   6.698   6.001   4.764  3.3710  0.2224  0.3979
 9985TIP3   OH251369   3.671   4.164  13.336 -0.1652  0.2754  0.1790
 9985TIP3    H151370   3.682   4.229  13.406  3.0422  0.4961 -0.4453
 9985TIP3    H251371   3.731   4.194  13.267 -2.3465 -0.6342 -2.1575
 9986TIP3   OH251372   5.021   5.317   0.527 -0.2679  0.3365 -0.5859
 9986TIP3    H151373   4.930   5.291   0.543 -0.4407  1.3634  0.1499
 9986TIP3    H251374   5.057   5.246   0.474 -1.2183 -0.5441 -0.0707
 9987TIP3   OH251375   4.611   0.621  13.211 -0.3634  0.2965  0.2798
 9987TIP3    H151376   4.670   0.652  13.143 -0.8056 -1.6185 -1.0039
 9987TIP3    H251377   4.656   0.642  13.293  1.1872  0.6222 -0.6395
 9988TIP3   OH251378   4.651   0.543  11.566 -0.7272 -0.5685  0.1758
 9988TIP3    H151379   4.742   0.570  11.567 -0.1794 -2.3750  2.1632
 9988TIP3    H251380   4.611   0.588  11.640 -1.9049  1.5590 -1.6804
 9989TIP3   OH251381   1.261   3.458   6.277  0.3551 -0.5338 -0.3703
 9989TIP3    H151382   1.262   3.552   6.293 -0.0156 -0.8734  1.7842
 9989TIP3    H251383   1.172   3.430   6.300  0.5744 -1.4737 -0.6307
 9990TIP3   OH251384   5.966   2.300   3.950 -0.1765 -0.2114  0.4176
 9990TIP3    H151385   5.963   2.263   3.862 -3.3845 -1.6809  1.0676
 9990TIP3    H251386   5.993   2.226   4.006  0.0827  0.2312  0.8831
 9991TIP3   OH251387   2.542   5.808  15.266 -0.7877 -0.5159  0.1902
 9991TIP3    H151388   2.479   5.874  15.298 -0.8680 -0.3730 -0.2492
 9991TIP3    H251389   2.573   5.844  15.183 -0.1733 -0.6232  0.3718
 9992TIP3   OH251390   4.951   4.826   4.383  0.2522  1.0623 -0.6624
 9992TIP3    H151391   5.015   4.887   4.346  1.1541  1.2868  1.1842
 9992TIP3    H251392   4.967   4.744   4.338  0.0925  1.7811 -2.0539
 9993TIP3   OH251393   4.519   3.691  15.796 -0.1616  0.7296 -0.6572
 9993TIP3    H151394   4.478   3.762  15.846 -0.6961  0.0258 -0.0834
 9993TIP3    H251395   4.613   3.699  15.815 -0.2763  0.9605 -0.1854
 9994TIP3   OH251396   6.372   0.067  16.608  0.6817  0.0667  0.2920
 9994TIP3    H151397   6.352  -0.018  16.647  0.7970  0.9129  2.2606
 9994TIP3    H251398   6.449   0.098  16.655 -0.9296  2.4454  1.4946
 9995TIP3   OH251399   1.384   0.818   4.571 -0.0203 -0.0698  0.4761
 9995TIP3    H151400   1.431   0.884   4.623  0.6064 -1.5008  1.7605
 9995TIP3    H251401   1.292   0.831   4.593  0.3147 -1.3802  2.8641
 9996TIP3   OH251402   0.468   6.021  15.320 -0.1042  0.5843 -0.4526
 9996TIP3    H151403   0.429   6.027  15.407  1.3951 -1.1975  0.3789
 9996TIP3    H251404   0.419   5.952  15.276  1.4515 -1.0121  0.2668
 9997TIP3   OH251405   6.530   1.017   3.477 -0.1170  0.2993  0.1023
 9997TIP3    H151406   6.616   1.057   3.486  0.7329 -1.3104 -0.7481
 9997TIP3    H251407   6.542   0.927   3.507 -1.3041 -0.1768 -0.8222
 9998TIP3   OH251408   5.570   5.196  14.437 -0.1351  0.1994 -0.2595
 9998TIP3    H151409   5.548   5.183  14.345 -0.3540 -0.8645 -0.0561
 9998TIP3    H251410   5.536   5.118  14.481  0.3172  0.5260  0.6650
 9999TIP3   OH251411   5.846   3.885  13.729 -0.0050  0.5604  0.4689
 9999TIP3    H151412   5.770   3.885  13.787 -0.1407  0.1462  0.2938
 9999TIP3    H251413   5.898   3.809  13.757 -1.1977 -0.9846 -1.4010
10000TIP3   OH251414   0.962   5.477  16.125  0.0837 -0.2499  0.5254
10000TIP3    H151415   1.028   5.467  16.194  1.5687 -0.7605 -0.9156
10000TIP3    H251416   1.014   5.481  16.044 -1.6309  0.1416 -0.5697
10001TIP3   OH251417   4.818   1.679  14.333 -0.0168  0.2064 -0.0915
10001TIP3    H151418   4.833   1.622  14.258  0.4780  1.3103 -0.8492
10001TIP3    H251419   4.790   1.620  14.403  0.9396 -1.0247 -0.7171
10002TIP3   OH251420   2.250   0.941  12.012 -0.0585  0.4830  0.9021
10002TIP3    H151421   2.285   0.916  11.926  0.8987  1.1179  1.0937
10002TIP3    H251422   2.211   0.861  12.046  0.0733  0.0732  0.1219
10003TIP3   OH251423   1.879   3.984  16.013 -0.0679  0.3381  0.0950
10003TIP3    H151424   1.926   3.926  15.953  1.1895 -0.2547  1.6281
10003TIP3    H251425   1.825   3.926  16.066 -0.4484  0.7624  0.1762
10004TIP3   OH251426   5.728   2.269  13.443  0.2267 -0.1292  1.1261
10004TIP3    H151427   5.794   2.296  13.507 -0.1045 -1.2456  1.9654
10004TIP3    H251428   5.755   2.180  13.418 -0.7100 -0.4194  1.1431
10005TIP3   OH251429   3.998   1.667  11.199 -0.2178 -0.0831  0.2689
10005TIP3    H151430   4.031   1.682  11.287 -0.8899 -0.4616  0.5862
10005TIP3    H251431   3.986   1.572  11.193 -0.1305 -0.0644 -0.2458
10006TIP3   OH251432   4.643   1.540  13.699  0.0323  0.3948 -0.2273
10006TIP3    H151433   4.575   1.496  13.751 -0.7678  1.4875 -0.3256
10006TIP3    H251434   4.596   1.609  13.652  1.4009  1.9089  0.5795
10007TIP3   OH251435   0.977   0.376  14.619  0.4704  0.5067  0.1187
10007TIP3    H151436   0.889   0.357  14.586  1.1266  0.4149 -1.6580
10007TIP3    H251437   1.024   0.293  14.611  1.2391  1.0079 -0.7058
10008TIP3   OH251438   5.013   4.615  14.838  0.7127  0.6331  0.0848
10008TIP3    H151439   4.918   4.605  14.844  0.8128  0.2900  1.1575
10008TIP3    H251440   5.030   4.631  14.745 -0.1271 -2.2042 -0.5885
10009TIP3   OH251441   0.507   3.228  13.920  0.8661 -0.7041 -0.3701
10009TIP3    H151442   0.420   3.268  13.931  1.9342  1.2889  1.0401
10009TIP3    H251443   0.491   3.154  13.861 -1.5071  0.6054 -1.4712
10010TIP3   OH251444   2.621   3.855   1.363  0.5164  0.1998  0.1222
10010TIP3    H151445   2.671   3.849   1.282  0.0124 -1.4811 -0.0732
10010TIP3    H251446   2.530   3.841   1.337  0.3235 -0.0689  0.9291
10011TIP3   OH251447   5.519   3.701  12.910 -0.7006  0.1837  0.2671
10011TIP3    H151448   5.448   3.764  12.902 -0.2604  0.5950 -0.4413
10011TIP3    H251449   5.491   3.626  12.857 -1.4336 -0.4228  1.4813
10012TIP3   OH251450   4.226   4.649   1.433 -0.2699  0.2934  0.3844
10012TIP3    H151451   4.246   4.571   1.381 -2.0703  1.3747 -2.0603
10012TIP3    H251452   4.263   4.722   1.383 -1.2178  1.2826  1.0916
10013TIP3   OH251453   3.913   4.532   5.605 -0.0980  0.1323  0.5754
10013TIP3    H151454   3.853   4.603   5.627 -0.4014 -0.8630  3.1387
10013TIP3    H251455   3.890   4.507   5.516 -3.8818 -0.5816  1.6487
10014TIP3   OH251456   0.046   4.218   4.652  0.8778  0.2650  0.3578
10014TIP3    H151457  -0.030   4.261   4.613  0.7146 -0.3305  0.0095
10014TIP3    H251458   0.009   4.150   4.709  1.1317  0.5825  0.9136
10015TIP3   OH251459   4.852   6.687   4.459  0.0794  0.6321 -0.1766
10015TIP3    H151460   4.825   6.778   4.449  0.3541  0.8086  0.6347
10015TIP3    H251461   4.807   6.658   4.539 -1.4360 -0.4816 -1.4023
10016TIP3   OH251462   2.504   3.923   0.644  0.2973 -0.7161  0.5786
10016TIP3    H151463   2.553   3.973   0.709  1.8919 -0.4921 -0.7709
10016TIP3    H251464   2.525   3.964   0.560 -1.2975 -1.3422 -0.1504
10017TIP3   OH251465   6.029   4.524   6.490 -0.2797  0.1377  0.9008
10017TIP3    H151466   5.967   4.586   6.530 -0.1032 -0.3505  1.9395
10017TIP3    H251467   6.105   4.526   6.547 -0.8031 -2.0591  1.7300
10018TIP3   OH251468   5.797   0.269   3.223  0.3129 -0.6105 -0.0801
10018TIP3    H151469   5.782   0.188   3.174 -0.7631 -0.0211 -0.7675
10018TIP3    H251470   5.854   0.244   3.295  1.3452 -1.6436 -1.2316
10019TIP3   OH251471   6.296   6.548   5.663  0.0276  0.6603 -0.6153
10019TIP3    H151472   6.229   6.481   5.678  0.7895  0.1562  0.5627
10019TIP3    H251473   6.378   6.499   5.658  0.5809  1.4876  0.1645
10020TIP3   OH251474   3.889   4.498   6.362 -0.4413 -0.4544 -0.0395
10020TIP3    H151475   3.965   4.464   6.411  0.4667  1.8539  0.2215
10020TIP3    H251476   3.882   4.441   6.286  0.3846 -1.8794  0.9324
10021TIP3   OH251477   4.486   0.194   6.504  0.1039 -0.3747 -0.5434
10021TIP3    H151478   4.572   0.225   6.532 -0.8801  2.0037 -0.0572
10021TIP3    H251479   4.431   0.271   6.506 -2.4402 -2.1558  0.5432
10022TIP3   OH251480   3.602   4.767  16.972  0.1212 -0.2278 -0.5662
10022TIP3    H151481   3.689   4.760  16.933 -0.3165  2.8832 -2.2302
10022TIP3    H251482   3.615   4.818  17.052 -0.4293  1.9220 -1.8239
10023TIP3   OH251483   0.291   6.389   5.526  0.4169 -0.5054  0.2886
10023TIP3    H151484   0.288   6.376   5.621  0.7572 -1.2316  0.2056
10023TIP3    H251485   0.213   6.345   5.494 -0.2517  0.6405  0.3263
10024TIP3   OH251486   6.626   6.384   5.286  0.8364  0.2799 -1.0156
10024TIP3    H151487   6.645   6.475   5.306  0.5036  0.3403 -0.9751
10024TIP3    H251488   6.548   6.387   5.232  0.4145 -0.0288 -0.4260
10025TIP3   OH251489   3.663   4.614  16.114 -0.2876 -0.7001 -0.2914
10025TIP3    H151490   3.572   4.620  16.087 -0.4198  1.7658  0.5920
10025TIP3    H251491   3.659   4.619  16.210  0.9368  2.5549 -0.3522
10026TIP3   OH251492   6.703   0.785   4.323  0.2452  0.0825  0.4388
10026TIP3    H151493   6.716   0.695   4.353  2.7501  0.5490  0.9022
10026TIP3    H251494   6.790   0.812   4.293 -0.5374  2.2594  0.0682
10027TIP3   OH251495   6.014   6.002   5.254 -0.0342 -1.0751  0.3966
10027TIP3    H151496   5.996   5.920   5.208  1.6767 -0.5165 -1.3258
10027TIP3    H251497   5.952   6.064   5.216 -0.4260 -1.2467  0.7521
10028TIP3   OH251498   5.937   0.910   3.908 -1.0760  0.1197 -0.7929
10028TIP3    H151499   6.017   0.899   3.960 -0.6074  0.4874 -1.4163
10028TIP3    H251500   5.949   0.995   3.864 -2.5826  1.0104  0.4462
10029TIP3   OH251501   6.228   0.322  13.398 -1.3081  0.1737  0.0638
10029TIP3    H151502   6.285   0.250  13.424 -1.7748 -0.0926  0.3620
10029TIP3    H251503   6.286   0.398  13.391 -0.8776 -0.1519  0.1072
10030TIP3   OH251504   5.190   1.792  13.946 -0.6973  0.1494  0.1779
10030TIP3    H151505   5.247   1.868  13.939  0.0669 -0.2735  1.4825
10030TIP3    H251506   5.163   1.773  13.857  0.2262  1.1012 -0.3075
10031TIP3   OH251507   5.891   1.477   3.656 -0.1434 -0.0364  0.2132
10031TIP3    H151508   5.882   1.459   3.750 -1.3477  0.9049  0.2767
10031TIP3    H251509   5.986   1.479   3.642  0.0531  0.2236  1.4820
10032TIP3   OH251510   4.645   5.239   3.347 -0.3236 -0.0692 -0.7653
10032TIP3    H151511   4.667   5.149   3.322 -1.8088 -0.9123  0.8951
10032TIP3    H251512   4.714   5.263   3.409 -2.2714 -1.6327  2.1015
10033TIP3   OH251513   6.759   5.894   3.976 -0.5919  0.3558  0.7955
10033TIP3    H151514   6.762   5.943   3.895 -0.4755  0.5969  0.9462
10033TIP3    H251515   6.850   5.868   3.992 -0.6515  0.0907  0.7161
10034TIP3   OH251516   6.157   2.371  16.352 -0.0152  0.2150 -0.0552
10034TIP3    H151517   6.213   2.442  16.321  0.4939 -0.2728 -0.2571
10034TIP3    H251518   6.217   2.298  16.368 -0.8731 -1.0856 -2.5174
10035TIP3   OH251519   5.719   6.533  14.658  0.6779 -0.3076  0.2522
10035TIP3    H151520   5.652   6.521  14.591  3.2649 -0.2154 -2.4639
10035TIP3    H251521   5.688   6.606  14.711 -1.9290 -1.0759 -0.1485
10036TIP3   OH251522   4.502   5.247  12.286  0.4652  0.0999  0.0186
10036TIP3    H151523   4.473   5.209  12.202  3.2007 -1.7690 -0.1571
10036TIP3    H251524   4.492   5.175  12.349  0.7598  0.7325  0.7911
10037TIP3   OH251525   2.914   6.546   2.145 -0.6225  0.4478  0.0430
10037TIP3    H151526   2.982   6.539   2.078 -1.0948 -0.7668 -0.3235
10037TIP3    H251527   2.952   6.503   2.222  0.6265  3.3859  1.1788
10038TIP3   OH251528   0.238   1.150  14.241  0.1379  0.2012 -0.2473
10038TIP3    H151529   0.206   1.150  14.150 -0.1281  1.5976 -0.1652
10038TIP3    H251530   0.333   1.151  14.233  0.1312 -0.7042 -0.5032
10039TIP3   OH251531   0.661   1.358  13.374  0.2667  0.1164  0.2019
10039TIP3    H151532   0.742   1.309  13.392 -0.3118 -1.1413 -0.5591
10039TIP3    H251533   0.607   1.344  13.451  0.7978  1.0479  0.7589
10040TIP3   OH251534   2.458   2.530  17.058 -0.0855 -0.0432  0.0166
10040TIP3    H151535   2.509   2.485  17.126 -1.3674 -2.0268 -0.2964
10040TIP3    H251536   2.469   2.476  16.980  1.2071  2.1090 -1.3453
10041TIP3   OH251537   6.269   5.881  12.703 -0.0443  0.3203  0.2386
10041TIP3    H151538   6.224   5.828  12.637  0.9401  0.3583 -0.4642
10041TIP3    H251539   6.322   5.943  12.653 -0.2673  1.1963  1.0597
10042TIP3   OH251540   4.850   6.724  16.475 -0.8347 -0.6728  0.4563
10042TIP3    H151541   4.865   6.815  16.451  0.0719 -0.5296  1.5029
10042TIP3    H251542   4.937   6.685  16.476 -1.3754 -1.9882 -1.5974
10043TIP3   OH251543   2.885   2.720   5.985 -0.2123 -0.0047 -0.2543
10043TIP3    H151544   2.855   2.804   6.019 -1.5722 -0.3939 -0.4579
10043TIP3    H251545   2.881   2.661   6.060  1.8510  0.3554  0.1794
10044TIP3   OH251546   6.607   4.449  12.409 -0.0601  0.1188 -0.5530
10044TIP3    H151547   6.690   4.421  12.370 -0.4302  0.3196 -1.4992
10044TIP3    H251548   6.586   4.530  12.364 -2.2957 -1.4736 -2.5302
10045TIP3   OH251549   6.712   6.634   4.632  0.0523  0.2374 -0.4107
10045TIP3    H151550   6.687   6.576   4.704 -0.2806 -2.0554 -2.2780
10045TIP3    H251551   6.665   6.715   4.648 -1.4805 -0.8836  0.9644
10046TIP3   OH251552   6.073   6.776   3.184  0.1496 -0.0609 -0.1203
10046TIP3    H151553   5.984   6.810   3.198  0.3627  0.5803 -0.3053
10046TIP3    H251554   6.091   6.794   3.092 -0.0033 -1.3218 -0.4010
10047TIP3   OH251555   1.637   3.235   2.869 -0.3961 -0.1077  0.4903
10047TIP3    H151556   1.698   3.169   2.901  0.3549  0.7907  0.9458
10047TIP3    H251557   1.560   3.186   2.843  0.7947 -1.3582 -0.7897
10048TIP3   OH251558   1.926   3.690   4.502 -0.1317  0.3556  0.3718
10048TIP3    H151559   1.939   3.600   4.530 -2.5332  0.2637  1.3171
10048TIP3    H251560   2.011   3.732   4.515  0.8216 -1.5793  0.5688
10049TIP3   OH251561   3.091   4.998   1.171  0.0427  0.7062  0.5913
10049TIP3    H151562   3.121   5.033   1.087 -0.9112  0.2187  0.0495
10049TIP3    H251563   3.172   4.983   1.220  0.6498  0.3238 -0.5010
10050TIP3   OH251564   0.862   4.812  10.976 -0.4876 -0.1731  0.1014
10050TIP3    H151565   0.915   4.813  10.896 -1.6726 -0.9763 -0.7047
10050TIP3    H251566   0.893   4.888  11.026  0.4835  0.1497 -0.9698
10051TIP3   OH251567   5.100   4.031  12.766  0.2560  0.1852  0.2775
10051TIP3    H151568   5.027   3.989  12.721  0.0464  0.3895  0.4279
10051TIP3    H251569   5.137   4.091  12.702 -1.5921  2.3255  1.1748
10052TIP3   OH251570   5.858   5.527   4.978 -0.0557  0.2227  0.1901
10052TIP3    H151571   5.851   5.507   4.884  0.8923 -1.4442  0.4481
10052TIP3    H251572   5.771   5.557   5.003 -0.3111  0.6887 -1.2305
10053TIP3   OH251573   3.520   1.258   1.542 -0.6780  0.8062  0.0366
10053TIP3    H151574   3.517   1.200   1.619 -3.0842  2.3844  1.1645
10053TIP3    H251575   3.499   1.201   1.468 -0.0056 -0.3774  0.7361
10054TIP3   OH251576   5.520   0.725  16.119 -0.4853 -0.3789 -0.0371
10054TIP3    H151577   5.494   0.705  16.029 -0.8237  0.9018 -0.2285
10054TIP3    H251578   5.452   0.784  16.151  2.0483  2.9572 -0.5007
10055TIP3   OH251579   1.391   4.937   4.642  0.4009 -0.3624  0.7741
10055TIP3    H151580   1.477   4.974   4.660  1.1770 -1.8751  0.2402
10055TIP3    H251581   1.349   5.002   4.585  1.2483  0.3073  0.8988
10056TIP3   OH251582   3.007   5.926  14.215 -0.0460  0.3708  0.2633
10056TIP3    H151583   3.016   5.850  14.158  1.0510  0.2147  0.6374
10056TIP3    H251584   3.086   5.926  14.269 -0.9961  0.5883  1.7050
10057TIP3   OH251585   5.090   0.441   1.896 -0.0428  0.7015  0.9364
10057TIP3    H151586   5.022   0.508   1.889  0.5497  1.2526  0.4713
10057TIP3    H251587   5.172   0.487   1.878  0.3432 -0.1937  0.3919
10058TIP3   OH251588   5.524   1.976  14.973  0.4950 -0.2264 -1.0816
10058TIP3    H151589   5.549   1.945  15.059  1.3713  0.5373 -1.0558
10058TIP3    H251590   5.510   1.896  14.921 -0.7929 -0.6980 -0.0367
10059TIP3   OH251591   3.167   1.117  15.840 -0.3437 -0.1247  0.3377
10059TIP3    H151592   3.235   1.058  15.807 -2.2233 -1.3525 -1.5629
10059TIP3    H251593   3.179   1.119  15.934  1.8324 -0.9234  0.0943
10060TIP3   OH251594   3.480   3.822  14.468 -0.4556  0.1789 -0.1384
10060TIP3    H151595   3.385   3.820  14.478 -0.6423  0.5945 -1.7689
10060TIP3    H251596   3.496   3.798  14.377  0.8527  2.7153 -0.6205
10061TIP3   OH251597   2.389   3.137  13.578 -0.5817 -0.3051  0.8001
10061TIP3    H151598   2.370   3.226  13.550  2.4458 -0.5229 -2.1967
10061TIP3    H251599   2.334   3.082  13.522  1.8074 -0.5174 -1.4161
10062TIP3   OH251600   1.461   3.107  13.592  0.4839 -0.2544 -0.6393
10062TIP3    H151601   1.448   3.142  13.504  1.1879 -0.0407 -0.6659
10062TIP3    H251602   1.449   3.182  13.650  1.6190 -0.0463 -0.6691
10063TIP3   OH251603   4.643   2.680   5.457 -0.5462 -0.1092  0.5431
10063TIP3    H151604   4.655   2.594   5.415 -3.6445 -0.5651  0.4896
10063TIP3    H251605   4.730   2.720   5.454  0.6909 -2.7378 -0.5499
10064TIP3   OH251606   2.647   3.249   2.825 -0.1506  0.2012  0.1525
10064TIP3    H151607   2.579   3.186   2.848  0.8662 -0.0534  2.5354
10064TIP3    H251608   2.665   3.232   2.732  0.2369 -3.1418  0.7869
10065TIP3   OH251609   3.650   3.662  15.760  0.5211 -0.4668 -0.2370
10065TIP3    H151610   3.559   3.649  15.735 -0.0933 -1.6486  2.3723
10065TIP3    H251611   3.700   3.615  15.693 -0.7028  1.1845 -2.3430
10066TIP3   OH251612   1.209   0.755   1.309 -0.0785 -0.4307 -0.3481
10066TIP3    H151613   1.244   0.790   1.227  0.2554  0.4093  0.1490
10066TIP3    H251614   1.115   0.750   1.295 -0.1285  0.6866 -0.4150
10067TIP3   OH251615   6.220   4.599   0.316 -0.3168 -0.4250  0.1544
10067TIP3    H151616   6.166   4.602   0.237  0.1802 -1.0504 -0.2227
10067TIP3    H251617   6.206   4.683   0.358 -0.3100  0.0561 -0.7905
10068TIP3   OH251618   4.841   1.831  13.685  0.0571  0.1079  0.4045
10068TIP3    H151619   4.810   1.884  13.759  0.7183  1.2544 -0.1347
10068TIP3    H251620   4.840   1.891  13.610  0.3310 -0.7821 -0.3218
10069TIP3   OH251621   4.027   0.826  12.796  0.3538 -0.8185  0.4847
10069TIP3    H151622   3.959   0.760  12.783  0.1776 -0.3967 -0.7770
10069TIP3    H251623   4.041   0.827  12.891 -1.6814 -0.6267  0.8084
10070TIP3   OH251624   3.645   2.341  17.075  0.2737 -0.3656 -0.2853
10070TIP3    H151625   3.670   2.254  17.106 -0.5097 -0.8167 -0.8844
10070TIP3    H251626   3.662   2.400  17.149 -2.8730 -1.6133  1.5218
10071TIP3   OH251627   0.834   6.561   1.144  0.4687 -0.4132 -0.2671
10071TIP3    H151628   0.925   6.588   1.132  0.0019  1.9358  1.1056
10071TIP3    H251629   0.808   6.525   1.060  1.9872  0.9738 -1.3554
10072TIP3   OH251630   0.581   0.778  14.399 -0.2027  0.3556  0.3037
10072TIP3    H151631   0.576   0.749  14.490  0.1405  0.0209  0.2153
10072TIP3    H251632   0.490   0.780  14.369 -0.4991  2.4173  1.2565
10073TIP3   OH251633   3.229   1.920   3.718  0.2761 -0.1620 -0.1889
10073TIP3    H151634   3.212   2.012   3.735  0.3266 -0.0538 -0.7186
10073TIP3    H251635   3.197   1.905   3.629 -1.9452 -1.2223  0.7493
10074TIP3   OH251636   0.387   3.800   6.226 -0.8632 -0.1925  0.0019
10074TIP3    H151637   0.475   3.818   6.258 -0.9726 -1.2292  0.9164
10074TIP3    H251638   0.330   3.855   6.281 -0.9078 -0.7058  0.4802
10075TIP3   OH251639   1.866   2.156   6.116 -0.3566  0.1256  0.3587
10075TIP3    H151640   1.918   2.086   6.154 -0.0622 -0.3624 -0.8997
10075TIP3    H251641   1.823   2.198   6.190 -2.0929 -2.6076  0.9805
10076TIP3   OH251642   6.097   0.680  14.843  0.4393  0.7323 -0.1117
10076TIP3    H151643   6.041   0.725  14.779  0.2378  2.7831  1.4450
10076TIP3    H251644   6.186   0.705  14.818  0.6126 -1.3277 -1.6861
10077TIP3   OH251645   6.645   3.194   2.517  0.2620 -0.3756  0.2113
10077TIP3    H151646   6.607   3.144   2.445  1.1178  0.4875 -0.8393
10077TIP3    H251647   6.722   3.144   2.544  0.3087 -0.3623  0.1008
10078TIP3   OH251648   1.166   4.179  17.156  0.1838 -0.2009 -0.4435
10078TIP3    H151649   1.200   4.115  17.094 -2.8973 -1.7570 -0.6273
10078TIP3    H251650   1.119   4.242  17.101 -1.2739 -0.7427  0.1859
10079TIP3   OH251651   0.807   0.349   4.485  1.0829 -0.0538 -0.5473
10079TIP3    H151652   0.794   0.315   4.574  1.0745 -0.4809 -0.7086
10079TIP3    H251653   0.900   0.371   4.481  0.6295  2.1615  0.3192
10080TIP3   OH251654   4.036   3.093  14.070 -0.4682 -0.2948  0.2207
10080TIP3    H151655   4.069   3.080  13.981 -3.3332  1.8880 -1.2575
10080TIP3    H251656   3.983   3.172  14.064  0.0982  0.4628  4.1508
10081TIP3   OH251657   2.616   4.281  16.637  0.0902 -0.0117  0.1477
10081TIP3    H151658   2.575   4.205  16.598  0.1439 -1.3314  2.5576
10081TIP3    H251659   2.544   4.328  16.680  0.7474 -1.3455  2.8076
10082TIP3   OH251660   1.093   1.073   3.756 -0.4038  0.5330  0.3767
10082TIP3    H151661   1.134   1.012   3.816  0.8426  0.6601 -0.3410
10082TIP3    H251662   1.025   1.022   3.711 -0.0582 -0.0462  0.5219
10083TIP3   OH251663   4.018   0.498   1.939 -0.0497  0.0284 -0.1133
10083TIP3    H151664   4.108   0.520   1.964 -0.6151  2.4162 -0.0051
10083TIP3    H251665   3.966   0.573   1.970 -1.5629  0.3832 -3.3298
10084TIP3   OH251666   3.826   6.633  16.515  0.5418 -0.4962 -0.1461
10084TIP3    H151667   3.757   6.699  16.512  0.5221 -0.5299 -0.4679
10084TIP3    H251668   3.788   6.561  16.566  0.1452 -0.7322 -0.7666
10085TIP3   OH251669   4.393   3.653  11.474  0.0905 -0.4494  0.8602
10085TIP3    H151670   4.352   3.718  11.418  1.7143 -1.4186 -1.5297
10085TIP3    H251671   4.432   3.703  11.545 -1.2312  0.8860  0.6666
10086TIP3   OH251672   1.393   6.721   2.035  0.3377 -0.0973  0.1038
10086TIP3    H151673   1.478   6.735   2.075 -0.0732 -0.7104  1.2045
10086TIP3    H251674   1.369   6.631   2.058 -0.5692  0.0416 -0.2535
10087TIP3   OH251675   4.717   0.374  13.402 -0.2286  0.2768  0.0051
10087TIP3    H151676   4.704   0.420  13.485 -0.7136 -2.1265  1.2991
10087TIP3    H251677   4.802   0.405  13.371 -0.6586  2.2283  0.6804
10088TIP3   OH251678   4.840   6.334  12.105  0.3788 -0.5674  0.1985
10088TIP3    H151679   4.804   6.415  12.070  1.6615 -0.1336 -0.1141
10088TIP3    H251680   4.852   6.352  12.198 -0.4638 -0.8137  0.3633
10089TIP3   OH251681   0.065   4.010  16.290  0.1771 -0.8316  0.0031
10089TIP3    H151682   0.100   4.089  16.249  1.6767 -1.5414 -0.1073
10089TIP3    H251683  -0.020   4.038  16.326  0.5995  0.7720 -0.1869
10090TIP3   OH251684   5.188   3.784   4.672 -0.2093  0.0293 -0.1788
10090TIP3    H151685   5.139   3.826   4.601  1.0944  0.1892 -0.9844
10090TIP3    H251686   5.205   3.854   4.735  0.3497  0.3028 -0.6388
10091TIP3   OH251687   0.932   1.534  15.356 -0.2482 -0.2951  0.9231
10091TIP3    H151688   0.905   1.581  15.436  1.3069 -0.0988  1.3428
10091TIP3    H251689   1.027   1.548  15.351 -0.2793 -0.6155 -0.7693
10092TIP3   OH251690   2.820   1.211  13.433  0.2748  0.0109  0.0234
10092TIP3    H151691   2.863   1.289  13.400 -0.8017  0.0088 -1.4470
10092TIP3    H251692   2.891   1.149  13.449  0.9683  0.6164 -0.6804
10093TIP3   OH251693   0.146   4.861   3.244  0.1672 -0.1585 -0.5090
10093TIP3    H151694   0.225   4.810   3.230 -0.1958 -0.8084 -0.2042
10093TIP3    H251695   0.171   4.927   3.309  0.0678 -1.2751  0.6703
10094TIP3   OH251696   6.531   2.664  15.790 -0.1152  0.4580 -0.2278
10094TIP3    H151697   6.590   2.689  15.720  1.9877 -2.1068  0.5712
10094TIP3    H251698   6.462   2.730  15.787  0.0633  0.5849 -4.4662
10095TIP3   OH251699   6.095   6.310  11.905  0.3794 -0.3427 -0.3566
10095TIP3    H151700   6.070   6.219  11.919  1.8249 -0.7880 -0.5777
10095TIP3    H251701   6.066   6.330  11.816  2.3590 -1.4093 -1.2766
10096TIP3   OH251702   5.114   0.008  13.509  0.1818  0.5666  0.0693
10096TIP3    H151703   5.033   0.045  13.544 -0.2855  0.0274 -0.4343
10096TIP3    H251704   5.114   0.035  13.416  1.1852  1.6082  0.3500
10097TIP3   OH251705   6.771   1.039  16.922  0.5181  0.2659 -0.9018
10097TIP3    H151706   6.793   1.131  16.939 -1.1710  0.8205 -1.6123
10097TIP3    H251707   6.691   1.043  16.869 -3.0989 -1.6298  3.9670
10098TIP3   OH251708   2.926   4.375   5.813  0.2684 -0.0264 -0.2168
10098TIP3    H151709   2.916   4.338   5.901  2.1276  0.0457  0.0422
10098TIP3    H251710   2.997   4.438   5.821 -0.0952  0.5783 -1.6028
10099TIP3   OH251711   6.295   4.107   4.151  0.0508 -0.1423 -0.5356
10099TIP3    H151712   6.314   4.079   4.061  2.4338 -0.5980  0.0625
10099TIP3    H251713   6.231   4.043   4.182  0.4689 -0.9955 -1.3763
10100TIP3   OH251714   4.602   3.384   2.701 -0.2264 -0.0678 -0.4932
10100TIP3    H151715   4.600   3.444   2.775  1.7905 -1.0156  0.3701
10100TIP3    H251716   4.515   3.345   2.699 -0.2732 -0.0694  1.4230
10101TIP3   OH251717   6.472   4.526   0.134 -0.0444 -0.7728 -0.0771
10101TIP3    H151718   6.427   4.501   0.215  0.1196  0.0659  0.2846
10101TIP3    H251719   6.521   4.606   0.158  1.5338 -1.5987 -0.4869
10102TIP3   OH251720   0.166   3.492   1.843  0.2142 -0.5561 -0.0991
10102TIP3    H151721   0.124   3.546   1.911  3.0989 -1.6211  2.6537
10102TIP3    H251722   0.209   3.556   1.786 -1.1782  0.2926 -0.2454
10103TIP3   OH251723   4.513   1.282   3.089 -0.5256 -0.0518 -0.8923
10103TIP3    H151724   4.503   1.351   3.024  0.4908  0.6360 -0.3302
10103TIP3    H251725   4.544   1.206   3.039  0.1109  0.4275 -1.2391
10104TIP3   OH251726   6.746   0.350  15.487 -0.3818 -0.6894 -0.3412
10104TIP3    H151727   6.704   0.303  15.559 -0.6985 -0.0169 -0.0865
10104TIP3    H251728   6.732   0.294  15.411 -0.7133 -1.0301 -0.0307
10105TIP3   OH251729   4.549   4.064  13.383  0.1134 -0.4345  0.2394
10105TIP3    H151730   4.486   3.995  13.360  1.3352 -1.7583  0.7983
10105TIP3    H251731   4.635   4.025  13.365  0.8280  0.8571  0.8104
10106TIP3   OH251732   0.826   1.564  13.528  0.1714  0.5062  0.1977
10106TIP3    H151733   0.774   1.574  13.608 -1.0628  1.8144 -0.7454
10106TIP3    H251734   0.827   1.651  13.489  2.8182  0.4197  0.0215
10107TIP3   OH251735   3.045   3.023  13.052  0.0198 -0.3039  0.2585
10107TIP3    H151736   2.993   3.102  13.068  0.4099  0.0275 -0.0892
10107TIP3    H251737   3.024   2.965  13.124 -0.4594  0.0264  0.3836
10108TIP3   OH251738   4.063   2.313   1.775 -0.0049  0.2232 -0.4122
10108TIP3    H151739   3.988   2.258   1.796 -0.1068  0.6610  0.3822
10108TIP3    H251740   4.082   2.360   1.856  1.8735 -0.7662 -0.2415
10109TIP3   OH251741   5.644   6.417   3.660  0.0666  0.0706  0.1205
10109TIP3    H151742   5.606   6.495   3.701  1.2153  0.8615 -0.2819
10109TIP3    H251743   5.632   6.431   3.566  0.6096 -0.0707  0.0318
10110TIP3   OH251744   0.093   2.969   2.363  0.2393  0.2648  0.3933
10110TIP3    H151745   0.159   2.903   2.345 -0.1389  0.6346 -2.6290
10110TIP3    H251746   0.129   3.050   2.325 -0.7253  1.0693  1.1699
10111TIP3   OH251747   5.664   0.219  14.700  0.2335 -0.0925 -0.1828
10111TIP3    H151748   5.641   0.308  14.723  1.0166 -0.0441  0.4411
10111TIP3    H251749   5.751   0.205  14.739  0.1170 -1.1236 -0.2595
10112TIP3   OH251750   3.473   0.091   5.105  0.1185 -0.1843  0.4330
10112TIP3    H151751   3.508   0.141   5.179 -1.9939 -0.1386  1.4259
10112TIP3    H251752   3.551   0.064   5.056  1.5079  0.4460  2.2377
10113TIP3   OH251753   1.576   2.478  11.753  0.1805  0.6818 -0.0075
10113TIP3    H151754   1.579   2.433  11.668 -2.1285  1.0621 -0.3306
10113TIP3    H251755   1.583   2.408  11.818  2.2037  0.4050 -0.4815
10114TIP3   OH251756   4.577   5.419  16.868 -0.0584 -0.0189  0.0055
10114TIP3    H151757   4.555   5.448  16.957  1.8377 -1.7982  1.0974
10114TIP3    H251758   4.643   5.481  16.838  0.8308 -0.6388  0.6614
10115TIP3   OH251759   5.160   1.968   5.156 -0.1194 -0.1857 -0.2523
10115TIP3    H151760   5.108   1.932   5.084 -0.9959  0.9947 -0.2364
10115TIP3    H251761   5.248   1.979   5.119  0.0819 -1.9755 -0.3560
10116TIP3   OH251762   4.453   3.353   1.677 -0.1847  0.6693  0.3276
10116TIP3    H151763   4.383   3.379   1.737 -0.5923  2.1362 -0.7562
10116TIP3    H251764   4.502   3.433   1.661  1.5943 -0.2836  0.8436
10117TIP3   OH251765   4.960   0.311   3.589  0.0474  0.5012  0.3982
10117TIP3    H151766   5.032   0.290   3.530 -0.0598  0.5959  0.2358
10117TIP3    H251767   4.982   0.397   3.623 -0.5064  0.9667 -0.4256
10118TIP3   OH251768   0.911   5.685   0.619 -0.4377  0.5218 -0.3670
10118TIP3    H151769   0.831   5.640   0.594  0.8356 -2.8668  1.3951
10118TIP3    H251770   0.891   5.725   0.704  0.4698 -2.5525  1.3540
10119TIP3   OH251771   2.835   0.408  13.696 -0.2250 -0.4956  0.4898
10119TIP3    H151772   2.927   0.397  13.721  0.1842  2.4962  0.4733
10119TIP3    H251773   2.839   0.435  13.604 -1.0723  0.5148  0.7486
10120TIP3   OH251774   0.121   0.884   4.122 -0.3022  0.0147  0.0372
10120TIP3    H151775   0.201   0.833   4.139 -1.2034 -1.6863 -0.6713
10120TIP3    H251776   0.141   0.936   4.045 -0.0842 -0.9279 -0.5561
10121TIP3   OH251777   0.355   5.677   5.064 -0.0332  0.2746 -0.0537
10121TIP3    H151778   0.380   5.766   5.091  1.2326  0.2907 -1.2148
10121TIP3    H251779   0.261   5.672   5.080 -0.0619  1.7420  0.2772
10122TIP3   OH251780   1.115   6.035  12.087  0.4793  0.5626 -0.0413
10122TIP3    H151781   1.102   6.127  12.110 -0.0905  0.5521 -0.3097
10122TIP3    H251782   1.027   6.000  12.079  0.6997 -0.0717  0.2983
10123TIP3   OH251783   2.494   3.445   4.828  0.3455  0.1040  0.2331
10123TIP3    H151784   2.417   3.393   4.803  0.6240 -0.0153 -0.3703
10123TIP3    H251785   2.520   3.488   4.747  0.8113  0.2824  0.4828
10124TIP3   OH251786   1.213   4.370  11.472  0.3937 -0.5423  0.1736
10124TIP3    H151787   1.261   4.423  11.408  0.3230  0.8434  1.2514
10124TIP3    H251788   1.159   4.312  11.419 -1.0797  1.8782 -1.0691
10125TIP3   OH251789   6.509   4.210  10.487  0.4727  0.9018  0.2849
10125TIP3    H151790   6.549   4.165  10.413 -0.2232 -1.5820  1.3828
10125TIP3    H251791   6.416   4.219  10.463  0.5057  1.3226  0.2991
10126TIP3   OH251792   4.880   4.190   4.338 -0.4672 -0.2527 -0.0891
10126TIP3    H151793   4.896   4.120   4.274  0.9671 -1.0188  1.1010
10126TIP3    H251794   4.797   4.165   4.380 -0.0985 -1.0927  0.1414
10127TIP3   OH251795   0.446   0.158   5.503  0.5429  0.2072 -0.1266
10127TIP3    H151796   0.430   0.206   5.584 -0.3634  1.2890 -0.9487
10127TIP3    H251797   0.372   0.180   5.447  2.0863  0.8836 -1.9221
10128TIP3   OH251798   0.086   4.876  16.760 -0.3888 -0.7685  0.8216
10128TIP3    H151799   0.043   4.803  16.716 -0.3196  0.3882 -1.2409
10128TIP3    H251800   0.020   4.912  16.818 -1.6922 -0.0787 -1.0391
10129TIP3   OH251801   5.889   5.115  13.855 -0.2159  0.6634 -0.2898
10129TIP3    H151802   5.969   5.163  13.837 -0.8484  1.9552  0.3284
10129TIP3    H251803   5.919   5.026  13.877  0.9844  0.9418 -0.7636
10130TIP3   OH251804   5.858   6.287  16.064  0.2289  0.0859 -0.0825
10130TIP3    H151805   5.927   6.353  16.072  0.6114 -0.4310  1.0364
10130TIP3    H251806   5.791   6.316  16.126 -0.9290  1.0170 -1.7465
10131TIP3   OH251807   1.389   3.626  12.309  0.0759 -0.1362  0.3383
10131TIP3    H151808   1.337   3.707  12.304 -0.1038 -0.3383 -1.3862
10131TIP3    H251809   1.468   3.645  12.258  0.3579 -0.8134  0.5185
10132TIP3   OH251810   3.123   3.859   5.840 -0.2649 -0.1453  0.0327
10132TIP3    H151811   3.123   3.949   5.806  0.7109 -0.1600 -0.0041
10132TIP3    H251812   3.030   3.834   5.838 -0.5472  0.8553  0.0383
10133TIP3   OH251813   1.788   2.699  16.891 -0.1216  0.1278  0.0666
10133TIP3    H151814   1.741   2.681  16.809 -3.1037  0.9886  1.4832
10133TIP3    H251815   1.806   2.793  16.887  0.7190 -0.0352 -0.0698
10134TIP3   OH251816   5.390   2.749   2.647  0.0361 -0.1363  0.2455
10134TIP3    H151817   5.364   2.836   2.679 -0.9533 -0.1756 -0.4026
10134TIP3    H251818   5.322   2.727   2.582  0.6007 -1.1424 -0.0086
10135TIP3   OH251819   6.698   6.431  16.921  0.5687  0.2403 -0.0146
10135TIP3    H151820   6.618   6.393  16.883 -0.2952  2.9215 -0.9361
10135TIP3    H251821   6.683   6.428  17.015  0.3841 -1.3674 -0.0746
10136TIP3   OH251822   1.552   5.913   6.000  0.3829  0.1281  0.1079
10136TIP3    H151823   1.628   5.856   6.016  0.0151 -0.1077  1.0708
10136TIP3    H251824   1.537   5.907   5.906  1.3873 -0.0544 -0.0455
10137TIP3   OH251825   5.878   3.237   0.359 -0.1998 -0.3492  0.2108
10137TIP3    H151826   5.789   3.255   0.329 -0.2172  1.1740  1.1200
10137TIP3    H251827   5.870   3.227   0.454  0.5470 -0.5573  0.2592
10138TIP3   OH251828   3.895   0.145   0.301  0.8579 -0.0795 -0.1812
10138TIP3    H151829   3.936   0.070   0.257  0.8384  0.2886 -0.8178
10138TIP3    H251830   3.949   0.220   0.277 -1.3843  0.7874 -2.7715
10139TIP3   OH251831   2.866   3.250  10.685  0.1716 -0.3516  0.5078
10139TIP3    H151832   2.772   3.268  10.684 -0.1185 -1.6501  1.8986
10139TIP3    H251833   2.880   3.204  10.768  1.4145 -3.4862 -1.3600
10140TIP3   OH251834   6.257   3.850   2.048 -0.0493 -0.3497 -1.0158
10140TIP3    H151835   6.197   3.846   2.122 -0.1691  2.6593 -0.8943
10140TIP3    H251836   6.204   3.826   1.972 -0.2762 -2.0142 -0.3554
10141TIP3   OH251837   3.855   4.921   4.660 -0.5303  0.1823 -0.4958
10141TIP3    H151838   3.829   4.866   4.586 -1.2371  1.5744 -1.2931
10141TIP3    H251839   3.950   4.928   4.654 -0.5933  0.3491 -1.3108
10142TIP3   OH251840   1.458   5.294   6.166  0.2413 -0.3057  0.0943
10142TIP3    H151841   1.373   5.308   6.209 -0.8726 -1.6484 -1.5696
10142TIP3    H251842   1.505   5.236   6.226 -0.2999 -0.1154  0.7166
10143TIP3   OH251843   6.001   1.189   5.214  0.4795 -0.2720 -0.0845
10143TIP3    H151844   5.979   1.280   5.230 -1.6597 -0.5281 -1.4723
10143TIP3    H251845   5.962   1.141   5.288 -0.6645 -0.3309 -0.7115
10144TIP3   OH251846   0.114   5.382   4.317 -0.1880 -0.0844 -0.8132
10144TIP3    H151847   0.053   5.376   4.243 -0.5095  2.6309 -0.8317
10144TIP3    H251848   0.065   5.430   4.384  1.6493  1.5473 -0.5718
10145TIP3   OH251849   3.653   3.388   5.049 -0.4244 -0.6329 -0.2398
10145TIP3    H151850   3.722   3.337   5.093  0.0900  0.5825  0.3989
10145TIP3    H251851   3.587   3.402   5.118  0.1346  0.8254  0.0140
10146TIP3   OH251852   5.181   3.129  11.320 -0.0648  0.5463 -0.2096
10146TIP3    H151853   5.229   3.109  11.239 -0.3370  2.9998 -1.0215
10146TIP3    H251854   5.090   3.110  11.298 -0.0704  0.6570 -0.2802
10147TIP3   OH251855   4.169   6.312  11.341  0.0802 -0.4474  0.4753
10147TIP3    H151856   4.109   6.245  11.310 -1.4030  0.2243  1.7711
10147TIP3    H251857   4.175   6.296  11.435 -0.9292  1.6715  0.9374
10148TIP3   OH251858   0.920   4.027   4.315 -0.1760  0.1011 -0.4496
10148TIP3    H151859   0.867   3.957   4.353 -0.0706  0.1011 -0.3074
10148TIP3    H251860   0.997   4.032   4.370  1.1101 -1.5169 -2.0334
10149TIP3   OH251861   6.004   3.072  12.202 -0.0608  0.2875 -0.3068
10149TIP3    H151862   5.956   3.080  12.120 -0.3493 -0.1706 -0.1861
10149TIP3    H251863   6.070   3.005  12.183  0.7033  1.0967 -0.5523
10150TIP3   OH251864   5.083   6.605   3.870  0.5062  0.1862 -0.3730
10150TIP3    H151865   4.987   6.604   3.878  0.4462  1.3830 -0.8784
10150TIP3    H251866   5.098   6.591   3.776  0.8898 -2.0678  0.0037
10151TIP3   OH251867   0.618   4.689  11.449  0.2634 -0.2062  0.2166
10151TIP3    H151868   0.545   4.698  11.388 -0.1193  0.1700  0.7340
10151TIP3    H251869   0.696   4.703  11.394 -0.1633  2.4388  0.2382
10152TIP3   OH251870   1.800   2.753  14.800  0.0556 -0.2948 -0.2588
10152TIP3    H151871   1.752   2.713  14.873  1.7631  0.9996  1.6444
10152TIP3    H251872   1.753   2.835  14.783 -0.5501 -0.7596 -0.8883
10153TIP3   OH251873   2.076   5.219  14.546 -1.0868  0.3206 -0.0315
10153TIP3    H151874   2.140   5.204  14.477 -0.6060 -0.8273  0.6589
10153TIP3    H251875   2.022   5.291  14.513  0.8522  1.6311 -0.4117
10154TIP3   OH251876   6.026   6.517  16.108 -0.4982 -0.6049  0.1859
10154TIP3    H151877   5.952   6.575  16.129  1.6217  1.6827  1.6430
10154TIP3    H251878   6.070   6.561  16.036 -0.3594 -1.7933 -0.4489
10155TIP3   OH251879   4.760   4.750   0.044  0.0133 -0.0730 -1.0257
10155TIP3    H151880   4.808   4.667   0.039  0.6428  0.3598 -2.5791
10155TIP3    H251881   4.684   4.731   0.099  1.4402 -1.0388  0.6475
10156TIP3   OH251882   5.967   2.735  16.547 -0.1782  0.1063 -0.4882
10156TIP3    H151883   6.005   2.798  16.608  0.0956 -0.3256 -0.2115
10156TIP3    H251884   5.988   2.770  16.461 -1.1451  1.0696 -0.3422
10157TIP3   OH251885   0.885   3.270   0.834 -0.3368  0.4244  0.1410
10157TIP3    H151886   0.968   3.251   0.878 -1.1429 -0.5958  1.2399
10157TIP3    H251887   0.911   3.297   0.746  1.1366 -0.7540  0.1852
10158TIP3   OH251888   3.353   4.053   3.438 -0.5958  0.5239  0.2125
10158TIP3    H151889   3.343   3.958   3.432 -0.3929  0.6547 -3.0374
10158TIP3    H251890   3.442   4.066   3.469  0.4048 -0.3714 -2.1578
10159TIP3   OH251891   2.489   1.435  14.108 -0.2257 -0.2724 -0.0968
10159TIP3    H151892   2.451   1.388  14.182 -1.9055 -0.2225 -0.9031
10159TIP3    H251893   2.435   1.514  14.099  1.6290  1.0959  0.3055
10160TIP3   OH251894   5.714   5.965  16.645 -0.3247  0.0721  0.2410
10160TIP3    H151895   5.672   6.034  16.696 -1.8285 -0.4424 -0.2387
10160TIP3    H251896   5.806   5.988  16.642 -0.9207  2.4564 -0.5336
10161TIP3   OH251897   6.471   4.885   5.778  0.1348  0.0371 -0.2461
10161TIP3    H151898   6.517   4.944   5.837  0.5170  1.4500 -1.9058
10161TIP3    H251899   6.532   4.872   5.705  0.4415 -3.1811  0.4850
10162TIP3   OH251900   4.992   5.492   3.096  0.2201  0.2843  0.1176
10162TIP3    H151901   5.086   5.472   3.102  0.1548  0.0546  0.4049
10162TIP3    H251902   4.950   5.407   3.094 -0.0158  0.3914  0.5410
10163TIP3   OH251903   4.382   0.071   3.274  0.3434 -0.5329 -0.0434
10163TIP3    H151904   4.340   0.123   3.205  0.4871  0.2488  0.4533
10163TIP3    H251905   4.464   0.117   3.292  0.3763 -0.8151  0.5503
10164TIP3   OH251906   4.759   5.303  12.166  0.0329 -0.6822 -0.7412
10164TIP3    H151907   4.672   5.276  12.196 -0.3461 -0.8014 -1.9142
10164TIP3    H251908   4.771   5.257  12.083  0.9720 -0.1970 -0.8831
10165TIP3   OH251909   5.862   1.221  14.551 -0.3089  0.2590  0.2082
10165TIP3    H151910   5.787   1.266  14.512  1.6086  2.3224 -1.2303
10165TIP3    H251911   5.891   1.279  14.621  1.4161  0.7035 -0.8427
10166TIP3   OH251912   2.216   4.284  12.345  0.3317  0.1044 -0.5641
10166TIP3    H151913   2.170   4.365  12.368  0.3052 -0.2831  0.7566
10166TIP3    H251914   2.291   4.314  12.293 -0.5495  0.8489 -1.4370
10167TIP3   OH251915   5.097   5.352   1.983  0.2695 -0.1112  0.8124
10167TIP3    H151916   5.147   5.302   1.918  0.0399  1.5311 -0.6622
10167TIP3    H251917   5.074   5.288   2.050  2.3845 -1.3910  0.3743
10168TIP3   OH251918   5.411   1.947   1.424  0.3719 -0.2858  0.3673
10168TIP3    H151919   5.456   2.031   1.416  0.4271 -0.3113  0.4134
10168TIP3    H251920   5.318   1.970   1.427  0.4121 -0.1939  0.9026
10169TIP3   OH251921   4.652   3.005  13.892 -0.8899  0.2913 -0.0817
10169TIP3    H151922   4.603   3.023  13.812 -1.4261 -0.3605  0.0975
10169TIP3    H251923   4.613   3.063  13.958 -1.8754 -0.7185  0.2256
10170TIP3   OH251924   5.490   1.429   3.427 -0.2447  0.1875  0.0416
10170TIP3    H151925   5.540   1.361   3.381 -0.5605 -0.6775  0.9667
10170TIP3    H251926   5.407   1.435   3.378 -0.4930 -0.5808  0.3583
10171TIP3   OH251927   1.138   5.786   4.303 -0.0575  0.3417  0.0040
10171TIP3    H151928   1.210   5.805   4.243 -0.1191 -0.5942 -0.3853
10171TIP3    H251929   1.148   5.850   4.374  1.3407  0.0413  0.1038
10172TIP3   OH251930   5.554   4.436   3.673  0.0939  0.2910 -0.3162
10172TIP3    H151931   5.538   4.405   3.583 -1.2286  0.7753 -0.2659
10172TIP3    H251932   5.499   4.379   3.727  0.0655  0.6991  0.0860
10173TIP3   OH251933   4.404   6.176  13.611  0.1170  0.2177  0.0520
10173TIP3    H151934   4.447   6.135  13.686 -0.6888 -0.3996  0.1800
10173TIP3    H251935   4.311   6.156  13.623  0.1191 -1.1148 -1.8436
10174TIP3   OH251936   2.354   3.732  15.061 -0.0755 -0.0032  0.1446
10174TIP3    H151937   2.385   3.665  15.121 -0.0921  0.1054  0.2765
10174TIP3    H251938   2.403   3.718  14.981  0.6126  0.4210  0.4856
10175TIP3   OH251939   3.662   3.228  14.838  0.1473  0.4123 -0.1302
10175TIP3    H151940   3.650   3.287  14.764 -2.5662 -1.4857 -1.2957
10175TIP3    H251941   3.588   3.246  14.895  0.2267 -0.6724  0.3165
10176TIP3   OH251942   1.884   6.546   5.331 -0.4128  0.0021 -0.3722
10176TIP3    H151943   1.797   6.537   5.371  0.7063 -2.4292  1.6547
10176TIP3    H251944   1.891   6.469   5.274  0.7541 -0.3172  0.1892
10177TIP3   OH251945   2.684   4.995  17.090  0.6170  0.4815  0.5870
10177TIP3    H151946   2.618   5.063  17.074 -0.7645 -0.9193  0.1338
10177TIP3    H251947   2.754   5.015  17.028 -0.4836  0.5922 -0.6452
10178TIP3   OH251948   4.182   0.326   3.444  0.2312 -0.1819 -0.4384
10178TIP3    H151949   4.224   0.244   3.471  0.0524 -0.0027  0.3967
10178TIP3    H251950   4.191   0.327   3.348  0.7136 -0.9121 -0.4064
10179TIP3   OH251951   5.603   5.355   0.750 -0.2657 -0.0923  0.2433
10179TIP3    H151952   5.657   5.433   0.740  1.1527 -0.9520  1.0282
10179TIP3    H251953   5.657   5.295   0.802 -1.3839 -1.5359 -0.2295
10180TIP3   OH251954   1.445   4.098  11.717 -0.0727  0.8056  0.0891
10180TIP3    H151955   1.461   4.020  11.770 -0.0670  0.6200 -0.1807
10180TIP3    H251956   1.518   4.099  11.654 -1.0586 -0.0108 -1.1089
10181TIP3   OH251957   2.464   6.336  11.313  0.0876 -0.7286  0.0740
10181TIP3    H151958   2.461   6.305  11.403  0.0454  0.2081  0.4079
10181TIP3    H251959   2.432   6.426  11.318 -1.9262 -1.3448 -1.1864
10182TIP3   OH251960   2.140   6.193   0.246 -0.3226 -0.4405  0.5280
10182TIP3    H151961   2.131   6.286   0.266  0.9304 -0.1126 -0.3367
10182TIP3    H251962   2.177   6.154   0.325  2.6637  0.4798 -0.3425
10183TIP3   OH251963   2.081   2.158  14.645  0.3042 -0.3930 -0.0330
10183TIP3    H151964   2.109   2.242  14.681  1.2142 -1.4415  1.7965
10183TIP3    H251965   1.992   2.146  14.678  0.0920 -0.0337 -0.4848
10184TIP3   OH251966   2.496   3.592   5.996 -0.1700  0.5021  0.5109
10184TIP3    H151967   2.478   3.667   5.939  0.7486  0.3664  0.0375
10184TIP3    H251968   2.587   3.570   5.979 -0.0808  0.0440  1.5610
10185TIP3   OH251969   0.182   6.497   2.695 -0.2034  0.6785 -0.8147
10185TIP3    H151970   0.174   6.590   2.674 -0.1158  1.4525  2.3073
10185TIP3    H251971   0.093   6.469   2.715 -0.0496  0.4277 -0.4725
10186TIP3   OH251972   2.868   2.283   2.875 -0.4326  0.4223  0.3751
10186TIP3    H151973   2.783   2.321   2.853 -0.4617  0.8142  1.1640
10186TIP3    H251974   2.914   2.353   2.921 -0.1558 -0.2116  1.0590
10187TIP3   OH251975   1.176   6.654  16.999 -0.1168 -0.4808  0.0439
10187TIP3    H151976   1.108   6.636  17.063  0.1543  0.3922  0.5854
10187TIP3    H251977   1.128   6.691  16.924 -0.0613  1.8126  1.1109
10188TIP3   OH251978   0.623   6.031   4.501 -0.1944 -0.1945 -0.0381
10188TIP3    H151979   0.613   6.040   4.406  0.5175 -0.8298 -0.1807
10188TIP3    H251980   0.549   5.976   4.528  0.0293 -0.6476 -0.3392
10189TIP3   OH251981   6.710   4.334   5.002 -0.0491  0.7014  0.1263
10189TIP3    H151982   6.641   4.273   4.977  0.3242  0.0113  0.7521
10189TIP3    H251983   6.726   4.316   5.094  2.2735 -0.4827 -0.4727
10190TIP3   OH251984   5.997   0.404   0.198 -0.2381  0.1039 -0.5514
10190TIP3    H151985   5.902   0.405   0.187 -0.1155 -0.5404 -1.7381
10190TIP3    H251986   6.030   0.451   0.121  0.3992  0.3318 -0.1384
10191TIP3   OH251987   3.968   3.266  15.043 -0.8139 -0.9112 -0.1707
10191TIP3    H151988   3.986   3.191  14.986 -0.4719 -0.3415 -0.8296
10191TIP3    H251989   3.910   3.322  14.991  1.5781  0.8797 -1.0213
10192TIP3   OH251990   5.684   3.069  11.184 -0.1149  0.0712  0.3115
10192TIP3    H151991   5.622   3.121  11.133 -1.0511 -1.5142 -0.1957
10192TIP3    H251992   5.738   3.024  11.119  0.5883  0.2780  0.7439
10193TIP3   OH251993   5.148   3.501  16.319  0.0177  0.9213 -0.3050
10193TIP3    H151994   5.073   3.528  16.372 -0.8422 -0.8533 -0.5838
10193TIP3    H251995   5.208   3.459  16.381 -0.9749 -1.1281 -0.6625
10194TIP3   OH251996   4.339   2.215   4.165 -0.2480 -0.1979 -0.0867
10194TIP3    H151997   4.284   2.153   4.214  0.9227  0.9552  2.8168
10194TIP3    H251998   4.351   2.288   4.225 -0.3499  2.2025 -2.8903
10195TIP3   OH251999   1.804   6.071  15.899  0.0768  0.5168 -0.0347
10195TIP3    H152000   1.888   6.112  15.920  0.1168 -1.1188  3.3087
10195TIP3    H252001   1.738   6.133  15.929  0.1349 -0.0813  1.3763
10196TIP3   OH252002   6.318   3.407  15.643 -0.0684  1.1246  0.1220
10196TIP3    H152003   6.363   3.336  15.597 -1.2751  0.4688 -0.0731
10196TIP3    H252004   6.365   3.415  15.726  0.7706  0.8546 -0.3189
10197TIP3   OH252005   2.187   0.355   0.291  0.2587 -0.3712  0.1313
10197TIP3    H152006   2.259   0.344   0.229 -0.0632  1.0710 -0.5313
10197TIP3    H252007   2.128   0.282   0.273  0.6786 -0.5417 -0.5560
10198TIP3   OH252008   2.885   4.199  11.147 -0.1159  0.0393  0.3874
10198TIP3    H152009   2.975   4.167  11.146 -0.0351  0.2793 -0.1887
10198TIP3    H252010   2.848   4.170  11.063 -0.6881 -0.3834  0.7784
10199TIP3   OH252011   3.216   0.289  15.075 -0.2487 -0.4067 -0.1975
10199TIP3    H152012   3.259   0.372  15.092 -0.6497 -0.1755 -0.2894
10199TIP3    H252013   3.239   0.268  14.985  1.1192 -1.1696  0.3232
10200TIP3   OH252014   3.256   4.940  13.716 -0.0191 -0.4000 -0.0886
10200TIP3    H152015   3.216   5.026  13.701  0.7023 -0.4384 -2.4029
10200TIP3    H252016   3.344   4.948  13.678 -0.1758 -2.3704 -0.9277
10201TIP3   OH252017   1.343   3.850  17.118 -0.4962  0.2156 -0.3316
10201TIP3    H152018   1.398   3.775  17.142  0.7771  0.8991 -1.0171
10201TIP3    H252019   1.260   3.834  17.162  0.0056 -1.2217  0.1413
10202TIP3   OH252020   2.104   1.098   5.011  0.0605  0.0226  0.5079
10202TIP3    H152021   2.020   1.140   4.996  0.6229  0.9698 -0.0402
10202TIP3    H252022   2.169   1.165   4.991  1.0105 -1.4781 -1.7118
10203TIP3   OH252023   1.000   5.379   2.076 -0.2324  0.6296  0.3043
10203TIP3    H152024   0.932   5.438   2.044  0.0448  1.2307  0.8251
10203TIP3    H252025   1.031   5.419   2.157 -0.3668 -0.4630  0.9036
10204TIP3   OH252026   3.498   5.792  11.885 -0.0294 -0.3637 -0.3918
10204TIP3    H152027   3.409   5.763  11.902  0.1646  0.5895  2.4277
10204TIP3    H252028   3.550   5.712  11.885 -0.7925 -0.8811 -1.6667
10205TIP3   OH252029   2.892   1.361   2.233  0.2542 -0.3364 -0.2313
10205TIP3    H152030   2.981   1.336   2.206  0.1626 -1.5899  0.6211
10205TIP3    H252031   2.852   1.280   2.264 -0.0770  0.8312  2.4811
10206TIP3   OH252032   3.290   2.513   2.933  0.2363  0.5582  0.5427
10206TIP3    H152033   3.241   2.595   2.940 -0.0134  0.4873 -0.3287
10206TIP3    H252034   3.327   2.500   3.021 -0.0231  1.4092  0.7876
10207TIP3   OH252035   4.605   5.985   4.890 -0.0748 -0.5881 -0.0261
10207TIP3    H152036   4.574   6.065   4.932  0.4785 -0.3196 -0.1266
10207TIP3    H252037   4.698   5.981   4.911 -0.3535 -1.8605  1.0115
10208TIP3   OH252038   0.699   3.172   6.721  0.1462 -0.3417  0.2284
10208TIP3    H152039   0.736   3.091   6.755  1.6188  0.3899  0.4069
10208TIP3    H252040   0.671   3.151   6.632  1.4296 -0.7758 -0.0696
10209TIP3   OH252041   4.406   6.340  11.179 -0.0362  0.0063 -0.6508
10209TIP3    H152042   4.388   6.300  11.094  0.3077  0.5818 -0.9976
10209TIP3    H252043   4.330   6.318  11.233 -0.0333 -0.7708 -0.9605
10210TIP3   OH252044   3.207   1.145  16.128  0.1563  0.6074 -0.3277
10210TIP3    H152045   3.295   1.148  16.166 -0.1152  1.4758  0.2420
10210TIP3    H252046   3.150   1.121  16.201 -0.1591  0.6619 -0.5553
10211TIP3   OH252047   1.132   0.231  15.461 -0.3919 -0.4850 -0.0825
10211TIP3    H152048   1.088   0.275  15.388 -1.1850  1.5071  1.5404
10211TIP3    H252049   1.211   0.193  15.422  0.0024  1.8612 -1.6720
10212TIP3   OH252050   3.503   6.510   5.495 -0.1965  0.1335 -0.4518
10212TIP3    H152051   3.495   6.603   5.517  0.6438  0.2723 -0.7029
10212TIP3    H252052   3.466   6.504   5.407 -0.8149  0.1204 -0.1890
10213TIP3   OH252053   0.146   5.320  14.337  0.1762 -0.0381  0.1824
10213TIP3    H152054   0.232   5.282  14.322 -0.0951 -0.2474 -0.9090
10213TIP3    H252055   0.141   5.393  14.275  0.1487  0.9165  1.2868
10214TIP3   OH252056   6.245   3.560   4.636 -0.3911  0.1068 -0.0220
10214TIP3    H152057   6.328   3.596   4.670 -0.6113  0.3897  0.2178
10214TIP3    H252058   6.190   3.550   4.713  0.1510 -2.1002  0.1250
10215TIP3   OH252059   1.176   3.267   5.762 -0.2802 -0.4424 -0.1586
10215TIP3    H152060   1.083   3.251   5.778 -0.2566 -0.5497 -0.1247
10215TIP3    H252061   1.222   3.207   5.821 -0.1835  0.0725  0.2918
10216TIP3   OH252062   4.885   1.377  14.281 -0.0417  0.2914  0.4295
10216TIP3    H152063   4.976   1.350  14.279  0.3639  1.6636 -0.2140
10216TIP3    H252064   4.862   1.391  14.190 -0.8768  0.0415  0.5932
10217TIP3   OH252065   0.107   5.107  13.802 -0.4449  0.2751 -0.1523
10217TIP3    H152066   0.012   5.101  13.803 -0.5500  1.1585 -2.4040
10217TIP3    H252067   0.132   5.082  13.713  1.3658  0.7141  0.2148
10218TIP3   OH252068   2.525   2.991   1.047 -0.9815  0.5092  0.5016
10218TIP3    H152069   2.614   3.027   1.051 -0.5863  0.1719 -3.4284
10218TIP3    H252070   2.535   2.904   1.007 -3.0851  0.5965 -0.3174
10219TIP3   OH252071   4.315   5.854  14.111 -0.4130 -0.5565 -0.0111
10219TIP3    H152072   4.363   5.794  14.167  1.1038 -1.0521 -1.7862
10219TIP3    H252073   4.275   5.798  14.045  1.1687  0.3529 -1.7899
10220TIP3   OH252074   1.516   0.362  15.543 -0.5803 -0.0517 -0.2985
10220TIP3    H152075   1.525   0.362  15.448 -0.7565  1.7123 -0.3254
10220TIP3    H252076   1.492   0.272  15.565 -1.1233 -0.3264 -1.9720
10221TIP3   OH252077   5.887   0.137   0.849 -0.0495  0.1127 -0.1213
10221TIP3    H152078   5.904   0.065   0.789  0.3234 -0.4390  0.6360
10221TIP3    H252079   5.956   0.130   0.915 -1.7288 -0.6153  1.5909
10222TIP3   OH252080   0.027   3.194  15.075 -0.1690 -0.1346 -0.6053
10222TIP3    H152081   0.093   3.257  15.105  1.0910 -0.6683 -2.1746
10222TIP3    H252082  -0.055   3.225  15.113  0.7274  1.4373  0.0888
10223TIP3   OH252083   5.719   5.841  11.222  0.5763  0.4201 -0.1398
10223TIP3    H152084   5.640   5.805  11.263 -0.0749  0.2040 -1.5542
10223TIP3    H252085   5.787   5.777  11.242 -0.3019 -0.9943 -1.5585
10224TIP3   OH252086   0.057   2.855   6.128  0.7682 -0.3243 -0.3196
10224TIP3    H152087   0.095   2.906   6.199  0.2947 -1.6438  0.9071
10224TIP3    H252088   0.066   2.911   6.051  1.5270  1.0200  0.7192
10225TIP3   OH252089   5.971   6.041   1.126  0.0459 -0.1707  0.1394
10225TIP3    H152090   6.003   6.114   1.072  0.2782 -0.7761 -0.5533
10225TIP3    H252091   6.050   6.002   1.162 -0.1265  0.3764  1.1102
10226TIP3   OH252092   5.619   3.419  14.832  0.1899  0.1633 -0.1518
10226TIP3    H152093   5.713   3.429  14.818 -0.0117  2.4650 -0.1470
10226TIP3    H252094   5.603   3.461  14.917 -0.6311 -1.5043  0.5383
10227TIP3   OH252095   0.403   3.589   3.191 -0.1384 -0.6032  0.2188
10227TIP3    H152096   0.494   3.562   3.182 -0.1698 -0.7260  0.2753
10227TIP3    H252097   0.374   3.605   3.101 -0.4931 -1.9640  0.0901
10228TIP3   OH252098   4.022   0.784   0.041  0.4695 -0.1910 -1.0865
10228TIP3    H152099   3.986   0.851  -0.017 -0.8552  0.9133  0.9375
10228TIP3    H252100   3.950   0.721   0.052  0.9707 -0.7965 -1.2312
10229TIP3   OH252101   1.195   2.505   3.483  0.0890 -0.0361 -0.0927
10229TIP3    H152102   1.146   2.435   3.441 -0.0137  0.2517 -0.4545
10229TIP3    H252103   1.247   2.544   3.414  1.9839 -1.3000  0.5966
10230TIP3   OH252104   4.472   4.218   5.705  0.3452  0.7646  0.2003
10230TIP3    H152105   4.458   4.175   5.789 -4.1143  1.2606 -0.1564
10230TIP3    H252106   4.485   4.310   5.727  0.6194  0.6715  0.4299
10231TIP3   OH252107   3.177   0.310   0.420 -0.0326  0.6991  0.0074
10231TIP3    H152108   3.085   0.284   0.422  0.1948 -0.3691 -2.2462
10231TIP3    H252109   3.219   0.252   0.485 -0.5178 -0.6442 -0.8520
10232TIP3   OH252110   4.613   0.082   3.784 -0.3459 -0.3170 -0.3934
10232TIP3    H152111   4.592   0.173   3.762 -1.0261 -0.2860  0.3366
10232TIP3    H252112   4.543   0.055   3.844  0.6352 -0.8515  0.5451
10233TIP3   OH252113   6.345   6.627   6.392 -0.3265  0.0363 -0.2311
10233TIP3    H152114   6.421   6.569   6.392 -1.0834 -0.9626 -0.2814
10233TIP3    H252115   6.355   6.679   6.312  1.1909  1.0993  0.6292
10234TIP3   OH252116   3.403   0.957  12.056 -0.3545  0.8478 -0.1237
10234TIP3    H152117   3.404   1.008  12.137 -0.6229  1.3395 -0.4258
10234TIP3    H252118   3.461   0.883  12.074 -1.6483  0.1085  1.0472
10235TIP3   OH252119   4.723   1.792   5.553 -0.0021  0.1792  0.0961
10235TIP3    H152120   4.791   1.860   5.553 -0.8729  1.0512 -0.6153
10235TIP3    H252121   4.656   1.826   5.612 -1.4395  0.9469 -1.9540
10236TIP3   OH252122   3.941   4.772   2.242  0.6404 -0.3240  0.1391
10236TIP3    H152123   3.947   4.697   2.301  0.2257  1.1261  2.0769
10236TIP3    H252124   3.928   4.734   2.155  0.9414 -2.4904  1.0318
10237TIP3   OH252125   2.005   3.438   4.596  0.1939  0.5338 -0.1361
10237TIP3    H152126   1.939   3.378   4.561  0.0158  1.3563 -1.2345
10237TIP3    H252127   2.029   3.401   4.681 -0.1212 -0.9345 -0.6800
10238TIP3   OH252128   4.183   3.615  14.181  0.2721 -0.7004  0.2600
10238TIP3    H152129   4.159   3.553  14.250  0.2647 -1.0500 -0.0486
10238TIP3    H252130   4.099   3.640  14.142  0.1226  1.0038  1.6374
10239TIP3   OH252131   1.476   1.373  12.662  0.5968 -0.1863  0.0221
10239TIP3    H152132   1.436   1.441  12.607 -1.6833 -1.4759  0.0312
10239TIP3    H252133   1.527   1.320  12.600  1.8331  1.1158 -0.0898
10240TIP3   OH252134   1.925   1.513  13.903  0.2841  0.2546  0.6489
10240TIP3    H152135   1.872   1.585  13.869  3.0334  2.1286  0.2275
10240TIP3    H252136   1.942   1.536  13.994 -0.0204 -0.6016  0.9329
10241TIP3   OH252137   4.017   5.395  10.622 -0.6744  0.1506 -0.1326
10241TIP3    H152138   3.979   5.479  10.598  0.8813  1.0731  0.5432
10241TIP3    H252139   3.944   5.344  10.657 -1.0221  2.4065  2.5453
10242TIP3   OH252140   1.107   0.844   4.581  0.0826  0.2994  0.0850
10242TIP3    H152141   1.013   0.834   4.567  0.1477  0.9505 -0.8362
10242TIP3    H252142   1.126   0.934   4.554  1.2301 -0.3144 -1.2004
10243TIP3   OH252143   3.595   3.286   2.970  0.0646 -0.0302  0.0242
10243TIP3    H152144   3.598   3.300   3.065 -0.2922 -0.2049  0.0619
10243TIP3    H252145   3.641   3.362   2.933  0.2520  0.0095  0.3398
10244TIP3   OH252146   1.925   4.806  15.264 -0.2429 -0.0182  0.4951
10244TIP3    H152147   1.950   4.742  15.330  0.9147 -0.3177 -0.2127
10244TIP3    H252148   1.931   4.758  15.181 -4.3606 -0.4550  0.3628
10245TIP3   OH252149   1.453   2.844   4.049 -0.2300  0.1574  0.3613
10245TIP3    H152150   1.510   2.891   3.988 -1.2663 -0.3860 -1.0701
10245TIP3    H252151   1.367   2.884   4.038 -0.7874 -1.0299  0.2443
10246TIP3   OH252152   3.656   6.423   0.580 -0.3659  0.0136 -0.2238
10246TIP3    H152153   3.563   6.433   0.559 -0.0038  0.2692 -1.7335
10246TIP3    H252154   3.695   6.506   0.554  0.2932 -0.0835  0.4359
10247TIP3   OH252155   2.295   4.822   1.946 -0.5484 -0.1556 -0.0800
10247TIP3    H152156   2.292   4.731   1.918 -0.4039 -0.6218  1.4043
10247TIP3    H252157   2.379   4.831   1.992 -0.6329  0.6809 -0.0764
10248TIP3   OH252158   4.139   6.593  11.392  0.1831 -0.4714  0.1801
10248TIP3    H152159   4.138   6.499  11.375  0.3113 -0.2589 -1.0793
10248TIP3    H252160   4.114   6.632  11.309  0.9293  0.6390  0.4707
10249TIP3   OH252161   2.275   2.946   3.999  0.0525 -0.4805  0.0585
10249TIP3    H152162   2.328   2.901   3.933  0.3998  2.0297 -1.4096
10249TIP3    H252163   2.253   2.877   4.062  0.2077 -2.8334 -2.3407
10250TIP3   OH252164   1.991   4.391  11.187  0.1027  0.4970  0.3013
10250TIP3    H152165   1.903   4.418  11.213 -0.7289 -0.7663 -1.1122
10250TIP3    H252166   2.027   4.348  11.264 -1.5954 -1.4973  0.0374
10251TIP3   OH252167   3.504   1.744   0.177  0.9163 -0.1904  0.4312
10251TIP3    H152168   3.485   1.650   0.185  0.8330 -0.0387  2.4164
10251TIP3    H252169   3.422   1.787   0.201  0.9260  0.3857 -0.5747
10252TIP3   OH252170   4.372   4.101  13.077  0.0871 -0.2970  0.2659
10252TIP3    H152171   4.301   4.149  13.121  1.3319  2.3291 -0.4984
10252TIP3    H252172   4.352   4.108  12.984  0.8837 -0.2871  0.0891
10253TIP3   OH252173   1.321   3.137   2.095 -0.2968  0.1460  0.1085
10253TIP3    H152174   1.233   3.122   2.060 -0.2104  1.0446 -0.5030
10253TIP3    H252175   1.357   3.049   2.106 -1.1545 -0.2159  0.0549
10254TIP3   OH252176   4.984   2.706  13.700 -0.2904  0.8334 -0.5100
10254TIP3    H152177   4.934   2.749  13.631  0.4596  0.7074 -1.1336
10254TIP3    H252178   5.009   2.777  13.759 -1.9446  0.7769  0.2776
10255TIP3   OH252179   4.356   5.085   5.941 -0.2362 -0.1172 -0.2139
10255TIP3    H152180   4.263   5.065   5.955 -0.1716 -0.7937 -0.7142
10255TIP3    H252181   4.360   5.115   5.850  0.4532 -2.8768 -1.1587
10256TIP3   OH252182   0.570   2.225   3.072  0.3144  0.0620 -0.2193
10256TIP3    H152183   0.588   2.316   3.094  0.7417 -0.1568  0.3858
10256TIP3    H252184   0.599   2.215   2.981  2.2596  0.0133  0.3765
10257TIP3   OH252185   4.270   1.287   1.631 -0.4606  0.6235  0.2179
10257TIP3    H152186   4.304   1.201   1.655 -2.2464 -0.4944 -1.1263
10257TIP3    H252187   4.285   1.294   1.537 -2.8153  0.5715 -0.2010
10258TIP3   OH252188   3.301   0.058  15.229 -0.1714 -0.3942 -0.0518
10258TIP3    H152189   3.282   0.128  15.167 -0.2098  0.6640  1.1255
10258TIP3    H252190   3.396   0.061  15.240 -0.1699 -0.5464 -0.0244
10259TIP3   OH252191   3.056   0.795  15.871 -0.0583 -0.1399  0.3623
10259TIP3    H152192   3.092   0.755  15.791  0.1516 -0.3310  0.5511
10259TIP3    H252193   3.101   0.749  15.942  0.4142  0.6495  0.5783
10260TIP3   OH252194   2.555   2.969  15.655  0.2094 -0.0751 -0.3533
10260TIP3    H152195   2.509   2.903  15.707 -1.3535  0.6018 -0.8578
10260TIP3    H252196   2.499   2.984  15.579  1.0275  1.1296 -0.7409
10261TIP3   OH252197   1.095   2.315   0.987  0.2452 -0.3669 -0.1470
10261TIP3    H152198   1.022   2.257   1.009  0.4968 -0.8249 -0.5109
10261TIP3    H252199   1.082   2.334   0.894 -0.1678  0.6362  0.1101
10262TIP3   OH252200   3.056   0.968  14.133  0.3886 -0.2873 -0.2903
10262TIP3    H152201   3.108   0.922  14.067  0.6231  0.1632 -0.4234
10262TIP3    H252202   3.021   0.899  14.189  1.0063 -0.6014 -0.2937
10263TIP3   OH252203   3.999   1.362  13.709 -0.3539 -0.1385  0.3212
10263TIP3    H152204   3.990   1.388  13.618 -0.7228  1.1551  0.7255
10263TIP3    H252205   4.091   1.335  13.717 -0.1753  0.2893 -0.2882
10264TIP3   OH252206   1.325   0.068  16.359  0.0113 -0.1788  0.4739
10264TIP3    H152207   1.324   0.161  16.380 -1.5828 -0.0491 -0.1404
10264TIP3    H252208   1.417   0.048  16.341  0.3434  1.2862  0.5439
10265TIP3   OH252209   4.175   6.313  16.724  0.6192  0.4575 -0.1800
10265TIP3    H152210   4.091   6.269  16.710  0.9497  0.0430 -0.9236
10265TIP3    H252211   4.228   6.286  16.649  1.7714 -0.1674  0.8487
10266TIP3   OH252212   1.327   4.130   2.765  0.1724 -0.4006  0.5737
10266TIP3    H152213   1.306   4.213   2.807  0.5689 -0.1856  0.3515
10266TIP3    H252214   1.285   4.064   2.820  0.0713 -0.0703  0.8944
10267TIP3   OH252215   5.451   4.019   2.328  0.4384  0.5348  0.7078
10267TIP3    H152216   5.504   4.031   2.250  0.1469  0.0145  0.4265
10267TIP3    H252217   5.499   3.954   2.380  1.0610  1.5040  1.3553
10268TIP3   OH252218   4.609   2.181   4.890 -0.2257 -0.1075  0.4775
10268TIP3    H152219   4.704   2.169   4.888 -0.1128  0.7851  0.4365
10268TIP3    H252220   4.576   2.103   4.935  0.6252  0.2111  1.6680
10269TIP3   OH252221   3.822   4.684   3.664  0.7626 -0.5149 -0.0037
10269TIP3    H152222   3.784   4.646   3.585  0.1276 -0.3718  0.2288
10269TIP3    H252223   3.852   4.609   3.715  0.1541 -0.6637  0.1309
10270TIP3   OH252224   2.004   4.460   5.360  0.1143 -0.3645  0.0441
10270TIP3    H152225   1.989   4.529   5.425 -1.4075 -0.4524 -0.2005
10270TIP3    H252226   1.996   4.378   5.409  0.9634 -0.3894  0.1431
10271TIP3   OH252227   4.750   0.958   2.210 -0.2707  0.1622 -0.4172
10271TIP3    H152228   4.830   1.010   2.201  0.0013 -0.3141 -0.7626
10271TIP3    H252229   4.778   0.868   2.200 -1.0826  0.0816 -2.0806
10272TIP3   OH252230   3.133   3.354   0.356  0.1161  0.1879 -0.9986
10272TIP3    H152231   3.133   3.393   0.269 -0.2559 -1.1541 -1.6235
10272TIP3    H252232   3.061   3.396   0.402  0.6651  1.3040 -1.1592
10273TIP3   OH252233   4.370   4.387   2.126  0.0831  0.2111  0.0084
10273TIP3    H152234   4.388   4.463   2.071  0.1849 -0.2297 -0.5750
10273TIP3    H252235   4.388   4.417   2.215  2.4284  0.1781 -0.4298
10274TIP3   OH252236   3.907   6.345   1.911 -0.3911  0.1484 -0.1723
10274TIP3    H152237   3.844   6.416   1.921 -0.5658 -0.0382  0.0758
10274TIP3    H252238   3.894   6.313   1.821 -0.6680  0.0924 -0.1115
10275TIP3   OH252239   2.142   5.874   0.960  0.3234 -0.1315  0.3363
10275TIP3    H152240   2.178   5.928   1.030  2.3699  0.0281 -0.8116
10275TIP3    H252241   2.068   5.925   0.925  1.6850  1.5421 -0.1595
10276TIP3   OH252242   3.475   4.442  13.097  0.1864 -0.3455  0.4293
10276TIP3    H152243   3.469   4.446  13.193  1.5303  0.8464  0.4764
10276TIP3    H252244   3.569   4.432  13.080  0.1624  1.4268 -0.8212
10277TIP3   OH252245   2.588   3.939  12.749 -0.4794  0.2916 -0.1892
10277TIP3    H152246   2.596   4.033  12.731 -1.5585  0.4609  0.1832
10277TIP3    H252247   2.494   3.921  12.741 -0.1373 -1.0347 -1.6419
10278TIP3   OH252248   0.414   6.289   4.302  0.1860 -0.3785 -0.2504
10278TIP3    H152249   0.361   6.364   4.276 -0.8699 -0.4136  1.7201
10278TIP3    H252250   0.351   6.219   4.318  0.9144 -0.8126  0.8084
10279TIP3   OH252251   3.168   6.333  14.714 -0.4883 -0.2278 -1.1073
10279TIP3    H152252   3.150   6.397  14.645 -1.4470  1.3207  0.5122
10279TIP3    H252253   3.085   6.288  14.728 -0.1243 -1.0029 -1.4164
10280TIP3   OH252254   3.881   1.066   1.187  0.3661 -0.2905 -0.0296
10280TIP3    H152255   3.892   1.038   1.096  1.2879 -0.3552  0.0927
10280TIP3    H252256   3.952   1.022   1.234 -0.4225 -0.6813  0.8132
10281TIP3   OH252257   4.462   6.702  11.785 -0.1828 -0.2806  0.3378
10281TIP3    H152258   4.517   6.649  11.842 -0.6741 -0.4991  0.6109
10281TIP3    H252259   4.523   6.763  11.742  0.1649 -0.0013  1.2260
10282TIP3   OH252260   3.315   4.303   4.861  0.1960  0.8132  0.2108
10282TIP3    H152261   3.407   4.280   4.877  0.3151  1.6444  0.7708
10282TIP3    H252262   3.304   4.291   4.767  0.1477 -1.7910  0.5253
10283TIP3   OH252263   2.590   5.821   6.635  0.4483  0.4574 -0.3476
10283TIP3    H152264   2.618   5.747   6.581 -0.1399  1.0325 -1.4596
10283TIP3    H252265   2.528   5.783   6.698  2.1593 -0.4550  0.8238
10284TIP3   OH252266   5.186   4.711   4.903  0.0206  0.4147 -0.0167
10284TIP3    H152267   5.268   4.760   4.892  0.4770 -0.1902  0.6349
10284TIP3    H252268   5.131   4.741   4.832  0.5089  1.4595  0.0310
10285TIP3   OH252269   3.967   1.759   2.375  0.4653 -0.4244 -0.1021
10285TIP3    H152270   3.999   1.847   2.394 -1.8307 -0.2355  3.5257
10285TIP3    H252271   4.045   1.706   2.364  1.9226  1.5432  0.5047
10286TIP3   OH252272   3.746   0.037   4.181  0.1773  0.3351  0.3587
10286TIP3    H152273   3.657   0.038   4.217  0.3726 -1.2272  0.9028
10286TIP3    H252274   3.802   0.011   4.254  0.7612 -1.3188 -0.6628
10287TIP3   OH252275   1.862   6.075  12.166 -0.2245 -0.4508 -0.5480
10287TIP3    H152276   1.848   6.123  12.247  1.4105 -3.6842  1.7289
10287TIP3    H252277   1.773   6.056  12.134 -0.8799  1.3931  0.1063
10288TIP3   OH252278   6.351   1.236   3.114  0.2855  0.0586  0.2722
10288TIP3    H152279   6.301   1.317   3.102 -0.7072 -0.4457  0.8859
10288TIP3    H252280   6.443   1.264   3.114 -0.0377  1.1404  0.1480
10289TIP3   OH252281   4.607   1.098  14.512  1.0750  0.6665  0.2374
10289TIP3    H152282   4.669   1.164  14.544  0.5605  1.7830 -1.0480
10289TIP3    H252283   4.566   1.138  14.436 -1.6011  0.1192  1.3602
10290TIP3   OH252284   3.028   0.404  13.262  0.2370  0.7647 -0.0665
10290TIP3    H152285   2.938   0.435  13.250 -0.1257  0.5422  1.9600
10290TIP3    H252286   3.035   0.328  13.204 -0.9735  0.6021 -0.0114
10291TIP3   OH252287   3.844   5.264  11.580  0.7916  0.0149  0.6748
10291TIP3    H152288   3.843   5.169  11.585  1.0494  0.0608  1.7208
10291TIP3    H252289   3.758   5.291  11.612  0.8563  0.1495  0.7356
10292TIP3   OH252290   6.446   2.522  16.938  0.2226  0.3831 -0.9985
10292TIP3    H152291   6.445   2.613  16.908  0.7539  1.5031  2.2304
10292TIP3    H252292   6.391   2.522  17.017  0.6226 -2.0048 -0.6800
10293TIP3   OH252293   6.300   1.041  12.073 -0.1965  0.1475 -0.4453
10293TIP3    H152294   6.368   0.974  12.084 -1.8339 -1.1484  2.1961
10293TIP3    H252295   6.347   1.124  12.081  1.3789 -0.7013 -0.6577
10294TIP3   OH252296   0.874   4.279   1.799  0.2156  0.0296 -0.4978
10294TIP3    H152297   0.911   4.220   1.733 -0.0561 -2.4903  1.5081
10294TIP3    H252298   0.779   4.268   1.789  0.1571  0.4448 -0.3850
10295TIP3   OH252299   3.391   0.936   2.798 -0.1977  0.3248  0.6789
10295TIP3    H152300   3.471   0.937   2.746 -0.9942 -0.1942 -0.5627
10295TIP3    H252301   3.415   0.889   2.878  0.9469  0.8839  0.6822
10296TIP3   OH252302   2.588   6.334   4.837  0.2817 -0.1129 -0.2486
10296TIP3    H152303   2.648   6.337   4.912  2.1229  0.0826 -1.6738
10296TIP3    H252304   2.624   6.398   4.775 -0.6953 -0.8905 -1.6549
10297TIP3   OH252305   2.621   4.043  11.957  0.1957 -0.4596  0.3507
10297TIP3    H152306   2.645   4.071  11.869 -0.6437 -1.0825 -0.0852
10297TIP3    H252307   2.656   3.954  11.965 -0.5099 -0.7477  0.3080
10298TIP3   OH252308   3.883   1.328  15.379 -0.5613 -0.7547  0.0247
10298TIP3    H152309   3.955   1.274  15.410 -1.7364 -2.3299  0.0666
10298TIP3    H252310   3.816   1.321  15.447 -0.5458  1.1552  0.2572
10299TIP3   OH252311   2.169   2.987  13.412  0.4463 -0.7144  0.3361
10299TIP3    H152312   2.090   2.953  13.454  2.2933 -2.9000  2.1498
10299TIP3    H252313   2.222   2.910  13.394  2.4520  0.7608 -0.2486
10300TIP3   OH252314   4.923   3.596  16.457 -0.5535  0.8486 -0.1945
10300TIP3    H152315   4.864   3.671  16.467  0.4207  1.2358  3.1985
10300TIP3    H252316   4.871   3.521  16.484  0.1374  1.0376  1.6806
10301TIP3   OH252317   4.262   0.430   1.114  0.0508  0.0742 -0.1027
10301TIP3    H152318   4.278   0.437   1.020 -0.6890 -0.5650 -0.2778
10301TIP3    H252319   4.212   0.349   1.124  0.9399 -0.3627  0.9359
10302TIP3   OH252320   1.038   0.645  13.291 -0.2049 -0.0712 -0.6008
10302TIP3    H152321   1.061   0.705  13.361 -3.3644 -1.4421  1.7149
10302TIP3    H252322   1.016   0.702  13.217  2.3489  1.4042 -0.2933
10303TIP3   OH252323   1.761   4.923   1.930  0.0182 -0.2994 -0.9128
10303TIP3    H152324   1.733   4.839   1.893 -1.0712 -0.5656  0.4952
10303TIP3    H252325   1.834   4.951   1.874 -0.3889 -1.6022 -2.1064
10304TIP3   OH252326   5.664   6.024   2.483 -0.1221  0.0047 -0.6819
10304TIP3    H152327   5.759   6.026   2.491 -0.2804  0.0665  1.3094
10304TIP3    H252328   5.636   5.952   2.539 -1.2826  0.2449 -0.9376
10305TIP3   OH252329   1.561   6.157  14.236 -0.4077 -0.9059  0.1234
10305TIP3    H152330   1.589   6.246  14.258  0.6388 -1.3131  0.4745
10305TIP3    H252331   1.559   6.111  14.320  0.5674 -1.6191 -0.2256
10306TIP3   OH252332   5.290   3.002   0.734  0.4174 -0.3303  0.4454
10306TIP3    H152333   5.286   2.921   0.684  0.4694 -0.7832  1.1698
10306TIP3    H252334   5.200   3.037   0.731  0.4822 -0.2264 -0.1802
10307TIP3   OH252335   3.836   1.281   2.566  0.2609 -0.7414  0.4003
10307TIP3    H152336   3.830   1.219   2.494  1.6204 -1.8666  1.2148
10307TIP3    H252337   3.911   1.336   2.544  0.7645 -1.1781  1.0160
10308TIP3   OH252338   5.828   4.267  14.287 -0.3369  0.1779 -0.3040
10308TIP3    H152339   5.865   4.282  14.200 -0.0351  0.4919 -0.1234
10308TIP3    H252340   5.864   4.182  14.314  1.2203  1.0510  0.3743
10309TIP3   OH252341   0.279   5.343   1.814 -0.0990 -0.1385 -0.1590
10309TIP3    H152342   0.240   5.361   1.729 -2.3122  0.3267  0.9056
10309TIP3    H252343   0.259   5.421   1.866  4.0188  0.9763 -0.1225
10310TIP3   OH252344   4.869   2.623   3.476  0.5916 -0.3943 -0.2657
10310TIP3    H152345   4.900   2.536   3.449  1.7807 -0.3677  1.0048
10310TIP3    H252346   4.910   2.638   3.561  0.0453  1.2380 -0.2806
10311TIP3   OH252347   1.857   1.053   2.741 -0.1892  0.1799  0.0915
10311TIP3    H152348   1.775   1.061   2.693  0.1694  0.6492 -0.4368
10311TIP3    H252349   1.903   0.982   2.697 -0.9842 -1.1518  1.3627
10312TIP3   OH252350   6.587   5.011   0.195  0.8660 -0.4913  0.3093
10312TIP3    H152351   6.572   5.029   0.103 -1.1385  0.2297  0.7488
10312TIP3    H252352   6.665   5.061   0.217  0.8055  0.0894 -0.7691
10313TIP3   OH252353   2.502   6.006  14.488  0.3209 -0.6141 -0.3916
10313TIP3    H152354   2.591   5.981  14.463  0.7483  1.4286 -0.9641
10313TIP3    H252355   2.456   6.017  14.405  0.2042  0.7013 -0.1602
10314TIP3   OH252356   4.470   0.031  11.028  0.4942 -0.0622  0.5657
10314TIP3    H152357   4.507  -0.009  10.949  1.1254 -0.6683  1.1643
10314TIP3    H252358   4.469  -0.040  11.092  0.3258  0.5265  1.2128
10315TIP3   OH252359   3.148   5.043   0.384  0.2808  0.5801  0.0700
10315TIP3    H152360   3.223   5.075   0.433  2.0809 -0.8717 -1.6593
10315TIP3    H252361   3.183   5.023   0.297 -2.0635 -0.3071 -0.7062
10316TIP3   OH252362   5.568   6.050   4.229 -0.1406  0.0776  0.0967
10316TIP3    H152363   5.548   6.049   4.135  1.8733 -1.5781 -0.3589
10316TIP3    H252364   5.663   6.062   4.233 -0.3495  1.1897  1.9684
10317TIP3   OH252365   5.687   1.760  16.721  0.1036  0.5328 -0.2078
10317TIP3    H152366   5.629   1.722  16.787  0.2277  1.2253  0.3099
10317TIP3    H252367   5.636   1.757  16.640 -0.0832 -0.2383 -0.0634
10318TIP3   OH252368   6.204   4.854   4.670 -0.8011  0.2602  0.0584
10318TIP3    H152369   6.202   4.908   4.592  1.1695 -1.8057 -1.4830
10318TIP3    H252370   6.296   4.835   4.685 -1.3255 -1.4519  1.3745
10319TIP3   OH252371   3.592   0.998  14.283 -0.2743  0.2125 -0.8018
10319TIP3    H152372   3.643   1.012  14.203 -0.3168  2.4763 -0.4552
10319TIP3    H252373   3.515   1.053  14.273 -0.2719  0.5352  0.8029
10320TIP3   OH252374   3.606   4.858   4.083 -0.1247 -0.4494  0.1472
10320TIP3    H152375   3.554   4.785   4.116 -1.0523  0.6943  1.2892
10320TIP3    H252376   3.628   4.909   4.161  0.2849  0.6271 -0.6560
10321TIP3   OH252377   2.940   1.117  15.074 -0.3021  0.0791  0.0696
10321TIP3    H152378   3.015   1.097  15.131 -0.7440  0.2104  0.6945
10321TIP3    H252379   2.864   1.087  15.123 -0.6587 -0.1483 -0.6141
10322TIP3   OH252380   0.455   2.489   5.636 -0.8324 -0.1091  0.0512
10322TIP3    H152381   0.396   2.476   5.710 -0.7588 -0.1277  0.1064
10322TIP3    H252382   0.503   2.407   5.628 -1.3243 -0.3552 -0.4476
10323TIP3   OH252383   5.582   4.936  11.546 -0.0999 -0.2790 -0.4336
10323TIP3    H152384   5.488   4.950  11.561 -0.1090  0.0262 -0.7914
10323TIP3    H252385   5.609   5.007  11.489  0.8573  1.0171  1.5570
10324TIP3   OH252386   4.554   2.317   5.527  0.2604 -0.6540  0.1247
10324TIP3    H152387   4.611   2.364   5.466  0.4700 -1.1318 -0.0471
10324TIP3    H252388   4.467   2.323   5.488 -0.0417  1.1237  0.9860
10325TIP3   OH252389   2.610   5.423   4.731  0.1904  0.4022 -0.3338
10325TIP3    H152390   2.669   5.492   4.761  1.3175 -0.7711  0.2126
10325TIP3    H252391   2.592   5.371   4.809  0.7896 -0.9609 -1.0802
10326TIP3   OH252392   6.625   2.155   6.280 -0.1272  0.6468 -0.6248
10326TIP3    H152393   6.668   2.072   6.302  0.3179  0.7769 -0.9906
10326TIP3    H252394   6.655   2.216   6.348  1.0294  0.9787 -1.4227
10327TIP3   OH252395   2.416   4.339  15.956 -1.0829 -0.3276 -0.7198
10327TIP3    H152396   2.353   4.332  15.884 -2.2463 -0.1977  0.2769
10327TIP3    H252397   2.364   4.368  16.031  0.2289  0.1397  0.0295
10328TIP3   OH252398   0.493   3.964   2.242 -0.6457 -0.3193 -0.4278
10328TIP3    H152399   0.397   3.970   2.247 -0.6944 -1.7620  0.8909
10328TIP3    H252400   0.523   3.994   2.328 -0.0919 -2.6428  0.2324
10329TIP3   OH252401   6.691   6.125   5.070  0.0950 -0.1169 -0.6365
10329TIP3    H152402   6.774   6.172   5.078  0.3923 -0.6870 -0.3533
10329TIP3    H252403   6.634   6.166   5.134  0.0879  0.4227 -0.9843
10330TIP3   OH252404   5.387   0.982  15.160  0.2867  0.6152 -0.1916
10330TIP3    H152405   5.296   0.974  15.132  0.4204  1.8084 -0.9962
10330TIP3    H252406   5.397   0.915  15.228 -0.9946  0.0161 -0.5759
10331TIP3   OH252407   2.129   4.333  14.783  0.2613  0.2718  0.1126
10331TIP3    H152408   2.066   4.405  14.778 -0.5279 -0.4266 -0.0347
10331TIP3    H252409   2.076   4.256  14.803  1.2951  0.0084  1.9911
10332TIP3   OH252410   1.701   0.361  10.727 -0.5498  0.2925 -0.2294
10332TIP3    H152411   1.654   0.357  10.811 -1.6800 -1.7602 -0.9196
10332TIP3    H252412   1.665   0.439  10.684 -0.2298  1.1521  1.0218
10333TIP3   OH252413   6.121   1.997  12.497  0.2173  0.1583  0.0275
10333TIP3    H152414   6.075   2.081  12.498 -0.2459 -0.0934  0.2251
10333TIP3    H252415   6.067   1.941  12.441  0.3200 -0.1166  0.2005
10334TIP3   OH252416   5.564   5.209   0.114  0.4428 -0.1268 -0.3037
10334TIP3    H152417   5.628   5.260   0.162 -0.6467 -0.4602  1.5647
10334TIP3    H252418   5.502   5.273   0.079  1.3697  0.1353 -1.4786
10335TIP3   OH252419   1.399   6.626  13.574 -0.7925 -0.4217  0.0089
10335TIP3    H152420   1.436   6.667  13.495 -3.6759 -1.6583 -2.0468
10335TIP3    H252421   1.316   6.589  13.545 -1.4273 -1.8029  3.4310
10336TIP3   OH252422   3.486   0.156   2.695  0.1242  1.0418  0.4563
10336TIP3    H152423   3.411   0.208   2.723 -1.0864 -1.1602  1.4457
10336TIP3    H252424   3.553   0.174   2.761  0.4006  2.8161 -0.2847
10337TIP3   OH252425   1.238   5.748  13.618 -0.6804 -0.2298  0.0715
10337TIP3    H152426   1.223   5.654  13.622 -1.2433 -0.1193  0.6314
10337TIP3    H252427   1.253   5.766  13.525  0.5292 -1.0361  0.1068
10338TIP3   OH252428   4.224   0.816  15.051  0.0494 -0.1579 -0.0260
10338TIP3    H152429   4.318   0.830  15.062 -0.1013  0.5579  0.3190
10338TIP3    H252430   4.219   0.743  14.988  0.8485 -1.2845  1.1784
10339TIP3   OH252431   2.626   1.792  12.364  0.1020 -0.4241 -0.5654
10339TIP3    H152432   2.683   1.798  12.288 -1.2216  2.1010 -1.4449
10339TIP3    H252433   2.549   1.843  12.340 -3.1879 -4.8056  0.0420
10340TIP3   OH252434   2.685   4.201  12.697  0.1120 -0.4965 -0.6722
10340TIP3    H152435   2.626   4.234  12.629 -1.4876 -1.7109  0.1074
10340TIP3    H252436   2.677   4.264  12.768 -0.3902 -0.7528 -0.4996
10341TIP3   OH252437   5.068   2.140  12.130 -0.0751 -0.1086 -0.4975
10341TIP3    H152438   5.115   2.212  12.172 -1.1275  1.0859 -1.3226
10341TIP3    H252439   5.126   2.112  12.059 -0.0738  0.5559 -0.7620
10342TIP3   OH252440   0.061   3.392  11.237  0.4214 -0.1803  0.2274
10342TIP3    H152441   0.117   3.360  11.166  0.4065 -0.8178  0.4981
10342TIP3    H252442   0.119   3.400  11.312  0.1928 -0.6309  0.4506
10343TIP3   OH252443   0.579   6.724   1.058 -0.1372 -0.5132  0.7413
10343TIP3    H152444   0.573   6.760   1.146 -1.6283  2.1167 -0.3679
10343TIP3    H252445   0.655   6.768   1.019 -1.6598  1.1859 -0.4438
10344TIP3   OH252446   0.252   0.481  14.295  0.1214  0.2237 -0.0688
10344TIP3    H152447   0.184   0.470  14.228 -0.0465  1.1562 -0.0510
10344TIP3    H252448   0.207   0.464  14.378  0.2804 -0.7255 -0.1742
10345TIP3   OH252449   2.222   6.576  11.345 -0.6524  0.5397  0.0616
10345TIP3    H152450   2.162   6.622  11.404 -4.0375 -2.3612 -0.9546
10345TIP3    H252451   2.213   6.622  11.262  0.6159  1.7725  0.5931
10346TIP3   OH252452   3.296   3.543   1.488 -0.0115 -0.3690 -0.3728
10346TIP3    H152453   3.284   3.482   1.561  2.9684  0.7088  1.1110
10346TIP3    H252454   3.217   3.598   1.489  0.2736  0.0518  2.4822
10347TIP3   OH252455   2.282   3.576   1.721 -0.0761  0.0746  0.2622
10347TIP3    H152456   2.309   3.651   1.669 -0.6634  0.7163  0.8701
10347TIP3    H252457   2.188   3.590   1.737 -0.6778 -1.8457 -1.3979
10348TIP3   OH252458   6.527   6.072  14.239 -0.5520  0.2412  0.5966
10348TIP3    H152459   6.602   6.015  14.259  0.7215  1.5178 -0.4267
10348TIP3    H252460   6.493   6.039  14.156 -1.8427 -1.0318  1.6023
10349TIP3   OH252461   5.652   6.248   4.797 -0.3232 -0.2692  0.5213
10349TIP3    H152462   5.607   6.296   4.728 -0.6164 -2.0848 -0.5739
10349TIP3    H252463   5.599   6.170   4.810  1.5419 -1.5656  0.4695
10350TIP3   OH252464   3.754   6.620  12.753  0.0413 -0.0022 -0.1016
10350TIP3    H152465   3.835   6.570  12.746  0.8296  1.3515 -0.7135
10350TIP3    H252466   3.767   6.697  12.698 -1.3513  0.6400  0.4224
10351TIP3   OH252467   6.609   5.302  11.916 -0.4704  0.1959 -0.2488
10351TIP3    H152468   6.609   5.370  11.984 -0.0333 -2.5964  2.6563
10351TIP3    H252469   6.527   5.316  11.869 -0.3622  2.7486  0.2018
10352TIP3   OH252470   6.551   0.163  16.814 -0.0781 -0.4023 -0.4585
10352TIP3    H152471   6.552   0.073  16.847 -0.7562  0.6600  2.6722
10352TIP3    H252472   6.572   0.217  16.891 -1.4578  2.2221 -1.8562
10353TIP3   OH252473   5.539   4.166   6.544 -0.7323 -0.3044 -0.6906
10353TIP3    H152474   5.572   4.079   6.566 -0.4041 -0.2684 -1.0284
10353TIP3    H252475   5.451   4.168   6.581  0.1155  0.0753  1.3335
10354TIP3   OH252476   0.953   0.124   5.616 -0.2814  0.2401  0.3751
10354TIP3    H152477   1.014   0.193   5.589 -0.1532  0.1067  0.3282
10354TIP3    H252478   0.957   0.124   5.712 -1.2841  1.2178  0.4379
10355TIP3   OH252479   4.839   1.571   3.948  0.1210 -0.1971 -0.3151
10355TIP3    H152480   4.913   1.512   3.967 -0.9462 -1.3825  0.2451
10355TIP3    H252481   4.795   1.530   3.874  0.2756  0.7415 -0.9279
10356TIP3   OH252482   3.407   4.521  14.869  0.1917  0.5697  0.5706
10356TIP3    H152483   3.321   4.534  14.829 -0.1251 -1.0898  0.6638
10356TIP3    H252484   3.398   4.558  14.956 -0.5400  0.1573  0.6818
10357TIP3   OH252485   0.257   5.920  15.145  0.2313  0.8392  0.7285
10357TIP3    H152486   0.233   5.962  15.062  2.0187  0.8811  0.2070
10357TIP3    H252487   0.316   5.849  15.119  0.6115  0.7021  1.9461
10358TIP3   OH252488   3.696   3.587  14.543 -0.1495  0.3220 -0.2107
10358TIP3    H152489   3.615   3.619  14.502 -0.0099  0.3804 -0.4359
10358TIP3    H252490   3.759   3.657  14.530  0.3609 -0.3401 -1.3216
10359TIP3   OH252491   4.463   1.610   5.659  0.4781  0.0873  0.4720
10359TIP3    H152492   4.387   1.663   5.685  1.0810  1.5878 -0.7018
10359TIP3    H252493   4.474   1.547   5.729 -1.0294  0.7431  1.3212
10360TIP3   OH252494   2.750   0.505   2.159  0.4260  0.3290  0.0379
10360TIP3    H152495   2.694   0.535   2.087 -0.1790 -1.9596 -0.4834
10360TIP3    H252496   2.812   0.445   2.118  0.1546 -0.9005  1.4038
10361TIP3   OH252497   4.675   0.378  11.863 -0.0231  0.1822 -0.3290
10361TIP3    H152498   4.763   0.341  11.864 -0.3512 -0.6104 -0.2561
10361TIP3    H252499   4.685   0.466  11.901  1.1596  1.1161 -2.6881
10362TIP3   OH252500   0.942   5.832   1.206  0.2443  0.1377  0.3274
10362TIP3    H152501   0.864   5.885   1.224  1.0304  1.5555 -0.3870
10362TIP3    H252502   0.920   5.745   1.240 -1.1020  0.8874  1.4163
10363TIP3   OH252503   3.667   3.331  14.592 -0.6853 -0.8068 -0.0343
10363TIP3    H152504   3.739   3.285  14.549 -0.2286 -0.8498  0.7598
10363TIP3    H252505   3.667   3.418  14.553 -0.4024 -0.9073 -0.2597
10364TIP3   OH252506   3.863   2.723   1.561 -0.1332  0.0587 -0.3221
10364TIP3    H152507   3.779   2.681   1.542 -0.8382 -0.6743  4.0241
10364TIP3    H252508   3.926   2.651   1.561  0.0928  0.2539 -1.1948
10365TIP3   OH252509   2.160   5.299   4.456  0.7047  0.1990 -0.2093
10365TIP3    H152510   2.239   5.335   4.495 -0.1605 -1.1636  2.9857
10365TIP3    H252511   2.175   5.204   4.455 -1.5596 -0.2518  2.2221
10366TIP3   OH252512   5.033   3.497  12.071  0.6001 -0.2536  0.5181
10366TIP3    H152513   5.125   3.521  12.064  1.0175 -1.9105  0.1463
10366TIP3    H252514   4.996   3.517  11.985  0.4204  1.1311  0.9035
10367TIP3   OH252515   3.509   0.843   1.312  0.0329 -0.3311 -0.0723
10367TIP3    H152516   3.541   0.758   1.341 -0.9652 -0.9515 -0.7567
10367TIP3    H252517   3.484   0.829   1.221 -3.0076 -0.1220  0.6758
10368TIP3   OH252518   6.441   0.364  15.490  0.2839  0.0041 -0.3525
10368TIP3    H152519   6.404   0.364  15.401  1.9970 -2.7520 -1.1515
10368TIP3    H252520   6.534   0.347  15.477  0.9735  1.7787  1.8987
10369TIP3   OH252521   6.670   2.151   4.817 -0.2069  0.1707 -0.0881
10369TIP3    H152522   6.663   2.216   4.887  0.2729  0.6583 -0.4904
10369TIP3    H252523   6.604   2.086   4.839 -0.1800  0.4056  0.7316
10370TIP3   OH252524   1.337   3.387  14.643  0.4079 -0.4380  0.2211
10370TIP3    H152525   1.262   3.442  14.664  1.6250  1.7309 -0.9999
10370TIP3    H252526   1.383   3.377  14.726  0.0275  0.1660  0.5103
10371TIP3   OH252527   0.691   0.753  12.241  0.0469 -0.6023 -0.2056
10371TIP3    H152528   0.785   0.765  12.252 -0.1111 -0.8687  1.5001
10371TIP3    H252529   0.661   0.719  12.325 -1.7977  0.7896 -0.2846
10372TIP3   OH252530   0.291   1.241  13.875 -0.3674  0.1604 -0.8062
10372TIP3    H152531   0.282   1.251  13.780  0.3322  1.3393 -0.7645
10372TIP3    H252532   0.374   1.196  13.887  1.1415  2.8584 -0.6698
10373TIP3   OH252533   1.959   4.546   1.471  0.3420  0.0416 -0.7185
10373TIP3    H152534   1.936   4.639   1.476 -0.0395  0.0800 -2.6080
10373TIP3    H252535   1.877   4.502   1.452  0.6013 -0.6424 -0.2734
10374TIP3   OH252536   4.624   6.523  12.023 -0.2415 -0.1510  0.3618
10374TIP3    H152537   4.556   6.467  11.989  1.9506 -3.7598  1.6444
10374TIP3    H252538   4.684   6.537  11.950 -0.3757 -0.1342  0.2554
10375TIP3   OH252539   4.581   3.700  12.715  0.3848  0.0046 -0.7869
10375TIP3    H152540   4.521   3.626  12.710  1.8514 -1.1446 -1.5280
10375TIP3    H252541   4.531   3.773  12.678 -0.8548 -0.7294 -0.5931
10376TIP3   OH252542   3.979   5.873   2.066 -0.1500 -0.1654 -0.1286
10376TIP3    H152543   4.072   5.853   2.075 -0.2462 -0.5971 -0.1036
10376TIP3    H252544   3.968   5.957   2.112  0.4359  0.4339 -1.0671
10377TIP3   OH252545   5.578   0.694  12.401 -0.4065 -0.1899  0.3735
10377TIP3    H152546   5.596   0.745  12.323  1.0384  0.1179  0.9080
10377TIP3    H252547   5.593   0.603  12.374  1.6226  0.0253  0.6962
10378TIP3   OH252548   6.642   4.365   1.343  0.3250  0.3594 -0.1799
10378TIP3    H152549   6.624   4.361   1.437  1.2362 -0.9335 -0.0417
10378TIP3    H252550   6.589   4.438   1.311 -1.5291 -0.4243  0.9956
10379TIP3   OH252551   1.868   4.128  14.774  0.3283  0.1694 -0.3066
10379TIP3    H152552   1.814   4.170  14.708  1.1223 -1.4220 -2.0350
10379TIP3    H252553   1.858   4.182  14.853 -3.6840 -0.0762 -0.5744
10380TIP3   OH252554   2.620   2.532  16.555 -0.2064  0.5456 -0.5210
10380TIP3    H152555   2.695   2.590  16.567  0.2122  0.0759 -0.8764
10380TIP3    H252556   2.545   2.585  16.583 -0.0828  2.0002 -2.7607
10381TIP3   OH252557   4.871   0.435  14.079  0.3294  0.1247 -0.0407
10381TIP3    H152558   4.869   0.449  14.173  0.4172 -1.7547  0.2577
10381TIP3    H252559   4.962   0.414  14.059 -0.1443 -1.9127 -0.1541
10382TIP3   OH252560   0.604   4.420  16.476  0.3599  0.0519 -0.3554
10382TIP3    H152561   0.657   4.472  16.536 -0.1011 -0.3040  0.3615
10382TIP3    H252562   0.665   4.354  16.442  0.2007 -0.8079  1.0208
10383TIP3   OH252563   4.967   6.017   5.689  0.3005  0.2218 -0.3320
10383TIP3    H152564   4.956   5.983   5.778 -2.3086  1.0738 -0.2639
10383TIP3    H252565   4.899   5.972   5.638  0.0735  1.6288 -1.3136
10384TIP3   OH252566   3.959   1.252   2.811 -0.1009 -0.3048 -0.0616
10384TIP3    H152567   3.908   1.275   2.733  0.5884 -0.9248 -0.6976
10384TIP3    H252568   3.971   1.335   2.856  3.0616  0.8218 -2.7572
10385TIP3   OH252569   1.382   1.493   3.576 -0.1182 -0.1181  0.5637
10385TIP3    H152570   1.473   1.506   3.602  0.0731 -1.2704  0.5075
10385TIP3    H252571   1.375   1.399   3.560 -1.3891 -0.0819  0.8347
10386TIP3   OH252572   2.501   1.789   3.214 -0.0540  0.1568 -0.2486
10386TIP3    H152573   2.570   1.738   3.172  0.9178 -0.0223  1.4842
10386TIP3    H252574   2.541   1.875   3.229 -0.8135  0.6168 -0.8399
10387TIP3   OH252575   0.443   2.161   2.369 -0.2378  0.2490 -0.4518
10387TIP3    H152576   0.363   2.129   2.410  0.2587 -0.8327 -0.3237
10387TIP3    H252577   0.421   2.168   2.276 -0.9736  1.5112 -0.1968
10388TIP3   OH252578   0.332   2.389  14.110 -0.7372  0.4647  0.3582
10388TIP3    H152579   0.346   2.355  14.198  1.5990  0.7237  0.1411
10388TIP3    H252580   0.385   2.469  14.106 -0.9114  0.5298 -1.2323
10389TIP3   OH252581   3.282   5.195  16.803 -0.1404  0.4481 -0.1107
10389TIP3    H152582   3.228   5.246  16.743  0.7217  0.6681 -0.7076
10389TIP3    H252583   3.284   5.107  16.766 -1.5601 -0.0183  0.8757
10390TIP3   OH252584   5.614   1.701   4.737  0.3119  0.0616 -0.3794
10390TIP3    H152585   5.535   1.647   4.743  1.5293 -1.6848  0.2847
10390TIP3    H252586   5.599   1.757   4.661 -1.6845 -0.0437 -0.0975
10391TIP3   OH252587   2.839   6.263  13.805 -0.0439  0.6309  0.1660
10391TIP3    H152588   2.816   6.334  13.865 -1.3745  0.3940 -0.0442
10391TIP3    H252589   2.934   6.265  13.800 -0.1337  3.2426 -0.8698
10392TIP3   OH252590   3.104   1.559   1.639  0.4028 -0.0982  0.6785
10392TIP3    H152591   3.196   1.536   1.625  0.6853  1.3259  0.0277
10392TIP3    H252592   3.055   1.499   1.583  1.0710  0.4138 -0.4743
10393TIP3   OH252593   1.467   4.513   4.575  0.2638 -0.2392 -0.2453
10393TIP3    H152594   1.448   4.434   4.626  0.2980 -1.1808 -1.6812
10393TIP3    H252595   1.449   4.488   4.484  4.1488  0.1302 -1.1823
10394TIP3   OH252596   2.611   5.773   1.981  0.1736  0.1598 -0.1484
10394TIP3    H152597   2.585   5.740   1.896  0.7131 -0.0522 -0.2350
10394TIP3    H252598   2.529   5.785   2.029 -0.2673  1.9128 -1.2824
10395TIP3   OH252599   1.951   0.270  11.781 -0.0857 -0.7339  0.1161
10395TIP3    H152600   1.935   0.288  11.873  0.5798 -0.5799  0.2023
10395TIP3    H252601   2.029   0.322  11.759 -0.1014 -0.9516 -0.4666
10396TIP3   OH252602   5.002   6.350   1.093 -0.2964 -0.5185 -0.3659
10396TIP3    H152603   4.981   6.408   1.166  1.4840  0.1743 -0.3947
10396TIP3    H252604   5.012   6.263   1.133 -1.8220 -0.6225 -0.1676
10397TIP3   OH252605   3.485   6.187  13.232  0.1300  0.2028 -0.7055
10397TIP3    H152606   3.489   6.244  13.156 -0.5858  1.2443  0.0151
10397TIP3    H252607   3.475   6.099  13.197  2.1593  0.4160 -1.8625
10398TIP3   OH252608   3.468   0.771  16.082 -0.3729 -0.0900 -0.3562
10398TIP3    H152609   3.383   0.729  16.075 -0.0266 -0.8474 -0.0472
10398TIP3    H252610   3.523   0.724  16.019 -0.2880  0.6759 -0.8653
10399TIP3   OH252611   5.312   4.891   1.713 -0.0545  0.5864  0.3426
10399TIP3    H152612   5.225   4.851   1.703 -0.1969  0.9224  0.2292
10399TIP3    H252613   5.328   4.891   1.807 -0.1966  0.5649  0.3671
10400TIP3   OH252614   1.960   5.419   3.186  0.4811  0.1026 -0.3356
10400TIP3    H152615   1.971   5.411   3.091  0.0312 -2.1318 -0.2180
10400TIP3    H252616   1.992   5.507   3.206  1.5711  0.2171 -2.4164
10401TIP3   OH252617   2.420   3.832   5.323  0.1492 -0.4192 -0.4777
10401TIP3    H152618   2.441   3.808   5.413  1.0815 -1.7106 -1.0221
10401TIP3    H252619   2.327   3.810   5.313  0.3263 -1.3447 -0.1612
10402TIP3   OH252620   5.198   6.314  17.224 -0.1753 -0.0918  0.0937
10402TIP3    H152621   5.194   6.409  17.215  1.7913  0.0707  0.7783
10402TIP3    H252622   5.175   6.297  17.316  0.7023 -0.1646  0.3079
10403TIP3   OH252623   4.824   5.972  15.309 -0.3339  0.2611 -0.6504
10403TIP3    H152624   4.840   5.903  15.373 -0.4610 -1.4145 -2.3792
10403TIP3    H252625   4.897   6.033  15.320  0.3000 -0.6455  0.2350
10404TIP3   OH252626   6.287   2.510  17.202  0.0689 -0.3721  0.8268
10404TIP3    H152627   6.232   2.575  17.245 -0.4448 -1.5518  1.9894
10404TIP3    H252628   6.365   2.505  17.257  0.3732 -0.2981  0.4005
10405TIP3   OH252629   4.476   1.998   3.886  0.1612  0.0580  0.3341
10405TIP3    H152630   4.388   2.036   3.885 -0.5213 -1.4839 -0.6950
10405TIP3    H252631   4.513   2.021   3.801  0.5957  0.3339  0.5957
10406TIP3   OH252632   5.360   5.835  17.212 -0.0467  0.4107 -0.2100
10406TIP3    H152633   5.316   5.799  17.290 -0.2754  1.2852  0.0683
10406TIP3    H252634   5.301   5.903  17.180  0.5264  0.7489 -0.5586
10407TIP3   OH252635   2.992   5.459   5.318  0.3886  0.4620  0.6959
10407TIP3    H152636   2.964   5.500   5.399 -1.7359 -0.3934  0.4259
10407TIP3    H252637   3.030   5.530   5.266  0.6490  1.2315  1.9296
10408TIP3   OH252638   5.140   5.369  12.976 -0.1030  0.1042  0.5013
10408TIP3    H152639   5.068   5.350  13.036  0.2339  0.0236  0.8802
10408TIP3    H252640   5.158   5.285  12.933  0.7398 -0.2129  1.4706
10409TIP3   OH252641   2.622   4.437  16.945  0.3990 -0.1826  0.2947
10409TIP3    H152642   2.691   4.497  16.919  0.9872 -0.7617  0.5098
10409TIP3    H252643   2.616   4.446  17.040 -0.5651  0.6617  0.1594
10410TIP3   OH252644   5.372   2.300  16.909 -0.5110 -0.4938 -0.1674
10410TIP3    H152645   5.287   2.296  16.953 -0.9242 -1.1087 -1.0035
10410TIP3    H252646   5.352   2.334  16.822 -0.1229 -2.1463 -0.9088
10411TIP3   OH252647   3.978   3.918  14.837  0.3055 -0.0760 -0.3388
10411TIP3    H152648   4.069   3.898  14.814  0.5053  0.3054  0.1036
10411TIP3    H252649   3.954   3.851  14.901  0.9840  1.0566  1.1644
10412TIP3   OH252650   3.587   1.224   4.324 -0.2295 -0.0424 -0.4121
10412TIP3    H152651   3.659   1.222   4.388 -1.1689 -0.8503  0.6399
10412TIP3    H252652   3.590   1.138   4.282 -0.5015 -0.0231 -0.4682
10413TIP3   OH252653   0.915   0.085  16.190  0.0620  0.1455  0.1075
10413TIP3    H152654   0.994   0.134  16.169 -0.3026  0.1445 -1.2953
10413TIP3    H252655   0.939  -0.007  16.178 -0.4846  0.2031 -1.5007
10414TIP3   OH252656   0.262   2.943  11.707 -0.4186 -0.1341  0.3314
10414TIP3    H152657   0.311   3.014  11.665  2.1761 -2.2604 -0.3995
10414TIP3    H252658   0.222   2.983  11.784  1.9861  1.8277  0.6050
10415TIP3   OH252659   3.283   3.361   3.346 -0.2480  0.5880 -0.1083
10415TIP3    H152660   3.271   3.267   3.329  3.0454 -0.0097  0.4177
10415TIP3    H252661   3.237   3.404   3.274 -3.5753 -1.3185  0.7595
10416TIP3   OH252662   0.145   4.482   5.939 -1.1463  0.6359  0.6014
10416TIP3    H152663   0.120   4.408   5.995  0.1847  0.1885  0.6294
10416TIP3    H252664   0.177   4.548   6.000 -0.4037  0.4393  0.4276
10417TIP3   OH252665   3.924   5.349   2.208 -0.5434 -0.0380  0.0757
10417TIP3    H152666   3.908   5.259   2.181  0.3569 -1.2592  3.3991
10417TIP3    H252667   3.930   5.398   2.126  0.0352 -3.1856 -1.8372
10418TIP3   OH252668   5.077   4.251  10.799 -0.0248 -0.4830  0.1753
10418TIP3    H152669   5.110   4.329  10.756 -1.4003  1.1394  1.9848
10418TIP3    H252670   4.982   4.254  10.787 -0.3110 -0.6590  2.1876
10419TIP3   OH252671   4.666   2.512   5.937  0.0067  0.6162 -0.2230
10419TIP3    H152672   4.666   2.419   5.917 -0.0723  0.7870 -1.0513
10419TIP3    H252673   4.647   2.517   6.031 -3.2675 -0.0983 -0.7734
10420TIP3   OH252674   2.805   5.088  13.948 -0.3088 -0.2069  0.2148
10420TIP3    H152675   2.794   5.019  14.013  2.2511  0.1594  1.0817
10420TIP3    H252676   2.795   5.170  13.997  1.2789  0.0682  0.0967
10421TIP3   OH252677   4.685   4.388  16.021 -0.1451  0.6444 -0.6268
10421TIP3    H152678   4.691   4.460  15.958  0.9294  0.5888 -0.5942
10421TIP3    H252679   4.688   4.431  16.106  0.4196  0.5734 -0.6076
10422TIP3   OH252680   4.026   1.416   5.068  0.0604 -0.6043 -0.6862
10422TIP3    H152681   3.975   1.367   5.133  0.7399 -0.3668  0.0371
10422TIP3    H252682   4.057   1.493   5.116 -0.8384  0.4487 -1.7580
10423TIP3   OH252683   1.925   5.760   2.330  0.2069 -0.3784 -0.1011
10423TIP3    H152684   1.966   5.786   2.247 -0.1377 -0.1050 -0.1855
10423TIP3    H252685   1.990   5.782   2.397  1.0404 -1.8216 -0.4065
10424TIP3   OH252686   6.189   2.608  15.248 -0.3107 -0.6815  0.3805
10424TIP3    H152687   6.238   2.530  15.222 -0.2920 -0.7349  0.5779
10424TIP3    H252688   6.192   2.664  15.171 -1.3458 -1.3729 -0.1686
10425TIP3   OH252689   3.022   5.646  12.079  0.4929 -0.3329  0.2378
10425TIP3    H152690   3.099   5.701  12.093  0.2346  0.5366 -1.6644
10425TIP3    H252691   2.950   5.696  12.116  0.8124 -1.1590  2.0437
10426TIP3   OH252692   2.815   3.654   0.002  0.4893 -0.1327  0.0807
10426TIP3    H152693   2.897   3.654  -0.046 -0.0257 -2.1419 -0.8529
10426TIP3    H252694   2.762   3.587  -0.041 -0.2148 -1.5537  3.0636
10427TIP3   OH252695   3.890   6.289  14.804 -0.6358  0.4367  0.3079
10427TIP3    H152696   3.965   6.307  14.861  0.1144 -1.9483  0.1364
10427TIP3    H252697   3.825   6.355  14.828  1.3142  2.2531  0.7995
10428TIP3   OH252698   0.039   0.362   1.978 -0.6794 -0.2747  0.1207
10428TIP3    H152699   0.102   0.308   1.932 -2.0981 -1.0583 -0.9294
10428TIP3    H252700  -0.021   0.299   2.020 -0.0576  0.4277  2.1498
10429TIP3   OH252701   4.883   2.952  15.007 -0.3200 -0.0147 -0.0645
10429TIP3    H152702   4.918   3.034  15.042 -1.3315  0.7928 -0.9438
10429TIP3    H252703   4.801   2.939  15.054 -0.3947 -0.2749 -0.2680
10430TIP3   OH252704   5.223   4.583  13.405  0.1501 -0.2859  0.0150
10430TIP3    H152705   5.294   4.546  13.353  1.5713  0.9831  1.0304
10430TIP3    H252706   5.263   4.605  13.489 -1.5670 -0.0469  0.8009
10431TIP3   OH252707   2.054   5.988  11.438  0.2270  0.6122  0.0895
10431TIP3    H152708   2.150   5.992  11.439  0.2968 -0.7805  0.3915
10431TIP3    H252709   2.026   6.074  11.469  1.3759  1.1665 -0.3691
10432TIP3   OH252710   5.927   5.264   1.614  0.0800 -0.8967  0.3219
10432TIP3    H152711   5.970   5.237   1.533  0.0111  0.4703 -0.1963
10432TIP3    H252712   5.868   5.192   1.636  0.5207 -1.5231 -0.5430
10433TIP3   OH252713   3.775   1.828   5.227 -0.0051 -0.6101 -0.0421
10433TIP3    H152714   3.697   1.882   5.217  0.0397 -0.6925 -0.8449
10433TIP3    H252715   3.743   1.747   5.265 -0.1510 -0.2229  0.6672
10434TIP3   OH252716   5.031   2.834   5.938  0.2074 -0.1601 -0.7799
10434TIP3    H152717   4.976   2.877   6.004  0.8089 -1.4976  0.6062
10434TIP3    H252718   4.969   2.785   5.884 -0.4087  1.8165 -1.9343
10435TIP3   OH252719   3.693   2.192   3.909  0.5010  0.2774 -0.7071
10435TIP3    H152720   3.615   2.153   3.869  0.9730 -0.7898 -0.5934
10435TIP3    H252721   3.747   2.220   3.835  0.1233  0.8108 -0.7863
10436TIP3   OH252722   0.667   1.722   3.665  0.1808 -0.0560  0.4335
10436TIP3    H152723   0.728   1.647   3.665  0.4294  0.1376  1.2263
10436TIP3    H252724   0.714   1.791   3.618  0.8967  0.3385  1.7054
10437TIP3   OH252725   4.650   4.012   6.044 -0.5192  0.6913  0.0405
10437TIP3    H152726   4.665   4.013   6.139  0.9608 -0.2194 -0.1615
10437TIP3    H252727   4.575   3.954   6.032  0.1403 -0.2839  0.5579
10438TIP3   OH252728   4.334   2.989   1.902 -0.0923  0.0699  0.0715
10438TIP3    H152729   4.430   2.989   1.902 -0.0910  0.5195  0.1370
10438TIP3    H252730   4.310   3.055   1.836 -0.3597 -0.5647 -0.4739
10439TIP3   OH252731   4.011   1.280   1.722  0.3283  0.5505  0.1832
10439TIP3    H152732   4.073   1.309   1.655 -0.0459 -0.3186 -0.5696
10439TIP3    H252733   4.058   1.289   1.805  1.1165  0.7948 -0.2817
10440TIP3   OH252734   5.379   5.932   3.713  0.5259  0.9804  0.5417
10440TIP3    H152735   5.329   5.860   3.675 -0.5490  0.9742  1.9513
10440TIP3    H252736   5.413   5.980   3.637 -3.1534  2.0691 -0.5036
10441TIP3   OH252737   1.194   5.556   4.885 -0.0765  0.2015 -0.0819
10441TIP3    H152738   1.178   5.504   4.963 -0.7106  1.2039  0.4659
10441TIP3    H252739   1.110   5.599   4.867  0.3926  0.9035 -0.6245
10442TIP3   OH252740   6.156   2.167  17.200 -0.4463  0.3518  0.6387
10442TIP3    H152741   6.211   2.137  17.272  0.3374  0.0431 -0.0836
10442TIP3    H252742   6.218   2.186  17.129 -1.0044  2.6788  0.7367
10443TIP3   OH252743   2.908   1.706   1.764  0.1106  0.1498 -0.1995
10443TIP3    H152744   2.964   1.651   1.709 -0.5044 -0.8293  0.1597
10443TIP3    H252745   2.932   1.683   1.854  0.4991  1.1282 -0.0448
10444TIP3   OH252746   5.226   6.562  16.737 -0.2058 -0.3345  0.0694
10444TIP3    H152747   5.167   6.487  16.744  0.6216 -0.8728  1.5305
10444TIP3    H252748   5.172   6.637  16.764 -0.2498 -0.8224  1.3915
10445TIP3   OH252749   5.131   0.857   3.496 -0.5360 -0.1248  0.2626
10445TIP3    H152750   5.216   0.836   3.534 -0.2126  2.2222  0.9020
10445TIP3    H252751   5.068   0.829   3.562 -0.1552  0.2723  0.7976
10446TIP3   OH252752   6.357   5.343  16.862  0.1790  0.1857  0.4333
10446TIP3    H152753   6.294   5.290  16.912 -0.8815  1.8115  0.8726
10446TIP3    H252754   6.304   5.413  16.824  1.9157  2.3971  1.9339
10447TIP3   OH252755   3.862   0.277  17.098  0.3587  0.2071  0.0384
10447TIP3    H152756   3.946   0.322  17.098  0.6576 -0.3461  1.2947
10447TIP3    H252757   3.884   0.185  17.115 -0.5491  0.1572  0.9529
10448TIP3   OH252758   0.123   1.240   5.944  1.0381 -0.5151 -0.4380
10448TIP3    H152759   0.113   1.251   6.038 -0.6675 -0.2998 -0.6391
10448TIP3    H252760   0.179   1.314   5.917 -0.8525  1.1116 -0.0237
10449TIP3   OH252761   5.033   5.960  16.483 -0.0976 -0.4140  0.3793
10449TIP3    H152762   5.117   5.975  16.438 -0.6373  0.8080 -0.2613
10449TIP3    H252763   5.057   5.947  16.575  0.9040 -1.4356 -0.0169
10450TIP3   OH252764   0.736   1.372   1.462 -0.6254  0.4540  0.1636
10450TIP3    H152765   0.655   1.388   1.414  0.5852  3.4251 -1.0544
10450TIP3    H252766   0.804   1.408   1.405  1.2969  0.2415  2.2644
10451TIP3   OH252767   1.118   1.745   5.277 -0.1568  0.4196 -0.4378
10451TIP3    H152768   1.057   1.818   5.266 -2.3683 -0.6758  3.5212
10451TIP3    H252769   1.100   1.687   5.203 -1.8116  1.5643 -0.9492
10452TIP3   OH252770   5.215   6.071  12.050  0.2722 -0.4195 -0.4122
10452TIP3    H152771   5.278   6.024  12.105  0.0971  1.1253  1.1397
10452TIP3    H252772   5.261   6.082  11.966  2.0016  0.5064  0.6345
10453TIP3   OH252773   1.219   6.512  12.817  0.3541  0.0598 -0.2547
10453TIP3    H152774   1.150   6.514  12.751 -0.1408  1.7212  0.2904
10453TIP3    H252775   1.280   6.580  12.790  1.1596 -0.5830 -0.0705
10454TIP3   OH252776   1.833   1.260   3.198  0.1823 -0.0489  0.1014
10454TIP3    H152777   1.769   1.257   3.127  1.0145  1.7957 -0.7548
10454TIP3    H252778   1.903   1.201   3.169  0.5973  0.8293 -0.6836
10455TIP3   OH252779   5.848   5.335   2.274  0.1096  0.4044 -0.2494
10455TIP3    H152780   5.770   5.385   2.297 -0.2548 -0.0565 -0.4826
10455TIP3    H252781   5.871   5.288   2.354  0.2973  0.7306 -0.1083
10456TIP3   OH252782   6.681   2.136   6.591 -0.1126  0.5611  0.1628
10456TIP3    H152783   6.676   2.072   6.661  1.9129  1.8129  1.4963
10456TIP3    H252784   6.611   2.199   6.611 -1.0683 -0.3622 -0.2680
10457TIP3   OH252785   5.900   3.357  12.194 -0.5855  0.3592  0.4980
10457TIP3    H152786   5.950   3.276  12.203 -0.6220  0.1848 -0.7999
10457TIP3    H252787   5.887   3.367  12.100 -2.2569  0.8617  0.7677
10458TIP3   OH252788   4.612   2.633  15.518  0.0716 -0.5563  0.3956
10458TIP3    H152789   4.621   2.566  15.586 -0.4560 -0.9901  0.0483
10458TIP3    H252790   4.651   2.711  15.556 -0.5951 -0.6816  1.3776
10459TIP3   OH252791   4.472   1.945  14.708 -0.1100  0.3061 -0.2769
10459TIP3    H152792   4.382   1.927  14.681  0.7989 -1.2697 -2.3925
10459TIP3    H252793   4.511   1.989  14.632  1.6138 -1.3403 -0.3773
10460TIP3   OH252794   4.309   4.142   5.254  0.3301  0.2623  0.1118
10460TIP3    H152795   4.270   4.055   5.263 -1.3672  1.0108  0.1172
10460TIP3    H252796   4.293   4.167   5.163 -1.6797  1.7234  0.8370
10461TIP3   OH252797   1.018   4.318   5.443 -0.8137 -0.0945 -0.0742
10461TIP3    H152798   1.005   4.232   5.481  2.7381 -0.2901  0.8632
10461TIP3    H252799   1.037   4.375   5.518 -1.1071  1.0857 -0.8759
10462TIP3   OH252800   0.383   2.058  15.907  0.0216 -0.0123  0.3958
10462TIP3    H152801   0.440   2.089  15.837 -0.0841  1.0572  0.7776
10462TIP3    H252802   0.433   2.076  15.987 -0.3758 -0.1261  0.6689
10463TIP3   OH252803   3.418   0.942  15.854  0.6609 -0.0399 -0.1259
10463TIP3    H152804   3.378   0.859  15.828  1.1081 -0.6734  1.1495
10463TIP3    H252805   3.441   0.930  15.946  1.4643  1.2146 -0.1415
10464TIP3   OH252806   1.980   4.161   2.743  0.2329  0.0735  0.2155
10464TIP3    H152807   1.929   4.108   2.682 -0.0416  1.5256 -0.8418
10464TIP3    H252808   1.996   4.243   2.696  1.8353  0.4038  1.2929
10465TIP3   OH252809   4.885   4.738   4.031 -0.0892 -0.7540  0.0408
10465TIP3    H152810   4.797   4.762   4.002 -0.3827 -1.1271  0.6182
10465TIP3    H252811   4.931   4.822   4.040 -0.4084 -0.5543 -0.1823
10466TIP3   OH252812   5.239   5.809  11.670  0.2981 -0.3139  0.1929
10466TIP3    H152813   5.166   5.852  11.626  0.4445 -0.2897 -0.0264
10466TIP3    H252814   5.225   5.715  11.654 -0.4427 -0.4085  1.3232
10467TIP3   OH252815   5.120   0.765  12.817 -0.1542 -0.1584  0.6891
10467TIP3    H152816   5.142   0.682  12.859  0.0331  0.6279  2.1898
10467TIP3    H252817   5.202   0.813  12.814  0.1036 -0.7135 -1.8120
10468TIP3   OH252818   3.653   1.855   6.384  0.0845 -0.1934  0.6510
10468TIP3    H152819   3.610   1.922   6.332 -0.8529 -0.5353  0.9700
10468TIP3    H252820   3.734   1.837   6.337  0.7292  1.7175  0.9854
10469TIP3   OH252821   2.817   0.533  15.920 -0.4596 -0.6353  0.1550
10469TIP3    H152822   2.878   0.472  15.879 -0.5336 -0.0238 -0.8976
10469TIP3    H252823   2.839   0.531  16.013 -1.2962 -3.2186  0.3442
10470TIP3   OH252824   2.663   1.089   0.409  0.4042 -0.0580 -0.7510
10470TIP3    H152825   2.652   1.079   0.504  2.7981 -0.5591 -0.4874
10470TIP3    H252826   2.636   1.179   0.391 -1.0914 -0.2980  0.2268
10471TIP3   OH252827   3.008   3.628   0.400  0.2532 -0.4066  0.2620
10471TIP3    H152828   2.923   3.656   0.434 -0.6532 -1.6491 -0.9620
10471TIP3    H252829   3.069   3.695   0.432 -1.2412  0.7527  0.7615
10472TIP3   OH252830   2.560   6.569  11.654 -0.0620  0.0456  0.0943
10472TIP3    H152831   2.539   6.627  11.727  1.0713  0.3202  0.2155
10472TIP3    H252832   2.588   6.487  11.695 -2.1459 -0.7734 -0.0844
10473TIP3   OH252833   0.753   0.591  14.693  0.2343 -0.0266 -0.0325
10473TIP3    H152834   0.686   0.655  14.719 -1.9007 -1.4110 -2.0232
10473TIP3    H252835   0.832   0.644  14.682 -1.2903  2.1692 -0.8856
10474TIP3   OH252836   0.169   4.007  16.921  0.4098 -0.2047  0.0288
10474TIP3    H152837   0.201   4.004  17.012 -0.2565 -0.7821  0.2502
10474TIP3    H252838   0.224   3.945  16.874 -0.5088 -1.3455  0.4485
10475TIP3   OH252839   1.566   1.402  10.494  0.0814  0.6758  0.3364
10475TIP3    H152840   1.504   1.466  10.528 -1.3706 -1.2552  1.4287
10475TIP3    H252841   1.602   1.359  10.572 -1.0089 -1.6982 -0.4286
10476TIP3   OH252842   1.664   6.199   2.213 -1.0430  0.3288  0.0255
10476TIP3    H152843   1.645   6.138   2.285  3.1453  0.0858  1.0859
10476TIP3    H252844   1.622   6.281   2.239 -2.9265 -0.8581  0.8063
10477TIP3   OH252845   6.392   6.363   3.906  0.0485 -0.2045 -0.4970
10477TIP3    H152846   6.392   6.318   3.821  0.6023 -1.3346  0.0857
10477TIP3    H252847   6.311   6.333   3.948 -0.3502  0.5511 -0.7316
10478TIP3   OH252848   3.565   6.673   0.201  0.3250  0.0122 -0.0639
10478TIP3    H152849   3.583   6.657   0.108  1.8920 -3.2823  0.7308
10478TIP3    H252850   3.480   6.630   0.216 -0.1021  0.8558 -0.0212
10479TIP3   OH252851   4.578   2.330   2.196  0.0567  0.0183  0.2735
10479TIP3    H152852   4.621   2.355   2.277  0.6792  0.7870 -0.2824
10479TIP3    H252853   4.577   2.234   2.197 -0.2248  0.0262  1.3293
10480TIP3   OH252854   6.062   0.274  15.716  0.1107 -0.8357  0.3506
10480TIP3    H152855   6.146   0.304  15.751  0.6440 -0.2266 -1.4212
10480TIP3    H252856   6.003   0.347  15.730  0.7755  0.1090 -1.6361
10481TIP3   OH252857   2.928   2.706  13.933 -0.7300  0.0849 -0.2096
10481TIP3    H152858   2.917   2.674  14.022 -0.8846 -0.4426 -0.4172
10481TIP3    H252859   2.972   2.791  13.943 -1.1552  0.2322  0.3851
10482TIP3   OH252860   5.116   0.895   1.586  0.1329  0.1398  0.0847
10482TIP3    H152861   5.164   0.905   1.668  0.9792 -1.2005 -0.2274
10482TIP3    H252862   5.178   0.924   1.519  0.0866 -0.4464 -0.2174
10483TIP3   OH252863   5.678   2.984  13.885 -0.5857 -0.7343 -0.4691
10483TIP3    H152864   5.641   3.003  13.972 -0.2469 -0.1062 -0.4604
10483TIP3    H252865   5.765   2.949  13.904  0.7629  2.3556 -0.6405
10484TIP3   OH252866   6.133   6.132   2.455 -0.1719 -0.3547 -0.1976
10484TIP3    H152867   6.106   6.051   2.411 -0.4106 -0.0451 -0.6204
10484TIP3    H252868   6.051   6.171   2.484 -0.0794 -0.0865 -0.3016
10485TIP3   OH252869   4.818   4.946  11.384 -0.0242  0.4443  0.4313
10485TIP3    H152870   4.812   4.961  11.479  1.1161  1.6695  0.3213
10485TIP3    H252871   4.731   4.913  11.360 -0.4813  0.5928  1.8263
10486TIP3   OH252872   5.497   5.850   6.267 -0.5121  0.2450  1.0660
10486TIP3    H152873   5.452   5.932   6.287  0.3106  0.9971 -0.1156
10486TIP3    H252874   5.588   5.876   6.251 -0.4045 -0.8048 -0.0755
10487TIP3   OH252875   5.803   0.012   4.524  0.4034  0.3443  0.0315
10487TIP3    H152876   5.742   0.000   4.451  0.0679 -1.2518  0.5499
10487TIP3    H252877   5.753   0.062   4.589  0.5491  1.3662 -0.6218
10488TIP3   OH252878   2.548   1.490   3.591 -0.1714  0.4226  0.2942
10488TIP3    H152879   2.566   1.396   3.596 -0.0654  0.3845 -0.7016
10488TIP3    H252880   2.561   1.522   3.680  0.1369 -0.4476  0.5645
10489TIP3   OH252881   6.395   5.148   5.969 -0.0570 -0.3520 -0.5416
10489TIP3    H152882   6.474   5.096   5.955 -0.9648 -1.6481 -0.9940
10489TIP3    H252883   6.381   5.145   6.064 -0.9424 -2.2396 -0.7043
10490TIP3   OH252884   4.330   6.016   2.497 -0.1399  0.8236 -0.4927
10490TIP3    H152885   4.391   6.032   2.425  0.1558  0.6836 -0.2790
10490TIP3    H252886   4.283   6.098   2.508 -0.1938  0.8415 -0.8529
10491TIP3   OH252887   1.512   1.706   1.422  0.0189 -0.5149  0.2180
10491TIP3    H152888   1.499   1.665   1.336 -0.5522  1.7568 -0.7995
10491TIP3    H252889   1.460   1.787   1.419  2.0196  0.8742  1.7924
10492TIP3   OH252890   2.714   0.910   4.794  0.0901  0.1085 -0.2259
10492TIP3    H152891   2.632   0.869   4.821  0.7015 -1.6646 -1.0138
10492TIP3    H252892   2.687   0.986   4.743 -1.0878 -1.0885 -1.4457
10493TIP3   OH252893   0.757   2.554   5.420 -0.0316 -0.0230 -0.4113
10493TIP3    H152894   0.836   2.529   5.372  0.9327  2.6471 -0.2632
10493TIP3    H252895   0.728   2.635   5.379 -3.0233 -1.2265 -0.7991
10494TIP3   OH252896   0.162   2.529   5.262 -0.3059  0.0590 -0.0112
10494TIP3    H152897   0.252   2.559   5.245  0.0942 -0.9798  0.2428
10494TIP3    H252898   0.144   2.558   5.351  0.2181 -0.7536  0.3684
10495TIP3   OH252899   1.154   6.519   3.612 -0.0432  0.0094  0.0740
10495TIP3    H152900   1.156   6.576   3.689  1.6447  1.8064 -1.2500
10495TIP3    H252901   1.241   6.528   3.574 -1.0940 -0.2720 -2.4502
10496TIP3   OH252902   6.135   4.890   4.289  0.3449  0.3021 -0.4407
10496TIP3    H152903   6.188   4.811   4.290  0.4904  0.3817 -1.3177
10496TIP3    H252904   6.185   4.953   4.237  0.2913  1.0218  0.3531
10497TIP3   OH252905   3.390   3.387  14.603 -0.2475 -0.1553  0.1128
10497TIP3    H152906   3.485   3.375  14.597 -0.4794 -2.0091  0.1013
10497TIP3    H252907   3.358   3.369  14.514 -0.8730 -2.0087  0.6978
10498TIP3   OH252908   5.656   1.154  16.669 -0.0249 -0.2639  0.1167
10498TIP3    H152909   5.578   1.123  16.624 -0.3985  0.6480  0.1207
10498TIP3    H252910   5.645   1.249  16.674  1.5714 -0.0157 -0.8083
10499TIP3   OH252911   1.093   1.997   2.531 -0.7316 -0.5408  0.2357
10499TIP3    H152912   1.030   2.046   2.585 -1.5676 -1.9543  0.5746
10499TIP3    H252913   1.095   2.045   2.448  0.0286  1.2487  1.2488
10500TIP3   OH252914   3.045   0.370  16.383 -0.6835  0.5180  0.2095
10500TIP3    H152915   2.997   0.325  16.452 -0.8715  0.2230 -0.1122
10500TIP3    H252916   3.114   0.308  16.357  0.0610  1.0530  0.8703
10501TIP3   OH252917   3.346   1.595  16.772  0.7247 -0.1196 -0.2675
10501TIP3    H152918   3.257   1.619  16.799  1.8011  0.4127  3.0699
10501TIP3    H252919   3.353   1.502  16.791  1.3754  0.1801  1.0116
10502TIP3   OH252920   5.433   1.607  14.031  0.2697 -0.2536  0.3017
10502TIP3    H152921   5.406   1.555  13.955 -1.0421  1.3704 -0.3652
10502TIP3    H252922   5.354   1.656  14.055  2.5973  4.8730 -1.8720
10503TIP3   OH252923   6.771   2.370  11.582 -0.6516 -0.5421 -0.1100
10503TIP3    H152924   6.676   2.386  11.581 -0.5847 -0.0674  0.6272
10503TIP3    H252925   6.799   2.398  11.669  0.0107 -1.6049  0.0196
10504TIP3   OH252926   2.577   1.374  13.203  0.3417 -0.3045  0.6292
10504TIP3    H152927   2.613   1.462  13.187 -2.8581  1.1024  0.8216
10504TIP3    H252928   2.602   1.355  13.294 -1.2065  1.5704  1.4815
10505TIP3   OH252929   2.373   0.345  15.950  0.0842  0.2040 -0.3315
10505TIP3    H152930   2.285   0.337  15.986  0.3427 -1.7147 -0.0733
10505TIP3    H252931   2.385   0.266  15.898  2.5210 -0.7553  1.5897
10506TIP3   OH252932   5.198   6.244   3.195  0.4145  0.5089  0.4549
10506TIP3    H152933   5.284   6.254   3.154  0.7230 -1.4929  0.5482
10506TIP3    H252934   5.164   6.333   3.203  3.6351  1.6301  2.8425
10507TIP3   OH252935   0.491   6.033  11.549 -0.3687 -0.3822  0.3808
10507TIP3    H152936   0.496   6.034  11.453 -1.0688 -0.4444  0.3472
10507TIP3    H252937   0.557   5.969  11.576 -0.6591 -0.8765 -0.0842
10508TIP3   OH252938   1.643   1.497   2.344  0.0175 -0.2797  0.3216
10508TIP3    H152939   1.602   1.411   2.349  0.3822 -0.4697  0.0664
10508TIP3    H252940   1.685   1.500   2.258  0.2970  0.0193  0.4618
10509TIP3   OH252941   0.348   3.491  12.257 -0.2294  0.6411 -0.2256
10509TIP3    H152942   0.313   3.578  12.276 -1.8555 -0.2601  1.0956
10509TIP3    H252943   0.442   3.499  12.270 -0.2571  2.3923 -0.9235
10510TIP3   OH252944   2.123   5.012  13.625  0.8074  0.0305  0.5205
10510TIP3    H152945   2.157   5.071  13.557 -0.4904 -0.0330 -0.1888
10510TIP3    H252946   2.044   5.055  13.657 -0.8311 -1.8962 -0.8498
10511TIP3   OH252947   6.043   3.478  16.607  0.5165 -0.5228 -0.1087
10511TIP3    H152948   6.072   3.455  16.695  0.5319  0.5055  0.1678
10511TIP3    H252949   6.068   3.570  16.597 -1.0246 -0.1196 -0.5234
10512TIP3   OH252950   3.232   4.645   4.973 -0.1765 -0.3787  0.3700
10512TIP3    H152951   3.139   4.664   4.975 -0.4491 -1.6442 -0.1840
10512TIP3    H252952   3.260   4.653   5.064 -1.2405 -1.9497  0.8633
10513TIP3   OH252953   4.802   4.656   1.618  0.0284 -0.0699  0.1317
10513TIP3    H152954   4.728   4.598   1.632  0.6623 -1.3908 -1.6838
10513TIP3    H252955   4.873   4.597   1.591  1.2285  1.3517  0.1313
10514TIP3   OH252956   4.177   2.584   3.417  0.1090 -0.9013  0.3939
10514TIP3    H152957   4.243   2.624   3.475  0.0308  1.3293 -1.0326
10514TIP3    H252958   4.224   2.567   3.336 -1.0075  0.4049 -0.5250
10515TIP3   OH252959   3.027   4.347  16.309  0.5959  0.3271 -0.1625
10515TIP3    H152960   3.079   4.359  16.388 -0.3128  0.3122  0.4401
10515TIP3    H252961   2.946   4.394  16.326 -0.1023 -0.6950 -0.5956
10516TIP3   OH252962   5.650   5.164  14.770  0.6219 -0.2116 -0.3386
10516TIP3    H152963   5.648   5.169  14.866 -3.1170  1.4297 -0.4207
10516TIP3    H252964   5.581   5.101  14.748 -0.7764  1.8548 -2.0293
10517TIP3   OH252965   0.947   3.631   2.704 -0.4193 -0.2034  0.5197
10517TIP3    H152966   0.905   3.713   2.729  0.6037  1.0317 -1.7136
10517TIP3    H252967   0.885   3.589   2.645  0.9136  1.0837 -1.8659
10518TIP3   OH252968   3.893   1.124  11.518 -0.1424  0.1417  0.6842
10518TIP3    H152969   3.803   1.111  11.547 -0.4564  0.7175 -0.0172
10518TIP3    H252970   3.914   1.214  11.543 -0.2767  0.5035 -0.4990
10519TIP3   OH252971   0.742   5.228   2.266  0.4039 -0.2289 -0.0915
10519TIP3    H152972   0.701   5.259   2.185 -0.1959 -0.5959  0.0696
10519TIP3    H252973   0.696   5.275   2.335 -1.3437 -2.3530  0.2300
10520TIP3   OH252974   3.741   2.042  16.223  0.3605  0.1956 -0.0639
10520TIP3    H152975   3.808   1.980  16.194 -2.8789 -3.9596  0.7389
10520TIP3    H252976   3.725   2.019  16.314 -2.9376  0.2731 -0.5561
10521TIP3   OH252977   2.269   1.223   5.902 -0.6274 -0.1532  0.0157
10521TIP3    H152978   2.283   1.315   5.926 -1.8994  0.1063 -0.1934
10521TIP3    H252979   2.300   1.174   5.978 -0.0177  0.4522  0.1654
10522TIP3   OH252980   6.603   2.746  13.450 -0.3374  0.1100  0.1595
10522TIP3    H152981   6.653   2.827  13.462 -0.3005  0.0237  0.5934
10522TIP3    H252982   6.530   2.753  13.511 -0.4483 -0.0958  0.0532
10523TIP3   OH252983   5.777   3.850   2.628 -0.3282 -0.2788  0.0367
10523TIP3    H152984   5.778   3.944   2.611 -0.1746 -0.3518 -0.3613
10523TIP3    H252985   5.784   3.842   2.723  1.3417  0.0705 -0.0404
10524TIP3   OH252986   6.689   1.946  11.780 -0.5494 -0.1840 -0.3813
10524TIP3    H152987   6.748   2.018  11.757 -0.8559  0.2127  0.0574
10524TIP3    H252988   6.747   1.875  11.808 -0.2902  0.3633  0.4964
10525TIP3   OH252989   0.530   2.159  16.140  0.9158 -0.0711 -0.0570
10525TIP3    H152990   0.548   2.235  16.194  3.0848 -2.3014  2.4987
10525TIP3    H252991   0.600   2.158  16.075 -0.8098  1.7314 -2.0165
10526TIP3   OH252992   1.185   0.148  16.148 -0.0857  0.1282  0.2685
10526TIP3    H152993   1.217   0.099  16.224 -0.9600  1.6420  1.6479
10526TIP3    H252994   1.233   0.112  16.074  0.2842 -1.8589  1.4386
10527TIP3   OH252995   3.095   5.290   4.491 -0.1750  0.0357  0.4166
10527TIP3    H152996   3.156   5.324   4.557  1.7896 -0.6935 -0.9870
10527TIP3    H252997   3.109   5.195   4.492 -0.4433 -0.0190 -0.7272
10528TIP3   OH252998   4.572   4.931  11.234 -0.1340 -0.0441 -0.5568
10528TIP3    H152999   4.489   4.892  11.259  0.5685 -2.0181 -1.2505
10528TIP3    H253000   4.569   4.935  11.138  0.9244 -0.9195 -0.6319
10529TIP3   OH253001   3.310   1.182  15.545 -0.4325  0.7974  0.7491
10529TIP3    H153002   3.220   1.202  15.519 -0.5842 -1.9638 -1.0344
10529TIP3    H253003   3.362   1.251  15.504 -1.6510  1.9515  1.1045
10530TIP3   OH253004   6.428   6.198   3.220  0.0007  0.6970 -0.5666
10530TIP3    H153005   6.435   6.273   3.161 -0.4688 -0.5095 -2.1717
10530TIP3    H253006   6.334   6.187   3.234  0.0642  0.3160 -0.4408
10531TIP3   OH253007   1.824   0.552  12.672  0.5226 -0.2036 -0.5015
10531TIP3    H153008   1.827   0.635  12.625 -0.6552 -0.1489 -0.4950
10531TIP3    H253009   1.735   0.546  12.705  0.7747 -1.1811  0.0306
10532TIP3   OH253010   5.805   3.269   0.649  0.1763 -0.1355 -0.4329
10532TIP3    H153011   5.789   3.241   0.739  1.9824  1.4413  0.4112
10532TIP3    H253012   5.720   3.301   0.618  0.1190  1.7184  1.5874
10533TIP3   OH253013   2.350   4.195   2.499  0.2444  0.5326  0.4439
10533TIP3    H153014   2.275   4.248   2.472  0.2540  0.2776 -0.0991
10533TIP3    H253015   2.342   4.114   2.448  2.1083  1.3868 -1.2973
10534TIP3   OH253016   0.678   2.301   2.813 -0.8041 -0.7869 -0.2107
10534TIP3    H153017   0.772   2.298   2.796 -1.0609 -2.3382 -1.3580
10534TIP3    H253018   0.640   2.340   2.734 -1.2766 -1.5484 -0.3639
10535TIP3   OH253019   0.128   0.365   5.652  0.1493 -0.3323 -0.1050
10535TIP3    H153020   0.196   0.391   5.714  0.3980 -0.0196 -0.5075
10535TIP3    H253021   0.125   0.269   5.659  1.3863 -0.4492 -0.8617
10536TIP3   OH253022   0.330   4.153  10.887  0.1263  0.2605  1.3210
10536TIP3    H153023   0.388   4.119  10.819  0.1535  0.4164  1.2661
10536TIP3    H253024   0.378   4.226  10.926 -0.6751  1.3963  0.2186
10537TIP3   OH253025   2.052   0.536   4.116 -0.0829  0.2774  0.5042
10537TIP3    H153026   1.979   0.575   4.165 -0.7149  1.7214 -1.5599
10537TIP3    H253027   2.048   0.577   4.030  2.4933 -0.4765  0.0035
10538TIP3   OH253028   1.169   4.208  16.791 -0.6817 -0.1191 -0.2545
10538TIP3    H153029   1.239   4.236  16.850 -1.3548  0.6593  0.1813
10538TIP3    H253030   1.214   4.158  16.723  0.0706 -1.2529  1.0549
10539TIP3   OH253031   1.183   3.613   2.230  0.6419  0.4485  0.0418
10539TIP3    H153032   1.143   3.698   2.209  1.2889  0.5687 -0.7015
10539TIP3    H253033   1.167   3.603   2.324  1.7455  2.0305  0.4180
10540TIP3   OH253034   2.344   5.891   5.207  0.3010  0.2330 -0.1410
10540TIP3    H153035   2.323   5.897   5.300  0.4559  2.0899 -0.2065
10540TIP3    H253036   2.338   5.798   5.187 -2.2589  0.0756  1.1381
10541TIP3   OH253037   6.485   1.090  12.541  0.2740 -0.3637  0.6602
10541TIP3    H153038   6.426   1.164  12.553  1.1322  0.3887  0.2527
10541TIP3    H253039   6.553   1.103  12.607  1.8550  0.6469 -1.1289
10542TIP3   OH253040   5.450   4.699   5.846  0.4352 -0.0407  0.1865
10542TIP3    H153041   5.519   4.756   5.814 -1.6632  1.7337 -1.3221
10542TIP3    H253042   5.462   4.697   5.941  1.1706  2.0578  0.1496
10543TIP3   OH253043   4.571   4.758  12.015  0.8570  0.8944 -0.3399
10543TIP3    H153044   4.487   4.713  12.018  1.1532  0.2728 -1.0477
10543TIP3    H253045   4.620   4.724  12.090  1.9460 -1.7591 -2.1537
10544TIP3   OH253046   2.504   6.605  11.045 -0.1285 -0.5642 -0.0341
10544TIP3    H153047   2.415   6.608  11.009 -0.8412  0.4917  1.7431
10544TIP3    H253048   2.561   6.601  10.968 -1.6652  0.2576 -1.2441
10545TIP3   OH253049   4.764   0.962   5.730  0.2271 -0.0130 -0.4467
10545TIP3    H153050   4.761   1.058   5.726 -0.6089  0.0652  1.6478
10545TIP3    H253051   4.857   0.941   5.725  0.4976  0.9793  0.2583
10546TIP3   OH253052   4.295   5.494  16.894 -0.1100  1.0404 -0.3189
10546TIP3    H153053   4.325   5.484  16.804 -0.8753 -2.5902 -0.2383
10546TIP3    H253054   4.328   5.417  16.940 -2.7458  0.9900  1.6470
10547TIP3   OH253055   1.192   0.336  13.589  0.0714  1.1675  0.1098
10547TIP3    H153056   1.112   0.388  13.576 -1.5941 -1.3848 -0.3164
10547TIP3    H253057   1.214   0.350  13.681 -1.2760  1.3894  0.4168
10548TIP3   OH253058   2.019   3.595  16.954 -0.2761  0.1306  0.4523
10548TIP3    H153059   1.977   3.509  16.950 -0.5961  0.2632  0.9252
10548TIP3    H253060   2.072   3.599  16.875  0.8524 -1.0641  1.1223
10549TIP3   OH253061   1.535   1.311  12.919  0.7062 -0.0602 -0.0466
10549TIP3    H153062   1.629   1.310  12.934  0.4058  0.7464  2.0831
10549TIP3    H253063   1.526   1.322  12.824  2.7483  0.3577 -0.2164
10550TIP3   OH253064   0.391   1.608  15.973 -0.0896 -0.2703  0.0695
10550TIP3    H153065   0.389   1.662  15.894 -1.2639  0.4735  0.5958
10550TIP3    H253066   0.412   1.669  16.044  0.6137 -0.8692  0.3887
10551TIP3   OH253067   6.701   3.281   2.056 -0.4561 -0.4132  0.0910
10551TIP3    H153068   6.613   3.318   2.059 -0.0934  0.3635  1.5534
10551TIP3    H253069   6.727   3.289   1.964 -1.2456  0.9660 -0.0282
10552TIP3   OH253070   1.557   5.161  11.610 -0.0368 -0.2430  0.2079
10552TIP3    H153071   1.618   5.087  11.610  1.1264  0.6960 -0.1660
10552TIP3    H253072   1.601   5.228  11.662 -1.0479  0.2206  0.4752
10553TIP3   OH253073   5.132   0.162  12.194 -0.0229 -0.2045 -0.3641
10553TIP3    H153074   5.110   0.082  12.242  0.0793  0.2961  0.5381
10553TIP3    H253075   5.105   0.145  12.104 -1.5528 -0.6131  0.1677
10554TIP3   OH253076   2.443   0.699   1.658 -0.0280 -0.1329  0.2012
10554TIP3    H153077   2.494   0.620   1.643  1.3720  0.8249 -0.2230
10554TIP3    H253078   2.402   0.718   1.574 -0.0050 -0.1560  0.1848
10555TIP3   OH253079   6.514   4.378   5.913  0.0314  0.8235  0.6965
10555TIP3    H153080   6.597   4.330   5.920 -0.3028  0.2342  0.7180
10555TIP3    H253081   6.503   4.420   5.998 -0.9379 -1.1984  1.6190
10556TIP3   OH253082   5.686   6.454   2.476 -0.2043  0.3347  0.0514
10556TIP3    H153083   5.761   6.457   2.418  1.4466 -0.6419  2.0827
10556TIP3    H253084   5.660   6.546   2.487  0.3376  0.6283 -1.0668
10557TIP3   OH253085   4.686   3.025   0.886 -0.6132 -0.3907 -0.3351
10557TIP3    H153086   4.726   2.943   0.914 -1.2425 -1.1642 -1.6666
10557TIP3    H253087   4.745   3.057   0.817 -0.5959  0.0737 -0.1078
10558TIP3   OH253088   5.349   3.923   1.588  0.3242  0.4487  0.0223
10558TIP3    H153089   5.406   3.913   1.511  1.0629  2.0505  0.3441
10558TIP3    H253090   5.342   4.018   1.600 -0.5944  0.2207  1.3413
10559TIP3   OH253091   1.816   1.184  15.869  0.0585  0.2600 -0.2853
10559TIP3    H153092   1.766   1.127  15.927  0.6185  0.2628  0.2095
10559TIP3    H253093   1.904   1.145  15.867 -0.1206 -0.0815 -1.6132
10560TIP3   OH253094   1.472   5.601  12.325  0.0678 -0.9167 -0.0084
10560TIP3    H153095   1.402   5.660  12.300 -1.3516 -2.2677  0.7125
10560TIP3    H253096   1.551   5.641  12.288 -0.2340  3.4495  3.6432
10561TIP3   OH253097   5.239   1.341   2.781 -0.0642 -0.1240 -0.2939
10561TIP3    H153098   5.315   1.296   2.745  0.1234  1.0209 -1.3457
10561TIP3    H253099   5.198   1.384   2.706 -1.4002 -0.2235  0.3682
10562TIP3   OH253100   2.313   0.889   4.887  0.1950 -0.0341  0.1733
10562TIP3    H153101   2.284   0.863   4.799 -0.0174 -0.4418  0.3661
10562TIP3    H253102   2.236   0.927   4.928  0.5342  1.0437 -0.1538
10563TIP3   OH253103   2.409   3.653   1.942 -0.2027 -0.1043 -0.0911
10563TIP3    H153104   2.484   3.601   1.974  1.2955  1.5494 -0.8277
10563TIP3    H253105   2.384   3.611   1.861  1.3217  0.5589 -0.9375
10564TIP3   OH253106   3.021   0.545  12.405 -0.9346  0.4061  0.2235
10564TIP3    H153107   3.114   0.545  12.427 -0.4178  2.2441 -1.7951
10564TIP3    H253108   2.986   0.622  12.450 -1.4346 -0.0853  0.6933
10565TIP3   OH253109   4.138   5.166   3.869  0.2238  0.1574  0.4223
10565TIP3    H153110   4.103   5.252   3.896 -0.7175 -0.6896  1.9737
10565TIP3    H253111   4.076   5.135   3.803  1.6491  1.5146 -1.6303
10566TIP3   OH253112   6.139   4.541   5.363 -0.1697 -0.7934 -0.0525
10566TIP3    H153113   6.110   4.618   5.413  0.8556 -1.0668  0.9803
10566TIP3    H253114   6.207   4.575   5.304 -0.4621 -0.7178 -0.3496
10567TIP3   OH253115   0.440   2.954   3.979  0.7544 -0.9449  0.0001
10567TIP3    H153116   0.502   2.970   3.907  0.0107 -0.1255 -0.4678
10567TIP3    H253117   0.360   2.926   3.935 -0.0043  0.4889  0.4441
10568TIP3   OH253118   4.075   3.608  15.256 -0.0705 -0.6894 -0.0885
10568TIP3    H153119   4.124   3.528  15.237 -0.2885 -1.1731  1.3146
10568TIP3    H253120   4.109   3.637  15.341 -1.1590 -0.2142  0.1910
10569TIP3   OH253121   3.906   3.626  14.131  1.1109 -0.3166 -0.5909
10569TIP3    H153122   3.867   3.711  14.155  0.8517 -0.3441 -0.9076
10569TIP3    H253123   3.844   3.562  14.166  2.0601 -0.4020  0.9404
10570TIP3   OH253124   3.456   4.262  14.477 -0.0810  0.2741  0.0644
10570TIP3    H153125   3.539   4.250  14.522 -0.1298 -1.1903 -0.2215
10570TIP3    H253126   3.390   4.235  14.541 -0.2540  0.0769 -0.1942
10571TIP3   OH253127   0.145   4.647  12.612  0.9200  0.0365 -0.1389
10571TIP3    H153128   0.070   4.589  12.605  0.1607  0.8638  0.9693
10571TIP3    H253129   0.119   4.727  12.566  0.6536  0.7652  1.2441
10572TIP3   OH253130   3.188   3.445   2.373 -0.1951  0.3952 -0.6972
10572TIP3    H153131   3.203   3.375   2.436 -1.0784  1.3797  0.6533
10572TIP3    H253132   3.146   3.515   2.424 -0.9947  1.1977 -2.3828
10573TIP3   OH253133   0.207   5.191  15.534 -0.1229  0.3929 -0.3749
10573TIP3    H153134   0.169   5.110  15.568 -2.5170  0.2178 -3.2879
10573TIP3    H253135   0.273   5.215  15.599 -0.3327 -3.1187  1.2690
10574TIP3   OH253136   5.548   0.417   3.239 -0.2836 -0.1345  0.1903
10574TIP3    H153137   5.628   0.375   3.271  0.3233  1.7924  1.2756
10574TIP3    H253138   5.521   0.475   3.311 -1.7320  0.4646 -0.8194
10575TIP3   OH253139   0.309   6.385  11.513  0.2127 -0.3432  0.2290
10575TIP3    H153140   0.215   6.369  11.508 -0.0924  1.7205 -1.7853
10575TIP3    H253141   0.344   6.344  11.434  0.9220 -0.6363  0.7002
10576TIP3   OH253142   5.438   1.832   4.155 -0.0297  0.5742 -0.1911
10576TIP3    H153143   5.441   1.839   4.250  1.3540  1.8959 -0.3049
10576TIP3    H253144   5.504   1.767   4.133 -1.8510 -1.3233 -0.1280
10577TIP3   OH253145   1.279   5.968  16.703 -0.2870 -0.4839  0.2103
10577TIP3    H153146   1.294   6.058  16.734 -1.4440 -0.8173  1.7727
10577TIP3    H253147   1.347   5.955  16.636  0.2605  1.3497  0.3672
10578TIP3   OH253148   3.039   1.832  14.671 -0.3057 -0.1660 -0.2839
10578TIP3    H153149   2.975   1.890  14.714 -0.2038 -0.4445  0.2437
10578TIP3    H253150   3.043   1.755  14.727  0.0399 -0.4124 -0.6474
10579TIP3   OH253151   2.099   3.442  13.018 -0.1025 -0.5326 -0.2792
10579TIP3    H153152   2.076   3.351  12.999 -0.3051 -0.7191  0.7937
10579TIP3    H253153   2.194   3.440  13.032 -0.3034 -0.8640  1.1821
10580TIP3   OH253154   0.434   1.489  11.020 -0.3952  0.0416 -0.5484
10580TIP3    H153155   0.411   1.570  10.975  0.2736  0.3570 -0.3339
10580TIP3    H253156   0.388   1.420  10.971  0.5561  0.3403 -1.9004
10581TIP3   OH253157   2.587   2.343   4.665 -0.7827  0.2282 -0.0450
10581TIP3    H153158   2.624   2.394   4.737 -1.7931 -0.4962  1.0174
10581TIP3    H253159   2.597   2.252   4.694 -0.6320 -0.0995 -1.1137
10582TIP3   OH253160   0.172   2.003   4.037 -0.3042  0.2588  0.1164
10582TIP3    H153161   0.267   2.016   4.042 -0.3433  0.3437  0.7237
10582TIP3    H253162   0.151   1.955   4.118 -0.7947  0.3424  0.0361
10583TIP3   OH253163   4.708   5.396  15.640  0.3048 -0.1360 -0.4955
10583TIP3    H153164   4.711   5.338  15.564  0.3618 -1.5026  0.5271
10583TIP3    H253165   4.634   5.364  15.691  2.6679 -1.7922  2.0275
10584TIP3   OH253166   4.128   4.657  15.432 -0.0489  0.4063  0.0777
10584TIP3    H153167   4.201   4.702  15.475  0.1296  0.9928 -0.8145
10584TIP3    H253168   4.049   4.699  15.467  0.0183 -0.3335  1.1580
10585TIP3   OH253169   2.689   6.255   1.891  0.0368 -0.7145  0.4457
10585TIP3    H153170   2.704   6.162   1.908  0.8498 -0.7466 -0.4055
10585TIP3    H253171   2.777   6.294   1.888 -0.2650 -0.0304  0.2025
10586TIP3   OH253172   1.930   1.317  11.071 -0.0704 -0.5867  0.0917
10586TIP3    H153173   1.963   1.235  11.108  0.3469 -0.1338  0.7437
10586TIP3    H253174   1.961   1.316  10.980  1.3591 -0.3899  0.5619
10587TIP3   OH253175   0.245   3.749   5.987 -0.1202 -0.1227 -0.3516
10587TIP3    H153176   0.161   3.732   6.031  0.4214  0.9315  1.1223
10587TIP3    H253177   0.299   3.791   6.054  1.1668  0.3469 -1.6661
10588TIP3   OH253178   5.469   6.196  14.639  0.5202 -0.1475 -0.0323
10588TIP3    H153179   5.419   6.174  14.718  3.8260 -1.0195  1.8833
10588TIP3    H253180   5.452   6.290  14.626 -0.8254 -0.2080  1.1229
10589TIP3   OH253181   1.795   0.834   2.001  0.1711 -0.1324  0.0101
10589TIP3    H153182   1.813   0.921   1.967 -0.5794  0.4673  1.1168
10589TIP3    H253183   1.701   0.835   2.023  0.0267 -1.3926 -0.4944
10590TIP3   OH253184   3.719   6.463  16.699  0.0238 -0.6363 -0.4419
10590TIP3    H153185   3.643   6.421  16.741  0.0299  0.8248  1.0677
10590TIP3    H253186   3.791   6.451  16.761  0.5278 -0.2246 -0.9455
10591TIP3   OH253187   4.180   2.468  13.032  0.5795 -1.1969  0.5677
10591TIP3    H153188   4.178   2.449  12.938  0.9149 -0.6636  0.4508
10591TIP3    H253189   4.163   2.562  13.038 -1.0164 -1.5098  1.1396
10592TIP3   OH253190   3.297   2.464   0.946 -0.2051  0.5048 -1.0956
10592TIP3    H153191   3.306   2.413   0.865  4.3066  0.2533 -0.5469
10592TIP3    H253192   3.352   2.418   1.009 -1.5966  2.1884  1.4174
10593TIP3   OH253193   3.647   2.794   4.025 -0.5585  0.3438  0.3916
10593TIP3    H153194   3.623   2.778   3.934 -1.5455 -1.3946  0.9315
10593TIP3    H253195   3.626   2.712   4.070 -1.0546  1.5356  2.3777
10594TIP3   OH253196   4.833   1.472   6.868  0.0518  0.4433  0.4070
10594TIP3    H153197   4.862   1.451   6.779 -3.5922 -1.3436 -0.4434
10594TIP3    H253198   4.786   1.555   6.859 -0.2125  0.3227  0.6924
10595TIP3   OH253199   5.771   4.176   5.030  0.4393 -0.4762 -0.4041
10595TIP3    H153200   5.783   4.258   5.079  0.4324 -1.2586  0.9420
10595TIP3    H253201   5.858   4.154   4.998  0.6910 -0.6099  0.3501
10596TIP3   OH253202   6.721   4.780  16.187 -0.1182 -0.3269 -0.4895
10596TIP3    H153203   6.715   4.728  16.107 -0.4042  0.3785 -0.9308
10596TIP3    H253204   6.773   4.856  16.162 -0.3148 -0.0405 -0.0363
10597TIP3   OH253205   2.063   0.062  12.230  0.4324  0.2054 -0.0595
10597TIP3    H153206   1.986   0.005  12.224  0.9597 -0.5075 -0.1264
10597TIP3    H253207   2.067   0.087  12.323  0.6880 -0.5662  0.1442
10598TIP3   OH253208   6.694   1.713  15.398  0.4486  0.0628 -0.1373
10598TIP3    H153209   6.675   1.630  15.441  1.1543  0.5261  1.1264
10598TIP3    H253210   6.732   1.689  15.314 -1.9468 -0.8672 -0.9811
10599TIP3   OH253211   5.687   4.182   4.676 -0.2580 -0.2106  0.3083
10599TIP3    H153212   5.688   4.087   4.690  2.4448 -0.1456  0.8378
10599TIP3    H253213   5.779   4.206   4.665 -1.1202  1.9181 -3.0184
10600TIP3   OH253214   2.298   2.003   0.193  0.6850  0.4587 -0.3326
10600TIP3    H153215   2.234   2.068   0.221 -0.1588  0.8631 -3.0336
10600TIP3    H253216   2.248   1.921   0.188  0.6312  0.5496 -1.3695
10601TIP3   OH253217   3.154   2.671  11.565 -0.1890 -1.2188 -0.4463
10601TIP3    H153218   3.160   2.576  11.573  0.6158 -1.3118 -2.0031
10601TIP3    H253219   3.136   2.687  11.473 -0.6745  0.1292 -0.1300
10602TIP3   OH253220   3.863   1.939   3.537  0.2494 -0.3305  0.6956
10602TIP3    H153221   3.837   1.886   3.612  0.6317  1.2834  1.9810
10602TIP3    H253222   3.956   1.921   3.526 -0.1146 -1.6719 -0.3084
10603TIP3   OH253223   1.337   5.323  16.101 -0.3100 -0.1085  0.1666
10603TIP3    H153224   1.318   5.241  16.148  1.3552  0.0648  1.1561
10603TIP3    H253225   1.415   5.303  16.049  0.7735  1.1774  1.2737
10604TIP3   OH253226   5.968   1.014  10.752  0.1582 -0.1773  0.4634
10604TIP3    H153227   5.919   1.052  10.678  0.0886  0.9564  1.0755
10604TIP3    H253228   6.051   1.062  10.752  0.8878 -1.4314  0.0246
10605TIP3   OH253229   1.496   5.532   2.076 -0.1519  0.0494 -0.3684
10605TIP3    H153230   1.434   5.499   2.140  0.3428 -0.6720 -0.2643
10605TIP3    H253231   1.461   5.502   1.991 -0.7177  0.8654 -0.4303
10606TIP3   OH253232   1.550   5.430  14.052 -0.2851 -0.1290 -0.3077
10606TIP3    H153233   1.515   5.407  14.138 -2.1504  1.3762 -0.6294
10606TIP3    H253234   1.575   5.522  14.059  1.0429 -0.4281 -0.9190
10607TIP3   OH253235   6.376   3.784   0.128  0.1200  0.4041  0.4020
10607TIP3    H153236   6.344   3.822   0.209 -1.2225 -2.1494  1.1193
10607TIP3    H253237   6.305   3.726   0.099  1.5843 -0.5969 -1.2610
10608TIP3   OH253238   4.301   0.883   1.887 -0.1834  0.2007 -0.5655
10608TIP3    H153239   4.322   0.792   1.864 -1.3094  0.0825 -1.2120
10608TIP3    H253240   4.340   0.897   1.973  1.8804 -0.2067 -1.4143
10609TIP3   OH253241   4.630   3.887  14.713 -0.0411  0.0625  0.8106
10609TIP3    H153242   4.587   3.827  14.653  0.6323  0.0179  0.3672
10609TIP3    H253243   4.699   3.835  14.754  1.1634  0.7775 -0.2837
10610TIP3   OH253244   0.752   6.580   4.195 -0.2132  0.4984  0.1516
10610TIP3    H153245   0.783   6.621   4.115 -1.6048 -0.9951 -1.1777
10610TIP3    H253246   0.753   6.651   4.260  0.2444  1.8867 -1.3463
10611TIP3   OH253247   4.212   0.279   0.352 -0.3482 -0.5051 -0.1758
10611TIP3    H153248   4.245   0.348   0.294  0.8239 -0.5278  0.4475
10611TIP3    H253249   4.152   0.324   0.411  0.8476  0.1087  0.5958
10612TIP3   OH253250   4.082   1.626  13.667  0.1833 -0.6142  0.4592
10612TIP3    H153251   4.031   1.560  13.715  0.9474 -2.2549 -0.9222
10612TIP3    H253252   4.020   1.696  13.648 -0.8617 -1.3255  1.2025
10613TIP3   OH253253   6.028   6.016   5.529  0.0623  0.1222  0.2590
10613TIP3    H153254   6.031   6.081   5.459  0.0474  0.5158  0.6200
10613TIP3    H253255   6.064   6.061   5.605  2.2366 -1.0447 -0.0606
10614TIP3   OH253256   2.039   1.265   2.750 -0.5940  0.7149  0.0440
10614TIP3    H153257   2.112   1.209   2.777 -1.4621  0.4109  1.8173
10614TIP3    H253258   1.977   1.205   2.710 -1.2119  0.5221  1.2979
10615TIP3   OH253259   2.787   4.086   1.756 -0.0378  0.4167 -0.4137
10615TIP3    H153260   2.762   4.014   1.815 -1.5469 -0.5925 -2.2099
10615TIP3    H253261   2.853   4.135   1.804 -0.0192 -1.3570  1.4362
10616TIP3   OH253262   3.441   4.687  11.850  0.7868  0.4059  0.3039
10616TIP3    H153263   3.504   4.615  11.843  1.1952  0.8573 -0.7182
10616TIP3    H253264   3.424   4.714  11.760 -0.0207  1.0339  0.6298
10617TIP3   OH253265   0.530   3.430   1.137  0.6554  0.3831  0.0722
10617TIP3    H153266   0.623   3.433   1.115  0.1360  1.4703 -2.1503
10617TIP3    H253267   0.519   3.494   1.206  1.7523 -0.5993  1.1721
10618TIP3   OH253268   4.864   2.049  13.509 -0.0065 -0.3664  0.2155
10618TIP3    H153269   4.910   2.126  13.544 -0.3745 -0.7613  1.6070
10618TIP3    H253270   4.772   2.075  13.508  0.0522 -0.2009 -0.8980
10619TIP3   OH253271   0.872   5.737  15.415 -0.6122  0.0504  0.5305
10619TIP3    H153272   0.857   5.828  15.441  0.5593  0.0724  1.1905
10619TIP3    H253273   0.858   5.687  15.496 -0.7061 -0.2926  0.2996
10620TIP3   OH253274   3.393   1.175   3.444 -0.0711  0.4559  0.2234
10620TIP3    H153275   3.406   1.160   3.351 -0.1043  2.7681 -0.1829
10620TIP3    H253276   3.473   1.217   3.474 -0.5317  0.8172  0.9841
10621TIP3   OH253277   0.418   2.614   1.575 -0.1955  0.1316 -0.2703
10621TIP3    H153278   0.478   2.665   1.520 -0.9535  0.6347 -0.6355
10621TIP3    H253279   0.418   2.527   1.535  0.6183  0.0100 -0.0148
10622TIP3   OH253280   6.025   4.474   1.484  0.2360  0.1786 -0.4271
10622TIP3    H153281   6.100   4.415   1.491  0.7538  1.0725  1.8406
10622TIP3    H253282   6.059   4.550   1.438  0.8864  0.8131  1.0753
10623TIP3   OH253283   4.341   3.734   0.084  0.4386  0.2332  0.6943
10623TIP3    H153284   4.266   3.757   0.138 -1.1654 -0.4687 -1.1501
10623TIP3    H253285   4.414   3.783   0.121 -0.9249  0.9278  2.5273
10624TIP3   OH253286   5.324   6.491  14.114  0.3817 -0.0795  0.2385
10624TIP3    H153287   5.285   6.509  14.200 -0.7186 -1.1093 -0.0325
10624TIP3    H253288   5.382   6.416  14.129  0.3253 -0.1469  0.1150
10625TIP3   OH253289   2.096   3.648   0.342  0.0608  0.2432 -0.4085
10625TIP3    H153290   2.094   3.738   0.311 -1.0332  0.2303 -0.3937
10625TIP3    H253291   2.185   3.636   0.374 -0.1324  1.7225  0.7634
10626TIP3   OH253292   6.723   5.020   5.181 -0.2011 -0.2217  0.6627
10626TIP3    H153293   6.644   5.072   5.194  0.0452 -0.1126  1.7697
10626TIP3    H253294   6.710   4.977   5.096 -2.0658 -1.2989  1.4605
10627TIP3   OH253295   6.773   6.656   0.728 -0.5028 -0.2273  0.0233
10627TIP3    H153296   6.767   6.738   0.777 -0.3645 -0.7939  0.9932
10627TIP3    H253297   6.693   6.609   0.750 -0.9358 -0.0528 -1.1083
10628TIP3   OH253298   3.711   3.470  12.196  0.1298  0.0698 -0.5832
10628TIP3    H153299   3.750   3.531  12.259 -1.5966 -1.4252  2.0010
10628TIP3    H253300   3.786   3.428  12.154  1.3132  2.4588 -0.9634
10629TIP3   OH253301   0.595   3.519  12.338 -0.2979 -0.1424 -0.0934
10629TIP3    H153302   0.660   3.511  12.268 -0.1329 -1.0222  0.1568
10629TIP3    H253303   0.640   3.567  12.408  0.0194 -0.5817  0.0051
10630TIP3   OH253304   2.265   2.670  16.069 -0.2350 -0.1309 -0.1294
10630TIP3    H153305   2.281   2.672  15.975 -1.3000  0.3862 -0.3120
10630TIP3    H253306   2.232   2.581  16.086  1.6219 -0.8022  0.0574
10631TIP3   OH253307   6.106   2.760   6.072 -0.0613 -0.0844  0.0041
10631TIP3    H153308   6.090   2.838   6.125  0.8409 -0.4456  0.8115
10631TIP3    H253309   6.147   2.697   6.132 -0.7824 -1.1844 -0.6399
10632TIP3   OH253310   3.604   3.638   5.774  0.2622  0.0413 -0.0246
10632TIP3    H153311   3.641   3.550   5.769  1.9388  0.7399 -0.4909
10632TIP3    H253312   3.644   3.676   5.852 -0.4670  0.3743  0.1820
10633TIP3   OH253313   5.815   0.771   2.378 -0.1127  0.1127 -0.0106
10633TIP3    H153314   5.854   0.714   2.444 -0.7198 -0.0948  0.1744
10633TIP3    H253315   5.748   0.718   2.337  0.1155  0.3130 -0.6531
10634TIP3   OH253316   5.161   3.406   6.092 -0.5235 -0.3230  0.7236
10634TIP3    H153317   5.141   3.457   6.171  0.0549  1.1045 -0.0236
10634TIP3    H253318   5.250   3.434   6.068  0.4118 -2.7695  1.1065
10635TIP3   OH253319   1.431   3.099   1.524  0.5121 -0.2438 -0.4041
10635TIP3    H153320   1.438   3.153   1.603 -0.5607 -1.4102  0.5138
10635TIP3    H253321   1.521   3.081   1.498  0.8702  0.0219  0.6421
10636TIP3   OH253322   4.202   5.692   5.853  0.4828 -0.2601 -0.0345
10636TIP3    H153323   4.215   5.730   5.766  0.5569 -0.0793  0.0549
10636TIP3    H253324   4.277   5.724   5.904  0.9501 -1.1300 -0.1642
10637TIP3   OH253325   2.525   3.348   5.619  0.0750 -0.4193 -0.0360
10637TIP3    H153326   2.520   3.324   5.526 -0.9688  0.8396 -0.3144
10637TIP3    H253327   2.612   3.319   5.646  0.9599  0.5074 -1.7915
10638TIP3   OH253328   4.352   5.039  16.510 -0.1645 -0.3947  0.3850
10638TIP3    H153329   4.279   5.083  16.466  0.8992  0.9405 -0.0546
10638TIP3    H253330   4.390   4.982  16.443 -1.3437 -1.7879  0.8708
10639TIP3   OH253331   6.176   3.047  12.992  0.0853  0.0560  0.1296
10639TIP3    H153332   6.158   3.124  13.047  0.9277  0.0564  0.3982
10639TIP3    H253333   6.213   3.084  12.912 -0.2716 -0.0145 -0.0709
10640TIP3   OH253334   2.790   3.670   3.071 -0.2124 -0.2839  0.4232
10640TIP3    H153335   2.772   3.629   3.156  0.5825 -1.3291  0.0868
10640TIP3    H253336   2.783   3.598   3.008 -0.7067  0.4718 -0.3884
10641TIP3   OH253337   4.729   3.588   0.141 -0.2461  0.6544  0.4712
10641TIP3    H153338   4.780   3.582   0.221 -2.0613 -1.6581  1.5076
10641TIP3    H253339   4.789   3.560   0.071  1.0494  1.7773  1.1153
10642TIP3   OH253340   0.808   4.148  13.692 -0.1057  0.0261  0.2567
10642TIP3    H153341   0.714   4.163  13.692 -0.3922 -1.5787 -2.1321
10642TIP3    H253342   0.835   4.166  13.782 -2.6608  0.6300  0.9330
10643TIP3   OH253343   2.528   2.252  14.702 -0.4698  0.6166 -0.3857
10643TIP3    H153344   2.546   2.346  14.710 -1.8767  0.8669 -0.0644
10643TIP3    H253345   2.526   2.235  14.608  1.9464  0.4623 -0.4491
10644TIP3   OH253346   0.953   5.775  14.815 -0.5908  0.3000  0.3523
10644TIP3    H153347   0.930   5.847  14.757  0.3171  0.7222  0.5166
10644TIP3    H253348   1.048   5.781  14.825 -0.7131  0.1004  1.7049
10645TIP3   OH253349   0.209   2.614  11.212 -0.2653 -0.6042  0.3736
10645TIP3    H153350   0.218   2.561  11.291 -0.6167 -1.3088 -0.0568
10645TIP3    H253351   0.208   2.705  11.244 -0.4603 -0.8868  1.1785
10646TIP3   OH253352   2.002   1.743   5.085  0.5465  0.1498  0.1090
10646TIP3    H153353   2.044   1.825   5.057 -0.2082  0.0907 -1.2419
10646TIP3    H253354   2.041   1.676   5.030  1.9430 -0.5943  1.9416
10647TIP3   OH253355   5.332   3.095   3.636 -0.2370 -0.0596  0.0106
10647TIP3    H153356   5.342   3.006   3.601  0.0728 -0.1060  0.2198
10647TIP3    H253357   5.421   3.121   3.660 -0.2786  0.4368 -0.3676
10648TIP3   OH253358   6.669   1.927   6.777 -0.3343 -0.5570  0.2152
10648TIP3    H153359   6.727   1.858   6.746 -0.0964  0.3386 -1.4123
10648TIP3    H253360   6.581   1.898   6.753 -0.3844 -1.0552  1.0068
10649TIP3   OH253361   3.578   3.989  11.568  0.4212 -0.5791 -0.1664
10649TIP3    H153362   3.499   3.935  11.566 -1.0295  1.5207 -0.2962
10649TIP3    H253363   3.598   4.006  11.476  0.4555 -0.2731 -0.1025
10650TIP3   OH253364   4.875   2.007   2.801 -0.4096 -0.5256  0.4796
10650TIP3    H153365   4.801   1.947   2.792 -0.3887 -1.1114  3.5044
10650TIP3    H253366   4.839   2.092   2.775 -2.4210 -0.6626  2.5584
10651TIP3   OH253367   4.869   5.268  15.424  0.1822 -0.4060  0.2028
10651TIP3    H153368   4.839   5.201  15.362 -0.3360 -0.4975  0.5505
10651TIP3    H253369   4.822   5.347  15.397  1.3894  0.0194 -0.7011
10652TIP3   OH253370   2.647   6.317  16.916  0.1099 -0.1644 -0.2379
10652TIP3    H153371   2.709   6.272  16.858  0.0024 -0.2069 -0.3180
10652TIP3    H253372   2.668   6.410  16.905 -1.1048 -0.0387 -1.7163
10653TIP3   OH253373   5.226   6.385  16.439 -0.2325 -0.1390 -0.2649
10653TIP3    H153374   5.150   6.403  16.383 -0.8636  0.0405  0.6351
10653TIP3    H253375   5.294   6.444  16.407 -0.8327  0.5146 -0.3650
10654TIP3   OH253376   5.609   6.088  12.678  0.2591  0.5523  0.4186
10654TIP3    H153377   5.616   6.043  12.762  2.7744  1.7766  0.9140
10654TIP3    H253378   5.567   6.024  12.620  1.6002 -1.5840  1.7140
10655TIP3   OH253379   3.465   4.602   4.028  0.2484 -0.1612  0.1300
10655TIP3    H153380   3.432   4.525   4.075  2.2297 -0.6667  0.7549
10655TIP3    H253381   3.523   4.566   3.961  0.1990  0.7284 -0.3942
10656TIP3   OH253382   4.626   6.625  12.287 -0.0270 -0.0897 -0.0175
10656TIP3    H153383   4.601   6.609  12.196  0.1446  2.1297 -0.4926
10656TIP3    H253384   4.545   6.614  12.336 -0.7858  1.6060 -0.8405
10657TIP3   OH253385   6.154   2.007   3.638  0.0374  0.8329 -0.0169
10657TIP3    H153386   6.075   2.058   3.658 -1.0696 -0.6516 -0.5337
10657TIP3    H253387   6.168   1.953   3.716  1.3112  2.0160  0.6004
10658TIP3   OH253388   1.636   2.378  11.519  0.5679  0.6147 -0.3024
10658TIP3    H153389   1.613   2.317  11.448  2.4547  0.0071 -0.4069
10658TIP3    H253390   1.731   2.384  11.515  0.5444  1.9501  1.0687
10659TIP3   OH253391   4.679   3.434   4.343 -0.1489 -0.5383  0.1921
10659TIP3    H153392   4.640   3.452   4.429  0.1986  2.5113 -0.2339
10659TIP3    H253393   4.773   3.444   4.357 -0.0079 -1.1457 -0.3020
10660TIP3   OH253394   5.868   2.348   2.219 -0.5298  0.0452 -0.4316
10660TIP3    H153395   5.832   2.435   2.236  1.7577  0.8695  0.3562
10660TIP3    H253396   5.805   2.288   2.260 -2.2216  1.2806 -1.1470
10661TIP3   OH253397   4.979   5.840  15.800  0.6171 -0.6973  0.4218
10661TIP3    H153398   4.912   5.891  15.844  1.2516 -2.1020  3.1164
10661TIP3    H253399   4.935   5.761  15.771  1.0670 -1.6471  2.2451
10662TIP3   OH253400   5.649   4.318  12.762  0.8884 -0.7164 -0.5234
10662TIP3    H153401   5.579   4.254  12.774  0.2744  0.0485  0.1426
10662TIP3    H253402   5.723   4.283  12.811 -0.4208  0.5500  2.5249
10663TIP3   OH253403   1.395   5.403  14.266  0.2042  0.2048  0.6458
10663TIP3    H153404   1.411   5.436  14.355  1.9836  0.4325  0.2474
10663TIP3    H253405   1.318   5.347  14.276  0.0855  0.6139  2.2503
10664TIP3   OH253406   2.168   4.778   4.739 -0.0201  0.3528  0.0776
10664TIP3    H153407   2.249   4.788   4.790 -0.1335  0.3250  0.2651
10664TIP3    H253408   2.167   4.855   4.681  0.4178  0.0599 -0.3182
10665TIP3   OH253409   2.639   3.943   3.531  0.0173  0.7282  0.8512
10665TIP3    H153410   2.652   3.963   3.438  1.0003 -1.0929  0.5633
10665TIP3    H253411   2.550   3.972   3.549 -0.9153 -0.6886 -1.1968
10666TIP3   OH253412   0.839   0.073  14.137  0.1153  0.1614 -0.0274
10666TIP3    H153413   0.768   0.126  14.100 -0.0054 -0.5231 -0.7843
10666TIP3    H253414   0.918   0.125  14.122 -0.1753  0.7744  0.5185
10667TIP3   OH253415   6.690   1.331  16.576 -0.2173 -0.4853 -0.2356
10667TIP3    H153416   6.667   1.267  16.508 -0.3833 -1.5894  0.8354
10667TIP3    H253417   6.785   1.325  16.583 -0.2212 -0.5427 -0.2240
10668TIP3   OH253418   0.695   2.150  14.108  0.3898  0.2858 -0.5001
10668TIP3    H153419   0.728   2.239  14.094  0.8650  0.0151 -1.1282
10668TIP3    H253420   0.602   2.156  14.088  0.3237  0.7527 -0.0578
10669TIP3   OH253421   0.635   4.918  13.909  0.1869  0.7454 -0.1562
10669TIP3    H153422   0.709   4.895  13.965  0.1560  1.4375  0.1732
10669TIP3    H253423   0.650   5.010  13.886  0.8198  0.1431 -2.2416
10670TIP3   OH253424   1.857   3.388  15.553 -0.4957 -0.2938  0.1097
10670TIP3    H153425   1.900   3.470  15.579  1.5689 -0.5267 -2.3889
10670TIP3    H253426   1.879   3.327  15.624 -0.8893  0.9066  1.3014
10671TIP3   OH253427   2.135   4.399   6.019 -0.4310  0.5752  0.2917
10671TIP3    H153428   2.128   4.354   6.103 -2.8699  2.5973  1.2538
10671TIP3    H253429   2.046   4.430   6.002  0.7330  3.1284 -1.3510
10672TIP3   OH253430   2.272   3.319   4.459 -0.2500  0.1177  0.6772
10672TIP3    H153431   2.213   3.393   4.475  0.5289  0.6016  1.3876
10672TIP3    H253432   2.306   3.333   4.371 -2.5049 -1.1035 -0.4605
10673TIP3   OH253433   5.912   2.529  14.433  0.0940  0.3366 -0.1371
10673TIP3    H153434   5.835   2.586  14.440 -0.5826 -0.2516 -2.4736
10673TIP3    H253435   5.948   2.527  14.522 -2.7275  0.4356  1.0797
10674TIP3   OH253436   3.277   0.281  13.813  0.4351  0.3775 -0.2162
10674TIP3    H153437   3.370   0.259  13.818  0.5519  0.7461 -0.7620
10674TIP3    H253438   3.233   0.209  13.859  0.8649 -0.6742 -1.4163
10675TIP3   OH253439   2.752   3.376   5.163 -0.4673  0.2315 -0.2115
10675TIP3    H153440   2.750   3.359   5.069 -2.0932  2.1186 -0.5343
10675TIP3    H253441   2.831   3.329   5.194  0.0332 -0.4664 -2.4633
10676TIP3   OH253442   1.878   6.704   2.777 -0.2765 -0.2512 -0.2266
10676TIP3    H153443   1.808   6.693   2.842 -0.5439 -1.0614 -0.6527
10676TIP3    H253444   1.955   6.665   2.819 -0.3656 -0.4539 -0.2489
10677TIP3   OH253445   3.178   5.545  11.514  0.2240  0.1507 -0.0002
10677TIP3    H153446   3.114   5.476  11.497 -0.7217  0.7069  1.1739
10677TIP3    H253447   3.174   5.601  11.437 -0.6148  0.1109  0.0071
10678TIP3   OH253448   5.167   3.131   1.630 -0.4341 -0.0421  0.1382
10678TIP3    H153449   5.115   3.076   1.688  1.6574 -1.4757  0.7025
10678TIP3    H253450   5.214   3.190   1.689 -0.6105  0.5357 -0.2968
10679TIP3   OH253451   3.390   4.897  17.203  0.0247 -0.8519 -0.2624
10679TIP3    H153452   3.455   4.876  17.270  0.2584  1.8427  0.4145
10679TIP3    H253453   3.435   4.956  17.143 -1.7428  0.9463  0.1505
10680TIP3   OH253454   1.299   0.173  14.995 -0.9914 -0.0647 -0.5286
10680TIP3    H153455   1.254   0.105  14.945  3.4599 -3.4834 -0.1889
10680TIP3    H253456   1.384   0.182  14.952  0.4926  1.5490  2.5931
10681TIP3   OH253457   3.544   6.106  15.731 -0.0960  0.0553 -0.6466
10681TIP3    H153458   3.465   6.109  15.785  0.3927 -0.2141  0.0922
10681TIP3    H253459   3.521   6.049  15.657 -1.2447  1.5678 -1.5021
10682TIP3   OH253460   2.566   1.703   5.731 -0.1724 -0.1648  0.2534
10682TIP3    H153461   2.633   1.747   5.784  0.6205 -0.4040 -0.5403
10682TIP3    H253462   2.594   1.716   5.641 -0.7895 -0.9309 -0.0566
10683TIP3   OH253463   0.406   3.538  13.716  0.6011 -0.4442 -0.2193
10683TIP3    H153464   0.372   3.500  13.636  0.0227 -1.9319  0.7075
10683TIP3    H253465   0.434   3.463  13.769 -2.1947  0.2355  2.3853
10684TIP3   OH253466   1.272   1.199  14.998 -0.2501  0.1664 -0.3771
10684TIP3    H153467   1.200   1.229  14.942  1.6006  2.3698 -1.6837
10684TIP3    H253468   1.298   1.115  14.960 -3.4229 -1.6886  1.3748
10685TIP3   OH253469   5.817   5.999   0.157 -0.6192  0.6026  0.4214
10685TIP3    H153470   5.808   6.094   0.165 -2.0953  0.4702  0.3681
10685TIP3    H253471   5.806   5.967   0.247  0.4033  0.5177  0.5211
10686TIP3   OH253472   4.307   4.131  15.574 -0.0154 -0.0886  0.1594
10686TIP3    H153473   4.225   4.136  15.525  1.2250  3.1538 -1.7313
10686TIP3    H253474   4.317   4.217  15.614  2.0079 -0.7327  1.1184
10687TIP3   OH253475   0.446   4.742   2.539  0.4292 -0.0214  0.4247
10687TIP3    H153476   0.526   4.715   2.494  0.3103 -2.2899  1.4925
10687TIP3    H253477   0.376   4.696   2.493  0.1138 -0.8609  1.7172
10688TIP3   OH253478   6.252   4.347  11.944 -0.4597 -0.1291  0.2950
10688TIP3    H153479   6.175   4.382  11.989  1.0096  0.9258  2.0733
10688TIP3    H253480   6.227   4.259  11.918 -2.1966  0.1351  1.0133
10689TIP3   OH253481   5.457   2.915  12.331  0.5434 -0.0662 -0.0167
10689TIP3    H153482   5.510   2.994  12.324  0.2816  0.2024  1.0529
10689TIP3    H253483   5.491   2.868  12.407 -0.0286 -0.4335  0.0239
10690TIP3   OH253484   1.904   0.840  14.316  0.0215  0.1593 -0.2068
10690TIP3    H153485   1.880   0.782  14.388 -0.8426 -0.6083 -1.0914
10690TIP3    H253486   1.998   0.855  14.326 -0.4901  1.9011  2.3886
10691TIP3   OH253487   0.962   1.132  15.917 -0.3012 -0.0145 -0.5789
10691TIP3    H153488   1.038   1.103  15.867 -0.9045 -0.4904 -1.2222
10691TIP3    H253489   0.992   1.212  15.960  0.5574 -0.1831 -0.8474
10692TIP3   OH253490   5.564   4.541   4.629 -0.0588 -0.2753 -0.2091
10692TIP3    H153491   5.546   4.486   4.706 -0.2691  2.0825  1.4632
10692TIP3    H253492   5.480   4.545   4.583 -0.2771 -0.5946  0.1535
10693TIP3   OH253493   6.152   1.452   5.007  0.6678  0.4048  0.0379
10693TIP3    H153494   6.115   1.446   5.096  0.9135 -1.7556  0.0132
10693TIP3    H253495   6.204   1.373   4.998  0.7963  0.7169 -1.9952
10694TIP3   OH253496   0.643   2.741  14.772  0.2342  0.4296  0.1652
10694TIP3    H153497   0.551   2.766  14.776  0.0516 -0.0766 -0.8044
10694TIP3    H253498   0.664   2.714  14.861 -0.6084  0.3543  0.3481
10695TIP3   OH253499   1.371   4.285  12.977 -0.1345 -0.1893 -0.3187
10695TIP3    H153500   1.399   4.305  13.067  1.3149  2.2942 -1.2551
10695TIP3    H253501   1.447   4.243  12.938 -0.9029 -1.6252 -0.3029
10696TIP3   OH253502   2.384   0.798   5.887 -0.2947 -0.6311 -0.1017
10696TIP3    H153503   2.427   0.754   5.960  0.9588 -1.8492 -1.5320
10696TIP3    H253504   2.451   0.856   5.851 -0.9850  0.1562 -0.1330
10697TIP3   OH253505   0.303   4.238  13.079 -0.1486  0.4198  0.3490
10697TIP3    H153506   0.257   4.279  13.153  0.4221  0.1674  0.8526
10697TIP3    H253507   0.304   4.144  13.101 -1.6478  0.0890 -0.9033
10698TIP3   OH253508   3.317   5.488  12.697  0.0000  0.3614  0.6969
10698TIP3    H153509   3.258   5.555  12.661  0.8001 -0.0701 -1.4867
10698TIP3    H253510   3.277   5.405  12.672  1.0549  0.0575  0.0123
10699TIP3   OH253511   5.135   0.878   2.562 -0.1819 -1.0519  0.0320
10699TIP3    H153512   5.151   0.833   2.645 -0.2147 -0.2907  0.4549
10699TIP3    H253513   5.173   0.820   2.496  1.9671 -0.5648  0.7833
10700TIP3   OH253514   1.637   5.796  13.567  0.1533  0.2997  0.9354
10700TIP3    H153515   1.677   5.882  13.557 -0.6289  0.4691 -0.9813
10700TIP3    H253516   1.617   5.768  13.477 -0.7546 -1.3242  1.6189
10701TIP3   OH253517   3.106   3.394   0.067 -0.2296  0.5931  0.8301
10701TIP3    H153518   3.080   3.396  -0.025  0.0494 -0.6603  0.7173
10701TIP3    H253519   3.201   3.409   0.065 -0.2859  0.9921  0.9548
10702TIP3   OH253520   4.967   2.367  11.158 -0.1500  0.0024 -0.1550
10702TIP3    H153521   5.011   2.443  11.121 -0.6899  0.4924  0.2166
10702TIP3    H253522   4.876   2.375  11.128 -0.5244  0.2334  1.0131
10703TIP3   OH253523   1.700   1.441   4.262 -0.2007  0.1980 -0.1046
10703TIP3    H153524   1.684   1.535   4.270  1.1697  0.6199 -1.9551
10703TIP3    H253525   1.789   1.435   4.227 -0.3261 -1.7934 -0.1388
10704TIP3   OH253526   1.418   1.467  15.021 -0.0623 -0.3900 -0.5394
10704TIP3    H153527   1.376   1.381  15.012  0.2573 -0.4490 -1.5332
10704TIP3    H253528   1.434   1.496  14.931  0.9330  0.1644 -0.1987
10705TIP3   OH253529   2.856   1.845   3.633  0.0082 -0.7507 -0.4600
10705TIP3    H153530   2.794   1.856   3.705 -0.0118  0.0448 -0.6024
10705TIP3    H253531   2.917   1.918   3.642  0.0190 -0.6592 -1.2421
10706TIP3   OH253532   2.252   1.763  13.233  0.0613 -0.0340  0.8373
10706TIP3    H153533   2.243   1.854  13.260  0.5270 -0.2723  1.8366
10706TIP3    H253534   2.237   1.764  13.139 -0.7675  0.9468  0.9766
10707TIP3   OH253535   2.859   5.686  17.216 -0.5133 -0.5309 -0.0884
10707TIP3    H153536   2.864   5.678  17.121  0.7235 -1.7614  0.0754
10707TIP3    H253537   2.918   5.759  17.237  0.0444 -0.9593 -0.1640
10708TIP3   OH253538   2.679   5.650   5.483 -0.0709  0.1527 -0.1288
10708TIP3    H153539   2.767   5.651   5.446 -0.2672  0.0137 -0.6008
10708TIP3    H253540   2.691   5.678   5.574  0.3367  1.0486 -0.4494
10709TIP3   OH253541   3.013   3.469   5.650  0.0238  0.6163  0.2734
10709TIP3    H153542   2.925   3.442   5.677 -0.0569 -0.2675 -0.8175
10709TIP3    H253543   3.011   3.564   5.652 -0.9562  0.6002  0.2834
10710TIP3   OH253544   4.479   2.666   0.760 -0.8029 -0.5177 -0.5006
10710TIP3    H153545   4.507   2.697   0.674 -0.3671  1.6013  0.3894
10710TIP3    H253546   4.506   2.574   0.762 -0.0299 -0.3457 -2.2759
10711TIP3   OH253547   1.282   0.643  11.023 -1.1109 -0.3229 -0.4244
10711TIP3    H153548   1.235   0.714  10.978 -1.4928 -0.1925  0.1760
10711TIP3    H253549   1.219   0.571  11.026 -0.3191 -1.1120 -2.1065
10712TIP3   OH253550   4.482   6.724   6.206 -0.5904 -0.0522 -0.7622
10712TIP3    H153551   4.485   6.631   6.184  1.7846 -0.1925  0.0316
10712TIP3    H253552   4.449   6.726   6.296  0.3134 -0.2117 -0.4192
10713TIP3   OH253553   3.463   5.495  11.680  0.0261  0.3634 -0.3656
10713TIP3    H153554   3.443   5.463  11.592 -1.7011 -1.9989  0.8418
10713TIP3    H253555   3.515   5.425  11.720 -0.3004  0.8450  0.9327
10714TIP3   OH253556   5.047   1.730   2.306  0.0450 -0.7697  0.1813
10714TIP3    H153557   5.017   1.690   2.224  0.0238  0.6710 -0.5188
10714TIP3    H253558   5.127   1.777   2.282 -1.6733  2.3041  0.2919
10715TIP3   OH253559   0.958   4.054   3.054 -0.2209  0.4977 -0.3715
10715TIP3    H153560   1.002   4.101   3.125 -0.5214 -0.9142  0.7784
10715TIP3    H253561   0.888   4.004   3.098  0.3494 -1.3370 -1.4937
10716TIP3   OH253562   2.523   1.317  12.519 -0.8498 -0.2346 -0.3136
10716TIP3    H153563   2.543   1.349  12.431  0.6412 -0.0510  0.0919
10716TIP3    H253564   2.586   1.247  12.535 -1.4525 -0.6240  0.4014
10717TIP3   OH253565   0.556   4.274   4.297 -0.1667  0.8269  0.1362
10717TIP3    H153566   0.607   4.338   4.248  0.7788 -0.8732 -1.1665
10717TIP3    H253567   0.611   4.250   4.372 -0.9532  2.2670  1.1968
10718TIP3   OH253568   3.444   6.129  14.764  0.3085 -0.1946  0.3614
10718TIP3    H153569   3.349   6.128  14.765  0.2986  0.4344  0.2986
10718TIP3    H253570   3.466   6.198  14.701  0.8017 -0.5831  0.1027
10719TIP3   OH253571   5.369   2.360  15.474 -0.1102 -0.1229  0.1877
10719TIP3    H153572   5.421   2.282  15.495 -0.0515 -0.7750 -2.2264
10719TIP3    H253573   5.433   2.431  15.474  0.6498 -0.7718 -1.8212
10720TIP3   OH253574   2.661   1.085  10.639  0.0363 -0.4059  0.3736
10720TIP3    H153575   2.686   1.091  10.731  1.2710 -0.1691  0.0333
10720TIP3    H253576   2.569   1.058  10.641  0.4177 -1.6998  1.6654
10721TIP3   OH253577   1.422   3.932   2.471 -0.0960 -0.1264 -0.1486
10721TIP3    H153578   1.508   3.974   2.477 -0.2814  0.3670 -0.8364
10721TIP3    H253579   1.417   3.877   2.549 -0.5242  2.4256  1.7107
10722TIP3   OH253580   2.122   1.431  14.470 -0.4575 -0.8099  0.6918
10722TIP3    H153581   2.058   1.391  14.411  0.7790 -1.8380  0.0252
10722TIP3    H253582   2.155   1.358  14.523  1.1669 -0.5366  0.0791
10723TIP3   OH253583   1.996   4.697   1.852 -0.3382  0.6740 -0.1366
10723TIP3    H153584   2.038   4.678   1.768  1.7923  0.2498  0.9990
10723TIP3    H253585   2.002   4.793   1.860 -0.1192  0.6676 -0.2302
10724TIP3   OH253586   3.362   6.030  12.072  0.4144  0.3626  0.0493
10724TIP3    H153587   3.307   6.108  12.067 -0.2014 -0.0448  0.2472
10724TIP3    H253588   3.302   5.958  12.048  0.5457 -0.2212  1.4390
10725TIP3   OH253589   1.720   1.255   0.876 -0.2885 -0.2115 -0.0721
10725TIP3    H153590   1.635   1.265   0.918  0.0092 -1.0880  0.7424
10725TIP3    H253591   1.741   1.342   0.842 -0.4751  0.5291  1.6855
10726TIP3   OH253592   1.354   5.163   2.996  0.3723 -1.3034 -0.3840
10726TIP3    H153593   1.268   5.153   3.036 -0.2589 -0.0746 -1.3894
10726TIP3    H253594   1.335   5.181   2.904  1.7479 -2.4475 -0.8970
10727TIP3   OH253595   3.888   5.542  15.915 -0.0154  0.4361 -0.5062
10727TIP3    H153596   3.812   5.600  15.904 -0.2167  0.0674 -1.0918
10727TIP3    H253597   3.853   5.454  15.905 -0.0774  0.0933  2.5324
10728TIP3   OH253598   6.238   5.674  13.551 -0.3795  0.3168  0.0608
10728TIP3    H153599   6.248   5.646  13.642 -2.1685  1.1353  0.5325
10728TIP3    H253600   6.252   5.594  13.500 -1.7232 -0.6881  1.1992
10729TIP3   OH253601   0.762   4.828  15.563  0.2973 -0.1239 -0.5118
10729TIP3    H153602   0.757   4.835  15.659 -1.4250 -0.6793 -0.5504
10729TIP3    H253603   0.821   4.754  15.548 -0.5907 -0.9901  0.1581
10730TIP3   OH253604   1.288   1.264  15.283 -0.2342 -1.0797 -0.4395
10730TIP3    H153605   1.243   1.268  15.198  1.0057 -1.4324 -1.1240
10730TIP3    H253606   1.381   1.258  15.260  0.1510 -0.5214  0.9586
10731TIP3   OH253607   3.993   4.625  12.366 -0.1848 -0.1263  0.2300
10731TIP3    H153608   4.039   4.697  12.411  1.5174 -0.8739 -0.3164
10731TIP3    H253609   4.015   4.636  12.274 -2.2457  0.3357 -0.2257
10732TIP3   OH253610   2.150   0.368  16.770  0.0798  0.0862 -0.0342
10732TIP3    H153611   2.142   0.452  16.815 -0.3002 -0.0633  0.1755
10732TIP3    H253612   2.121   0.387  16.680  0.0124  0.1839  0.0078
10733TIP3   OH253613   2.277   3.191   5.511 -0.0825 -0.0632  0.2029
10733TIP3    H153614   2.362   3.207   5.471 -0.0825 -0.0808  0.1956
10733TIP3    H253615   2.238   3.123   5.455  0.2732 -0.7152  0.7354
10734TIP3   OH253616   2.722   0.016  12.304  0.7337  0.1709  0.2800
10734TIP3    H153617   2.666   0.063  12.242 -0.0245  0.4204  1.1351
10734TIP3    H253618   2.751   0.083  12.366  1.8987  0.0168 -0.0960
10735TIP3   OH253619   5.019   4.980  16.319  0.0710  0.2152 -0.1399
10735TIP3    H153620   5.074   4.908  16.349  1.4661  1.2741 -0.0767
10735TIP3    H253621   5.081   5.050  16.297 -1.2287  1.2775 -0.5201
10736TIP3   OH253622   2.052   4.421   3.984 -0.7229  0.2461  0.1821
10736TIP3    H153623   1.958   4.412   3.967 -0.8515 -0.0894  1.0008
10736TIP3    H253624   2.070   4.514   3.974 -1.6057  0.6740  2.1617
10737TIP3   OH253625   2.929   6.476  16.866  0.9779 -0.5973  0.3427
10737TIP3    H153626   2.967   6.403  16.916 -0.1979 -0.8478  0.8901
10737TIP3    H253627   2.955   6.459  16.776 -0.2658 -2.3469  0.2888
10738TIP3   OH253628   0.105   0.694   1.841  0.9615  0.8500  0.6070
10738TIP3    H153629   0.076   0.690   1.932  0.2484 -3.0271  0.3356
10738TIP3    H253630   0.191   0.651   1.841  0.6323  0.1494 -0.6285
10739TIP3   OH253631   2.421   2.503  14.340  0.5183 -0.1706 -0.3172
10739TIP3    H153632   2.476   2.430  14.370 -0.0289 -0.4239  0.0844
10739TIP3    H253633   2.451   2.520  14.251  0.9561 -0.5956 -0.2573
10740TIP3   OH253634   3.919   5.691   4.370  0.1297  0.0481 -0.2958
10740TIP3    H153635   3.962   5.762   4.418  0.1836 -1.0551  1.3373
10740TIP3    H253636   3.826   5.698   4.395 -0.2445  0.8855 -1.8612
10741TIP3   OH253637   4.354   2.464   1.029  0.3548  0.2768 -0.3859
10741TIP3    H153638   4.428   2.484   1.086 -0.4612  2.0009  0.0845
10741TIP3    H253639   4.375   2.377   0.994  1.6806 -0.0901  1.2141
10742TIP3   OH253640   4.777   1.469  15.020 -0.0114 -0.1884 -0.0145
10742TIP3    H153641   4.863   1.500  15.047  0.2117 -1.3425  0.6468
10742TIP3    H253642   4.717   1.541  15.042  1.0198  1.3644 -2.1819
10743TIP3   OH253643   0.633   6.470   3.484  0.4600  0.0275  0.5561
10743TIP3    H153644   0.699   6.504   3.545  2.5110 -2.2420 -0.3295
10743TIP3    H253645   0.630   6.376   3.501  0.0735 -0.4352 -1.8705
10744TIP3   OH253646   6.235   0.580   1.475 -0.3179  0.3020  0.0483
10744TIP3    H153647   6.158   0.563   1.529  1.0971  1.2162  2.4028
10744TIP3    H253648   6.225   0.670   1.446 -1.1967 -0.2619 -1.4700
10745TIP3   OH253649   6.752   1.506   6.006 -0.3228  0.2291  0.4520
10745TIP3    H153650   6.755   1.594   6.045  1.6408  0.9414 -1.1896
10745TIP3    H253651   6.841   1.472   6.017 -1.3505 -2.0285  2.0596
10746TIP3   OH253652   6.023   5.856  13.747  0.3526 -0.1011 -0.0553
10746TIP3    H153653   6.036   5.919  13.676  0.9994  0.3802  0.4840
10746TIP3    H253654   6.077   5.889  13.819 -0.3106 -0.5685  0.6713
10747TIP3   OH253655   3.908   0.403  11.232  0.4992 -0.6876  0.0791
10747TIP3    H153656   3.949   0.340  11.292  0.2229  0.1021  1.1157
10747TIP3    H253657   3.814   0.385  11.239  0.0594  2.3215  3.3302
10748TIP3   OH253658   0.603   2.697   4.362 -0.2169  0.3559  0.4561
10748TIP3    H153659   0.696   2.675   4.353 -0.4653 -0.5975  0.2252
10748TIP3    H253660   0.558   2.613   4.354 -1.2896  1.1582 -2.0802
10749TIP3   OH253661   2.270   5.489  15.683 -0.0397  0.0216 -0.6059
10749TIP3    H153662   2.197   5.530  15.730  0.5661 -0.6308  0.9542
10749TIP3    H253663   2.344   5.500  15.742  0.8438 -0.4546 -1.6204
10750TIP3   OH253664   5.301   2.486  11.754  0.0054  0.4349  0.6490
10750TIP3    H153665   5.292   2.441  11.838  0.5386  0.0593  0.5058
10750TIP3    H253666   5.267   2.574  11.771 -1.4218 -0.1338  0.8278
10751TIP3   OH253667   6.415   3.638   5.235 -0.2219 -0.0894 -0.0372
10751TIP3    H153668   6.357   3.700   5.280 -0.6658 -1.3483  1.1537
10751TIP3    H253669   6.487   3.624   5.296 -0.5196 -1.3517  0.0288
10752TIP3   OH253670   3.404   4.854   5.342  0.3266  0.5464  0.9915
10752TIP3    H153671   3.338   4.804   5.294  1.2903  2.5257 -2.5665
10752TIP3    H253672   3.488   4.825   5.305  1.1293  1.9526  1.6669
10753TIP3   OH253673   3.276   0.852  12.458  0.2189  0.4745  0.1907
10753TIP3    H153674   3.273   0.900  12.375  1.4198  1.2096  0.5557
10753TIP3    H253675   3.186   0.855  12.491 -0.0901  0.9170 -0.6659
10754TIP3   OH253676   0.626   6.077  14.559 -0.0179  0.0652 -0.1181
10754TIP3    H153677   0.593   6.002  14.608  2.5613 -0.3631  1.0216
10754TIP3    H253678   0.590   6.153  14.605  0.5375 -0.3939  1.0951
10755TIP3   OH253679   1.677   3.216   5.652 -0.7335  0.1651  0.2236
10755TIP3    H153680   1.622   3.193   5.577 -1.4801  0.5477  0.6504
10755TIP3    H253681   1.686   3.135   5.701  0.4104 -0.2753 -0.6891
10756TIP3   OH253682   3.152   6.552  13.231 -0.1751  0.8732  0.4993
10756TIP3    H153683   3.165   6.644  13.252 -1.2731  1.2443 -0.4023
10756TIP3    H253684   3.063   6.547  13.197  0.2342 -0.3527 -0.4419
10757TIP3   OH253685   3.207   3.125   0.198 -0.1189  0.5849 -0.0337
10757TIP3    H153686   3.187   3.092   0.111 -0.1601  1.1986 -0.2614
10757TIP3    H253687   3.162   3.210   0.203 -1.0633  0.0321  1.0021
10758TIP3   OH253688   4.006   2.307   0.922  0.0643  0.1563  0.0157
10758TIP3    H153689   3.919   2.322   0.883  0.2683  0.4202 -0.3413
10758TIP3    H253690   4.050   2.392   0.916  0.7658 -0.2545 -0.8634
10759TIP3   OH253691   6.359   2.904  14.998 -0.0151 -0.0462  0.6282
10759TIP3    H153692   6.283   2.847  15.010 -0.4202  0.4530  0.4569
10759TIP3    H253693   6.375   2.941  15.085 -0.4484  0.4421  0.5052
10760TIP3   OH253694   5.717   4.883  12.543 -0.0098 -0.6053  0.3625
10760TIP3    H153695   5.741   4.797  12.578 -1.6816 -2.5936 -3.1156
10760TIP3    H253696   5.621   4.882  12.541 -0.1176  2.0217  1.7371
10761TIP3   OH253697   1.358   2.591   0.211  0.0445  0.0563 -0.1828
10761TIP3    H153698   1.447   2.555   0.215 -0.6663 -2.0855 -2.7233
10761TIP3    H253699   1.367   2.670   0.157  0.4860  0.1977  0.0880
10762TIP3   OH253700   0.031   6.729  13.523 -0.6848  0.0465  0.7463
10762TIP3    H153701   0.043   6.813  13.567 -1.3497  0.9059 -0.6688
10762TIP3    H253702  -0.063   6.711  13.532 -0.8044  0.1677 -0.1799
10763TIP3   OH253703   1.476   0.573   1.687  0.0952  0.0090  0.1346
10763TIP3    H153704   1.524   0.621   1.754  1.4873 -0.2384 -0.6836
10763TIP3    H253705   1.476   0.483   1.718  0.9745 -0.1524 -0.3289
10764TIP3   OH253706   4.395   2.591   4.192  1.0444 -0.3535 -0.3752
10764TIP3    H153707   4.318   2.601   4.136  0.1584  1.2675  1.0694
10764TIP3    H253708   4.424   2.681   4.209  2.3479 -0.8927  0.3605
10765TIP3   OH253709   6.198   3.415  11.366  0.8929  0.1741  0.0830
10765TIP3    H153710   6.235   3.502  11.374  3.6261 -1.0013  0.9171
10765TIP3    H253711   6.213   3.390  11.275  1.3032  0.0773  0.1754
10766TIP3   OH253712   2.695   1.900   2.432 -0.0373  0.1682 -0.5688
10766TIP3    H153713   2.696   1.947   2.515 -1.1852 -0.4088 -0.2159
10766TIP3    H253714   2.753   1.825   2.445  0.1083  0.3078 -0.4237
10767TIP3   OH253715   1.300   5.740  14.546  0.7701 -0.2769  0.4125
10767TIP3    H153716   1.268   5.809  14.488  0.9960 -0.3683  0.1797
10767TIP3    H253717   1.394   5.758  14.555  1.7202 -2.9639 -3.0050
10768TIP3   OH253718   0.586   0.143   5.994 -0.4108 -0.2895  0.0821
10768TIP3    H153719   0.570   0.142   6.088  1.1713 -0.8804  0.3483
10768TIP3    H253720   0.681   0.149   5.985 -0.6117  1.1901 -1.4783
10769TIP3   OH253721   1.653   5.106   6.296  0.5445  0.2336  0.4527
10769TIP3    H153722   1.681   5.032   6.350  0.3096  1.1511  1.8627
10769TIP3    H253723   1.728   5.166   6.297  0.6564  0.1155 -0.5091
10770TIP3   OH253724   0.402   4.179   6.487  0.0438  0.4320  0.1093
10770TIP3    H153725   0.366   4.240   6.422 -0.7193  0.3833  0.4803
10770TIP3    H253726   0.444   4.234   6.552 -3.1026  0.7789  1.9663
10771TIP3   OH253727   3.402   0.172   1.796  0.6530 -0.0704 -0.3448
10771TIP3    H153728   3.390   0.207   1.707  0.2264 -0.0120 -0.2676
10771TIP3    H253729   3.400   0.077   1.784  1.4343 -0.0704 -0.5053
10772TIP3   OH253730   3.558   3.032   0.094  0.1451  0.0370  0.3902
10772TIP3    H153731   3.505   3.089   0.038 -0.4498  1.3991  2.2915
10772TIP3    H253732   3.634   3.085   0.117  0.1805 -0.3687  1.2124
10773TIP3   OH253733   4.291   4.125  16.623 -0.2088 -0.2230  0.0803
10773TIP3    H153734   4.323   4.212  16.602  0.2715 -0.5878 -0.7178
10773TIP3    H253735   4.308   4.115  16.717  1.3240 -0.1200 -0.1711
10774TIP3   OH253736   0.162   3.909  12.912  0.0628  0.2568 -0.0049
10774TIP3    H153737   0.229   3.887  12.976 -0.3330 -1.0519 -0.0272
10774TIP3    H253738   0.206   3.966  12.849  0.9125  0.1150  0.4577
10775TIP3   OH253739   3.678   0.959   6.024 -0.3430  0.3822  0.1801
10775TIP3    H153740   3.644   0.938   6.111  1.5629  0.9587  1.1018
10775TIP3    H253741   3.672   1.054   6.017 -1.6778  0.2276 -0.8370
10776TIP3   OH253742   2.810   1.369   4.279 -0.0196 -0.1061 -0.4221
10776TIP3    H153743   2.739   1.337   4.335 -0.5651  0.6880 -0.6461
10776TIP3    H253744   2.841   1.292   4.232 -1.8099 -0.1912 -1.5241
10777TIP3   OH253745   3.687   6.068  14.364 -0.1479  0.0560 -0.7207
10777TIP3    H153746   3.715   6.073  14.456 -1.8217 -2.5882 -0.0032
10777TIP3    H253747   3.758   6.020  14.321 -0.0761 -0.0489 -0.4897
10778TIP3   OH253748   5.399   4.122  13.834 -0.0847 -0.2537  0.1441
10778TIP3    H153749   5.407   4.113  13.929  0.9358  0.0167  0.0889
10778TIP3    H253750   5.485   4.154  13.805 -0.4084 -0.2621 -0.8600
10779TIP3   OH253751   2.097   6.516  16.874  0.3394 -0.1086  0.0631
10779TIP3    H153752   2.047   6.595  16.853  2.4442  1.7815  1.9499
10779TIP3    H253753   2.096   6.510  16.969  1.3128 -1.6551  0.0087
10780TIP3   OH253754   0.082   2.435   0.667  0.2180 -0.5622  0.8192
10780TIP3    H153755   0.127   2.519   0.666  0.2742 -0.5928  0.7729
10780TIP3    H253756   0.006   2.447   0.610  0.0127 -0.4245  1.1256
10781TIP3   OH253757   6.232   2.901   0.292  0.2255  0.6951 -0.2579
10781TIP3    H153758   6.185   2.984   0.284  0.4785  0.8216 -0.4648
10781TIP3    H253759   6.213   2.855   0.210  0.2068  0.6142 -0.2078
10782TIP3   OH253760   1.771   1.675   4.884 -0.0512  0.3498 -0.1176
10782TIP3    H153761   1.687   1.687   4.840  0.2381  0.2990 -0.6868
10782TIP3    H253762   1.755   1.607   4.949 -0.9605  1.7316  1.1485
10783TIP3   OH253763   2.915   1.805  15.860 -0.3599  0.0755 -0.5648
10783TIP3    H153764   2.822   1.784  15.850 -0.3510 -0.9401  1.2508
10783TIP3    H253765   2.957   1.769  15.782 -1.1090 -2.0144 -0.0262
10784TIP3   OH253766   0.413   0.766  15.394 -1.2280  0.4693  0.2189
10784TIP3    H153767   0.323   0.779  15.364 -1.3751 -0.2106  0.3626
10784TIP3    H253768   0.428   0.672  15.388 -0.1804  0.6756 -0.7818
10785TIP3   OH253769   3.895   3.317  11.991 -0.0794 -0.2130 -0.0469
10785TIP3    H153770   3.985   3.290  12.009  0.3641  0.1311 -1.6993
10785TIP3    H253771   3.904   3.404  11.951 -0.9397 -1.3398 -2.8157
10786TIP3   OH253772   2.252   5.691   4.071  0.0154 -0.5319  0.0947
10786TIP3    H153773   2.318   5.630   4.035 -0.7017 -1.3223  0.1030
10786TIP3    H253774   2.221   5.740   3.995  1.2690  0.4985  0.2205
10787TIP3   OH253775   3.180   1.732  15.929  0.5558 -0.7405 -0.6647
10787TIP3    H153776   3.087   1.753  15.924  1.3046  3.4310  1.1960
10787TIP3    H253777   3.185   1.661  15.994 -1.1015  0.7670  1.1629
10788TIP3   OH253778   3.159   0.307   4.196 -0.0138 -0.2585 -0.0924
10788TIP3    H153779   3.184   0.251   4.123  1.6128 -0.6035  0.7170
10788TIP3    H253780   3.139   0.246   4.267  0.9154  0.1540  0.5283
10789TIP3   OH253781   2.999   1.870   2.380  0.4024  0.1878  0.9785
10789TIP3    H153782   2.985   1.783   2.343  0.2180  0.4319  0.4781
10789TIP3    H253783   3.039   1.854   2.465  3.4103 -0.2699 -0.4859
10790TIP3   OH253784   6.346   2.533  13.968  0.3613  0.2604 -0.1537
10790TIP3    H153785   6.416   2.473  13.945  1.6656  1.8674 -0.5268
10790TIP3    H253786   6.270   2.477  13.985  1.7279 -1.5114  0.2714
10791TIP3   OH253787   6.702   6.459   2.788  1.0023  0.0249 -0.1216
10791TIP3    H153788   6.616   6.501   2.789  1.0761  0.1668  0.6945
10791TIP3    H253789   6.692   6.381   2.844  1.1087 -0.5667 -0.9092
10792TIP3   OH253790   0.352   2.396  14.943  0.1675  0.7840  0.1013
10792TIP3    H153791   0.260   2.405  14.968 -0.0993 -2.1311  0.3814
10792TIP3    H253792   0.393   2.350  15.017  1.0778 -1.0091 -1.4796
10793TIP3   OH253793   4.096   2.190  15.066  0.4510 -0.2693  0.2696
10793TIP3    H153794   4.006   2.162  15.081  0.4299  0.1628  0.9909
10793TIP3    H253795   4.124   2.226  15.150  0.7316  1.1516 -0.4103
10794TIP3   OH253796   1.820   1.112   0.667  0.1249  0.2142 -0.4260
10794TIP3    H153797   1.789   1.171   0.598 -1.3825 -0.6026 -0.4701
10794TIP3    H253798   1.794   1.156   0.748  1.3508  0.8766 -0.3832
10795TIP3   OH253799   2.385   2.628  15.208 -0.4945  0.2717 -0.2469
10795TIP3    H153800   2.336   2.582  15.276 -1.1991  1.5620  0.1343
10795TIP3    H253801   2.472   2.641  15.246 -0.9177  1.0878  0.4640
10796TIP3   OH253802   2.896   1.693  12.857 -0.1589 -0.0311  0.4643
10796TIP3    H153803   2.991   1.704  12.849 -0.1881  0.4391  0.7293
10796TIP3    H253804   2.881   1.686  12.951 -0.1594 -2.2624  0.3241
10797TIP3   OH253805   2.020   5.508   1.798  0.4959 -0.2142 -0.6996
10797TIP3    H153806   1.987   5.509   1.708  1.1869  0.2814 -0.9623
10797TIP3    H253807   1.961   5.566   1.846  0.0637 -0.5615 -0.8173
10798TIP3   OH253808   5.815   1.404   6.390  0.1105  0.2226  0.7355
10798TIP3    H153809   5.885   1.458   6.353 -1.5572  0.5896 -2.0718
10798TIP3    H253810   5.776   1.361   6.313  0.1863 -3.5634  2.7007
10799TIP3   OH253811   1.474   3.918  13.583 -0.0708  0.1475  0.6304
10799TIP3    H153812   1.477   3.992  13.522 -0.1888  0.4311  0.9637
10799TIP3    H253813   1.513   3.953  13.664  0.1419 -0.2416  0.6996
10800TIP3   OH253814   3.048   2.184  13.119 -0.2669 -0.1652 -0.4571
10800TIP3    H153815   3.137   2.162  13.093 -0.2185  0.3981 -0.7794
10800TIP3    H253816   2.993   2.119  13.075  0.0368 -0.9103  0.2664
10801TIP3   OH253817   5.461   0.328  15.528 -0.4223 -0.0418  0.2343
10801TIP3    H153818   5.426   0.345  15.616 -0.3638  0.5240  0.1498
10801TIP3    H253819   5.386   0.339  15.470 -0.2300  0.6196  0.1083
10802TIP3   OH253820   0.478   3.187   2.560  0.0289 -0.1614  0.3262
10802TIP3    H153821   0.457   3.096   2.538  0.0366 -0.3884  1.2445
10802TIP3    H253822   0.450   3.237   2.483 -2.5521 -0.6311  0.8875
10803TIP3   OH253823   1.343   5.347  15.085 -0.1113  0.4681  0.0492
10803TIP3    H153824   1.339   5.255  15.111 -1.1680  0.6574  0.5863
10803TIP3    H253825   1.426   5.378  15.122 -0.6510  0.2148  1.5075
10804TIP3   OH253826   5.105   1.158   2.535 -0.0867 -0.2683 -0.1034
10804TIP3    H153827   5.097   1.063   2.548  0.9639  0.1021  3.7847
10804TIP3    H253828   5.193   1.170   2.498 -0.1451 -0.7751 -0.4156
10805TIP3   OH253829   2.682   2.336  15.231  0.9206 -0.1511  0.1602
10805TIP3    H153830   2.734   2.289  15.296 -1.4831 -1.5564  1.1316
10805TIP3    H253831   2.609   2.278  15.213 -0.1190  1.6102 -1.4733
10806TIP3   OH253832   0.356   4.271  12.544 -0.5938  0.1285  0.5265
10806TIP3    H153833   0.393   4.304  12.462  0.2399 -0.0109  0.8403
10806TIP3    H253834   0.342   4.350  12.597 -2.1568  0.3289 -0.1459
10807TIP3   OH253835   6.563   5.054  14.372  0.7489 -0.4575  0.4176
10807TIP3    H153836   6.648   5.097  14.386  0.8427 -1.1701  2.1013
10807TIP3    H253837   6.586   4.963  14.352  0.5174  0.0608 -2.4852
10808TIP3   OH253838   5.521   5.621  12.407  0.1732  0.1966  0.3595
10808TIP3    H153839   5.524   5.654  12.317 -0.5889 -1.3079 -0.2373
10808TIP3    H253840   5.440   5.571  12.412  1.5483 -2.0670  1.0440
10809TIP3   OH253841   0.650   3.941   6.320  0.1732  0.4640 -0.6041
10809TIP3    H153842   0.691   3.970   6.238  0.8540  0.2739 -0.3334
10809TIP3    H253843   0.625   4.022   6.364  2.2619  0.6672  0.2498
10810TIP3   OH253844   4.171   3.976  10.790 -0.3247 -0.0683  0.0054
10810TIP3    H153845   4.137   4.057  10.828 -0.3935 -0.3936  0.6435
10810TIP3    H253846   4.208   4.003  10.706  1.3674  0.9636  1.0406
10811TIP3   OH253847   4.917   5.831   5.893 -0.0317 -0.0550 -0.2551
10811TIP3    H153848   4.868   5.754   5.865 -0.0685  0.1418 -0.7337
10811TIP3    H253849   4.851   5.900   5.901  0.0091 -0.0558  0.1246
10812TIP3   OH253850   1.180   2.947  11.483  0.1328  0.1319  0.3984
10812TIP3    H153851   1.224   2.889  11.421  1.2959  2.5939 -1.1453
10812TIP3    H253852   1.106   2.983  11.434 -0.8238 -0.3337  1.4758
10813TIP3   OH253853   3.107   5.707   2.202 -0.0659  0.1659  0.4527
10813TIP3    H153854   3.099   5.639   2.135 -0.4171 -0.0046  0.6686
10813TIP3    H253855   3.201   5.723   2.208 -0.1379  1.6679 -1.5880
10814TIP3   OH253856   1.709   1.499   3.136 -0.0180 -0.2484  0.1471
10814TIP3    H153857   1.780   1.443   3.167 -1.5899 -1.3203  1.9614
10814TIP3    H253858   1.636   1.480   3.195 -1.0741  2.6212 -0.1289
10815TIP3   OH253859   2.999   4.993   5.938 -0.3517 -0.3990 -0.3486
10815TIP3    H153860   3.085   4.986   5.980  0.1633  1.1227 -1.0993
10815TIP3    H253861   3.019   4.992   5.844 -1.3249 -1.8344 -0.5579
10816TIP3   OH253862   4.213   0.931  10.807 -0.3610 -0.2663 -0.1032
10816TIP3    H153863   4.217   0.858  10.869 -0.6993 -0.5692 -0.4304
10816TIP3    H253864   4.268   0.904  10.734 -0.8578 -0.4002 -0.4322
10817TIP3   OH253865   5.605   3.878   1.802 -0.3197  0.1249  0.2325
10817TIP3    H153866   5.542   3.899   1.871  1.0512  0.7987  1.3152
10817TIP3    H253867   5.667   3.818   1.844  0.0955 -0.0708 -0.6474
10818TIP3   OH253868   4.205   4.158  12.393 -0.2665 -0.6564  0.1058
10818TIP3    H153869   4.144   4.227  12.420 -0.0818 -0.5330  0.2047
10818TIP3    H253870   4.281   4.205  12.358 -0.0442 -0.8067  0.3847
10819TIP3   OH253871   6.769   6.383   5.723  0.1608 -0.1349 -0.2021
10819TIP3    H153872   6.782   6.372   5.817 -0.6597  1.5430  0.1132
10819TIP3    H253873   6.858   6.383   5.687  0.5571  0.7220  0.7511
10820TIP3   OH253874   0.937   2.692   3.586 -0.1575 -0.5702 -0.2129
10820TIP3    H153875   0.992   2.652   3.518 -0.4587 -0.7892 -0.3270
10820TIP3    H253876   0.937   2.628   3.657 -1.2933 -1.1399 -0.7112
10821TIP3   OH253877   0.316   3.698  11.986 -0.4348 -0.3863  0.6281
10821TIP3    H153878   0.383   3.671  11.924 -0.4735 -3.1919  1.7637
10821TIP3    H253879   0.358   3.768  12.037 -0.1274  1.3655 -1.9228
10822TIP3   OH253880   5.314   5.699   5.790 -0.2250  0.3223  0.4043
10822TIP3    H153881   5.357   5.742   5.864  0.7723  0.3474 -0.1857
10822TIP3    H253882   5.288   5.771   5.732  0.8987  0.1675 -0.2916
10823TIP3   OH253883   4.101   5.075  11.708  0.3114 -0.2324  0.0501
10823TIP3    H153884   4.065   5.043  11.792 -0.0283 -1.9059 -0.7165
10823TIP3    H253885   4.038   5.044  11.643  1.2073  0.0549 -0.9411
10824TIP3   OH253886   2.240   2.094  14.439 -0.4985  0.2698 -0.5018
10824TIP3    H153887   2.183   2.085  14.516 -1.0230  1.2901 -0.7659
10824TIP3    H253888   2.207   2.172  14.394  0.8583  0.6418 -0.8652
10825TIP3   OH253889   6.641   4.528   1.095  0.1140 -0.3081  0.5012
10825TIP3    H153890   6.722   4.479   1.079 -0.4727 -2.4186  3.5178
10825TIP3    H253891   6.575   4.485   1.040  0.4818 -0.2222 -0.0134
10826TIP3   OH253892   3.144   0.814   2.800 -0.2280 -0.1292  0.6033
10826TIP3    H153893   3.115   0.796   2.710 -0.9258  1.5818  0.4656
10826TIP3    H253894   3.226   0.861   2.789 -0.2812  0.0212  0.8550
10827TIP3   OH253895   4.377   6.338   2.594  0.1132 -0.1339  0.6336
10827TIP3    H153896   4.328   6.398   2.538  1.1322  0.2929  0.1836
10827TIP3    H253897   4.469   6.358   2.576  0.4653 -1.5307  0.8072
10828TIP3   OH253898   2.015   1.684  11.147  0.3130  0.3039  0.1538
10828TIP3    H153899   2.015   1.728  11.231 -1.3300 -0.6644  0.7003
10828TIP3    H253900   2.043   1.595  11.166  3.6529  1.0670 -0.9442
10829TIP3   OH253901   0.499   6.128   6.567 -0.3387 -0.2132  0.4032
10829TIP3    H153902   0.553   6.049   6.564 -1.3965 -0.9455  0.2848
10829TIP3    H253903   0.483   6.150   6.476  1.2043  1.0224  0.4164
10830TIP3   OH253904   6.600   3.355   3.014 -0.1453  0.2806 -0.0593
10830TIP3    H153905   6.527   3.398   2.969  1.0045  1.9908 -0.3347
10830TIP3    H253906   6.675   3.369   2.956  1.1281  1.5968  1.8475
10831TIP3   OH253907   6.075   0.386  12.700 -0.2202  0.1655 -1.0302
10831TIP3    H153908   6.083   0.442  12.778  3.0606  0.3898 -1.4682
10831TIP3    H253909   6.050   0.300  12.735 -0.5915  0.7140  0.0925
10832TIP3   OH253910   2.035   5.585   4.885  0.5610 -0.0662 -0.0218
10832TIP3    H153911   2.011   5.493   4.895 -3.0333  0.6840 -0.8808
10832TIP3    H253912   2.053   5.595   4.792 -1.2557  0.5036 -0.3468
10833TIP3   OH253913   3.195   5.649   3.308 -0.0097  0.0733  0.1917
10833TIP3    H153914   3.142   5.719   3.346 -1.7705 -1.4314  0.6043
10833TIP3    H253915   3.196   5.580   3.374  1.5808 -0.3579 -0.2624
10834TIP3   OH253916   0.931   6.255  14.608  0.2445 -0.1544 -0.2327
10834TIP3    H153917   0.863   6.317  14.635 -0.3457 -1.2516  0.8741
10834TIP3    H253918   1.006   6.275  14.663 -0.6593 -1.8009  1.6428
10835TIP3   OH253919   2.905   6.684   3.330  1.2277  0.4100  0.6849
10835TIP3    H153920   2.919   6.726   3.414 -0.7567  1.6543  0.4302
10835TIP3    H253921   2.986   6.701   3.280  1.7615  1.0212  1.7592
10836TIP3   OH253922   0.845   6.733  13.471  0.2671  0.0403  0.6039
10836TIP3    H153923   0.790   6.809  13.451 -0.1515 -0.0191  1.5396
10836TIP3    H253924   0.921   6.770  13.516 -0.1917 -0.1525  1.5392
10837TIP3   OH253925   6.428   0.872  11.101  0.1324 -0.7471 -0.0934
10837TIP3    H153926   6.498   0.808  11.118  0.3766 -0.7257 -0.9597
10837TIP3    H253927   6.462   0.955  11.135  1.0835 -0.4730 -1.6374
10838TIP3   OH253928   4.216   5.843   1.273  0.1758  0.4545  0.1204
10838TIP3    H153929   4.274   5.808   1.204 -1.1560 -1.3366 -0.1236
10838TIP3    H253930   4.134   5.862   1.228 -0.3373  0.3396  0.9972
10839TIP3   OH253931   5.116   6.387   2.862 -0.3010 -0.1209 -0.7059
10839TIP3    H153932   5.028   6.416   2.885  0.9698  1.2434  2.8511
10839TIP3    H253933   5.165   6.468   2.848  0.8845 -0.7971 -0.5195
10840TIP3   OH253934   4.894   5.077  14.971 -0.3020  0.3370  0.2082
10840TIP3    H153935   4.864   5.160  14.933  0.6488 -0.2439 -1.9067
10840TIP3    H253936   4.873   5.012  14.905 -1.0809 -1.1372  1.8837
10841TIP3   OH253937   6.462   1.980   3.774 -0.6216  0.3726  0.2996
10841TIP3    H153938   6.402   2.030   3.829  0.6441  2.9843 -0.5882
10841TIP3    H253939   6.466   2.030   3.692  0.1259 -1.6130 -0.9089
10842TIP3   OH253940   5.665   5.206  15.037  0.8549  0.1443 -0.0228
10842TIP3    H153941   5.588   5.256  15.066  0.4590 -0.7424  0.4821
10842TIP3    H253942   5.734   5.231  15.098  0.5048 -0.3603  0.5776
10843TIP3   OH253943   4.927   0.739  11.278 -0.2692  0.0451 -0.6404
10843TIP3    H153944   4.932   0.644  11.269  1.5243  0.1080 -0.5923
10843TIP3    H253945   4.879   0.752  11.360  0.8379 -0.8697  0.1847
10844TIP3   OH253946   2.920   3.528  10.722 -0.0664 -0.5546 -0.6749
10844TIP3    H153947   2.842   3.489  10.681  0.7322  0.1560 -2.9247
10844TIP3    H253948   2.991   3.510  10.661  1.3563 -0.3107  0.8861
10845TIP3   OH253949   3.326   0.538  11.678 -0.2371  0.4837  0.6331
10845TIP3    H153950   3.279   0.619  11.663  0.6015  1.1329  1.4811
10845TIP3    H253951   3.395   0.538  11.611  0.4084  0.9767  1.2942
10846TIP3   OH253952   3.531   0.511  14.800  0.1246  0.1493  0.4170
10846TIP3    H153953   3.494   0.494  14.713  1.6316 -1.5951  0.0780
10846TIP3    H253954   3.540   0.606  14.804 -0.8346  0.3232 -0.9587
10847TIP3   OH253955   4.553   5.930   3.285  0.1853  0.3424  0.5199
10847TIP3    H153956   4.634   5.980   3.299  0.1364  0.1528  1.5496
10847TIP3    H253957   4.526   5.905   3.373  1.0715 -2.8641 -0.0545
10848TIP3   OH253958   0.796   0.792  14.208  0.1052  0.3681  0.1842
10848TIP3    H153959   0.885   0.806  14.239 -0.1710 -1.5061  1.8647
10848TIP3    H253960   0.740   0.809  14.284 -0.9319  0.6960 -0.6271
10849TIP3   OH253961   3.818   1.313   0.598 -0.3974 -0.4502  0.0669
10849TIP3    H153962   3.889   1.287   0.538  1.0140  0.6973  1.1875
10849TIP3    H253963   3.738   1.304   0.546  0.6280 -1.0838 -1.4567
10850TIP3   OH253964   0.978   1.979   1.705 -0.5609 -0.0028  0.0308
10850TIP3    H153965   1.072   1.998   1.709 -0.6254  0.1435  0.9211
10850TIP3    H253966   0.971   1.902   1.648  0.2267 -0.8378  1.0442
10851TIP3   OH253967   1.376   6.515   5.520  0.3255  0.4189 -0.6839
10851TIP3    H153968   1.352   6.548   5.606 -2.0151  0.0189 -1.1463
10851TIP3    H253969   1.402   6.424   5.534  1.9917  0.9798 -0.1113
10852TIP3   OH253970   1.376   5.700   2.371 -0.0597 -0.5392 -0.7702
10852TIP3    H153971   1.441   5.735   2.310 -1.8000 -2.4392 -3.8590
10852TIP3    H253972   1.399   5.608   2.380 -0.3165 -0.4620  0.8530
10853TIP3   OH253973   3.796   1.345  15.110 -0.2004  0.0980 -0.2277
10853TIP3    H153974   3.841   1.265  15.083 -0.4924  0.0834 -0.6829
10853TIP3    H253975   3.814   1.353  15.203 -0.5399 -0.7423 -0.0898
10854TIP3   OH253976   4.510   6.301   0.762  0.1804 -0.1271  0.0149
10854TIP3    H153977   4.584   6.240   0.762 -0.5201 -0.9959 -1.1051
10854TIP3    H253978   4.444   6.260   0.818  1.6287  2.0438  3.4358
10855TIP3   OH253979   4.257   6.401   2.845  0.1614 -0.1581  0.2878
10855TIP3    H153980   4.232   6.309   2.860 -1.1140 -0.2606 -2.1530
10855TIP3    H253981   4.309   6.398   2.764 -1.6305  1.4861 -0.9594
10856TIP3   OH253982   3.052   5.891   3.723  0.3635  0.4511 -0.1297
10856TIP3    H153983   3.086   5.856   3.805 -0.4997  0.6075  0.2934
10856TIP3    H253984   3.067   5.985   3.729  0.5267  0.4335 -0.2581
10857TIP3   OH253985   4.095   5.695  12.396  0.1612  0.1049 -0.0022
10857TIP3    H153986   4.014   5.661  12.435 -0.3047 -0.8461 -1.7481
10857TIP3    H253987   4.087   5.675  12.303  1.8594  1.1269 -0.3832
10858TIP3   OH253988   1.336   1.624   0.632 -0.1036 -0.3081 -0.1977
10858TIP3    H153989   1.399   1.683   0.590 -1.9872  1.4420 -0.5859
10858TIP3    H253990   1.390   1.567   0.687  1.7970  1.3739 -0.2687
10859TIP3   OH253991   5.487   6.308  16.136 -0.2926  0.2592  0.0453
10859TIP3    H153992   5.412   6.338  16.085  0.3105  0.4964 -0.7091
10859TIP3    H253993   5.552   6.379  16.128  1.5121 -1.5774 -2.5471
10860TIP3   OH253994   3.004   2.449   5.264 -0.7387  0.2140  0.0595
10860TIP3    H153995   2.963   2.494   5.190 -1.4739 -1.2712 -0.4637
10860TIP3    H253996   3.091   2.424   5.231 -0.4005  1.0807  0.2894
10861TIP3   OH253997   4.358   4.481   2.853  0.6325  0.1616 -0.8640
10861TIP3    H153998   4.358   4.385   2.847  1.2397  0.1516 -0.6546
10861TIP3    H253999   4.353   4.499   2.947 -1.0552  0.3382 -0.9682
10862TIP3   OH254000   2.050   4.695   3.959  0.5317 -0.2492  0.0268
10862TIP3    H154001   2.028   4.755   4.030 -1.5907  1.3427 -1.9267
10862TIP3    H254002   2.143   4.711   3.941  0.5811  0.7256  1.1115
10863TIP3   OH254003   1.144   1.946  11.786  0.1012 -0.3742 -0.0367
10863TIP3    H154004   1.089   1.869  11.775 -0.8196  0.2083  0.3517
10863TIP3    H254005   1.104   1.994  11.859  1.2525 -0.0422  0.3842
10864TIP3   OH254006   0.102   1.840   6.573  0.3725 -0.3795 -0.5286
10864TIP3    H154007   0.061   1.776   6.514  0.8846 -2.3567  1.1960
10864TIP3    H254008   0.196   1.825   6.564  0.4629 -0.5512  0.6172
10865TIP3   OH254009   2.694   2.114  13.646 -0.4420  0.5091 -0.2268
10865TIP3    H154010   2.760   2.051  13.616  0.8823  0.8594  1.8237
10865TIP3    H254011   2.693   2.182  13.580  0.5660  0.0201 -0.7583
10866TIP3   OH254012   2.479   5.679   2.735 -0.0810  0.0943  0.2233
10866TIP3    H154013   2.393   5.685   2.777 -0.1486 -2.0035  0.4512
10866TIP3    H254014   2.538   5.726   2.793 -1.0067  1.2829  0.2276
10867TIP3   OH254015   3.261   2.661   2.199  0.0981 -0.8420  0.3234
10867TIP3    H154016   3.311   2.584   2.224 -0.3740 -1.7410 -1.4193
10867TIP3    H254017   3.294   2.683   2.112  0.1356  0.8557  0.7482
10868TIP3   OH254018   3.880   3.221  11.276  0.0390 -0.4298  0.3941
10868TIP3    H154019   3.840   3.210  11.362  1.3807  0.2344  1.1202
10868TIP3    H254020   3.938   3.296  11.287 -1.0349  0.7314 -1.5437
10869TIP3   OH254021   0.636   1.157  16.339  0.1126  0.0036  0.3332
10869TIP3    H154022   0.564   1.178  16.400  1.3776 -0.5420  2.0427
10869TIP3    H254023   0.645   1.062  16.345  1.8357  0.2053  1.1220
10870TIP3   OH254024   0.800   5.635  13.373  0.5730  0.4559  0.5558
10870TIP3    H154025   0.712   5.660  13.344  1.4658  0.4442 -2.3425
10870TIP3    H254026   0.855   5.710  13.350  1.9225 -0.9697 -0.9698
10871TIP3   OH254027   5.645   3.885   5.708 -0.0465 -0.2730  0.3750
10871TIP3    H154028   5.681   3.959   5.660 -0.0652  0.9398  2.1972
10871TIP3    H254029   5.722   3.839   5.742 -0.1005  0.3477  1.3517
10872TIP3   OH254030   4.733   4.356   1.583 -0.0375 -0.0445  0.3637
10872TIP3    H154031   4.686   4.278   1.552 -1.4197  1.4216 -1.2799
10872TIP3    H254032   4.702   4.368   1.673 -1.5170 -0.0807 -0.1316
10873TIP3   OH254033   4.292   1.405  12.646  0.3105  0.4433  0.1561
10873TIP3    H154034   4.318   1.313  12.645  1.5815  0.7969 -2.5332
10873TIP3    H254035   4.242   1.417  12.565 -1.1119  1.7962  1.1953
10874TIP3   OH254036   3.925   4.323   0.603  0.7102  0.3455  0.0397
10874TIP3    H154037   3.989   4.255   0.584  1.3541  0.8311  0.4465
10874TIP3    H254038   3.905   4.361   0.517 -1.5023 -1.9698 -0.5036
10875TIP3   OH254039   6.587   6.106   1.177  0.4627  0.7094  0.3002
10875TIP3    H154040   6.633   6.038   1.226  0.3709  1.1415  0.9931
10875TIP3    H254041   6.538   6.058   1.110  0.8611  0.1424  0.4140
10876TIP3   OH254042   3.819   5.302  14.932  0.1428  0.7517 -0.3981
10876TIP3    H154043   3.772   5.327  15.012  1.3905  3.8582 -0.5528
10876TIP3    H254044   3.905   5.271  14.963  0.2110  0.8791 -0.4589
10877TIP3   OH254045   4.144   6.569   6.500 -0.0148  0.1632  0.1910
10877TIP3    H154046   4.064   6.533   6.538 -0.2626  0.8687  0.3415
10877TIP3    H254047   4.130   6.563   6.406  0.0648 -0.3993  0.2135
10878TIP3   OH254048   6.751   6.411   1.400  0.1531  0.3421 -0.1018
10878TIP3    H154049   6.745   6.317   1.417  1.0826  0.0507 -1.2504
10878TIP3    H254050   6.660   6.440   1.392 -0.1214 -0.6831 -0.8375
10879TIP3   OH254051   1.349   6.204  16.813  0.1625  0.1493  0.1767
10879TIP3    H154052   1.316   6.293  16.803  0.1841 -0.0434 -1.8410
10879TIP3    H254053   1.443   6.215  16.824  0.1239  0.4027  0.2652
10880TIP3   OH254054   1.950   0.409  12.285 -0.3875  0.0627 -0.1423
10880TIP3    H154055   1.886   0.356  12.334 -0.9737 -0.0533 -1.0273
10880TIP3    H254056   1.914   0.498  12.288 -0.1353  0.1598  0.1041
10881TIP3   OH254057   0.315   4.383  15.423  0.2955 -0.5564  0.3553
10881TIP3    H154058   0.312   4.424  15.510  2.1060  1.9753 -0.7346
10881TIP3    H254059   0.387   4.321  15.428 -0.1731 -1.0592  0.9282
10882TIP3   OH254060   1.060   4.589  12.424  0.0128 -0.4571 -0.0699
10882TIP3    H154061   1.090   4.530  12.354  0.5940 -0.4726  0.1936
10882TIP3    H254062   0.970   4.560  12.442  0.5817 -1.8054  0.6456
10883TIP3   OH254063   0.989   2.228  10.764  0.3054  0.0651 -0.2641
10883TIP3    H154064   0.918   2.288  10.787  0.3350 -0.1644  0.4362
10883TIP3    H254065   0.975   2.208  10.671  1.2452  2.4433 -0.9649
10884TIP3   OH254066   0.942   5.908  13.592 -0.4166 -0.0973  0.0022
10884TIP3    H154067   0.996   5.947  13.660 -0.2145  1.2944 -0.9410
10884TIP3    H254068   0.858   5.891  13.634  0.4768 -1.5235  1.2608
10885TIP3   OH254069   6.150   6.700   5.501 -0.2624 -0.0654 -0.1241
10885TIP3    H154070   6.220   6.671   5.559  1.1149  2.0149 -0.6633
10885TIP3    H254071   6.185   6.689   5.413 -1.9755 -2.2867 -0.5815
10886TIP3   OH254072   1.264   1.079   5.108 -0.2214  0.1347 -0.6576
10886TIP3    H154073   1.190   1.111   5.159  0.3530  0.4891 -0.0416
10886TIP3    H254074   1.316   1.028   5.170  0.1572  0.0639 -1.0326
10887TIP3   OH254075   5.115   2.443  11.980 -0.4699  0.2494 -0.1164
10887TIP3    H154076   5.083   2.519  12.027  1.3895  1.0774 -0.1755
10887TIP3    H254077   5.190   2.412  12.031 -1.0409 -1.3721 -0.2342
10888TIP3   OH254078   3.003   5.463  12.440 -0.0566 -0.1552 -0.2547
10888TIP3    H154079   2.921   5.418  12.420 -0.9699  1.9877 -1.4619
10888TIP3    H254080   3.051   5.462  12.357  0.7698 -0.5780  0.2144
10889TIP3   OH254081   0.083   1.455   2.795 -0.5870  0.4950  0.5217
10889TIP3    H154082   0.098   1.532   2.850  0.4457 -1.9396  3.8096
10889TIP3    H254083   0.139   1.469   2.719  1.4561  1.8825  2.2132
10890TIP3   OH254084   1.708   4.577  15.076 -0.2382 -0.2793 -0.0557
10890TIP3    H154085   1.703   4.529  15.158 -0.7838 -1.5030 -0.7885
10890TIP3    H254086   1.797   4.563  15.045  0.2510  0.9421  0.7645
10891TIP3   OH254087   0.392   2.201  13.719  0.0564 -0.2381 -0.0213
10891TIP3    H154088   0.416   2.273  13.660 -1.4921 -0.9897 -1.6154
10891TIP3    H254089   0.462   2.137  13.708  0.7196  0.4092  0.3564
10892TIP3   OH254090   6.222   1.590  13.900  0.1826 -0.2523  0.1216
10892TIP3    H154091   6.183   1.514  13.856  1.0117 -0.7850  0.3046
10892TIP3    H254092   6.147   1.637  13.936 -0.2131 -2.0790  1.7736
10893TIP3   OH254093   6.222   2.234  13.890  0.7188  0.0308 -0.2159
10893TIP3    H154094   6.180   2.315  13.860 -0.8006 -0.6443  0.0065
10893TIP3    H254095   6.162   2.201  13.957  1.9576 -0.6409  0.5604
10894TIP3   OH254096   3.378   4.123  15.831  0.6099  0.5065 -0.0633
10894TIP3    H154097   3.363   4.056  15.898 -2.1722 -0.7335 -1.8684
10894TIP3    H254098   3.404   4.074  15.753  0.2997  1.6763 -0.9156
10895TIP3   OH254099   3.165   6.340   1.828 -0.3007  0.0186  0.1368
10895TIP3    H154100   3.210   6.424   1.822 -0.0381  0.0110  1.8222
10895TIP3    H254101   3.231   6.276   1.802  0.2519  0.1296  1.2372
10896TIP3   OH254102   2.154   3.653  16.729  0.1705 -0.2042  0.1516
10896TIP3    H154103   2.166   3.649  16.634 -0.5724 -0.8835  0.0893
10896TIP3    H254104   2.196   3.736  16.754  2.2150 -1.0119 -0.4771
10897TIP3   OH254105   3.215   5.098   3.753 -0.2516 -0.4823 -0.1794
10897TIP3    H154106   3.231   5.012   3.715  0.3892 -0.9346  1.0949
10897TIP3    H254107   3.275   5.157   3.707  2.2534 -1.4438  1.7467
10898TIP3   OH254108   6.383   6.754   0.452  0.5166 -0.2879  0.2631
10898TIP3    H154109   6.463   6.720   0.413  1.3014  2.3178 -0.4417
10898TIP3    H254110   6.381   6.715   0.539  2.3310 -0.6739  0.1533
10899TIP3   OH254111   0.494   2.786   5.059 -0.5286 -0.5125  0.2045
10899TIP3    H154112   0.548   2.718   5.099 -1.8101 -1.5838  0.1079
10899TIP3    H254113   0.459   2.746   4.980  1.2434  1.2965 -1.5360
10900TIP3   OH254114   2.158   5.918  12.775  0.0543 -0.3543  0.1343
10900TIP3    H154115   2.092   5.912  12.705  1.0850 -0.5424 -0.8349
10900TIP3    H254116   2.205   5.999  12.757 -1.4243  0.9863  2.1864
10901TIP3   OH254117   0.618   2.551  11.744  0.0323  0.4378 -0.0590
10901TIP3    H154118   0.528   2.566  11.774 -0.4306  0.5539 -1.4773
10901TIP3    H254119   0.671   2.610  11.798 -0.8323  0.9672  0.2226
10902TIP3   OH254120   2.463   1.132  16.326  0.1191 -0.3484 -0.1214
10902TIP3    H154121   2.426   1.084  16.400  0.1793  1.1295  0.8815
10902TIP3    H254122   2.408   1.107  16.251 -0.9762 -0.5586  0.7429
10903TIP3   OH254123   2.686   4.983   1.757 -0.9092  0.4555 -0.0268
10903TIP3    H154124   2.640   5.036   1.822 -1.0745 -0.0598  0.2714
10903TIP3    H254125   2.734   4.918   1.808  0.7924  1.4784 -0.2755
10904TIP3   OH254126   1.874   3.292  17.238 -0.4355  0.1791 -0.5494
10904TIP3    H154127   1.828   3.291  17.321  0.4624 -0.2425 -0.0480
10904TIP3    H254128   1.932   3.369  17.244 -0.5028  0.2565 -0.8616
10905TIP3   OH254129   3.963   6.346  16.011 -0.4495  0.1648 -0.2358
10905TIP3    H154130   3.986   6.281  16.077 -0.3044 -1.2597 -1.6370
10905TIP3    H254131   3.882   6.312  15.972 -0.5791  1.0295 -0.7249
10906TIP3   OH254132   0.726   1.210   5.383  0.1781  0.0636 -0.2747
10906TIP3    H154133   0.716   1.123   5.421 -1.6481  0.6138  0.5259
10906TIP3    H254134   0.749   1.266   5.458 -0.3925  0.5849 -0.4877
10907TIP3   OH254135   6.274   0.668   2.101  0.1601  0.1906  0.3302
10907TIP3    H154136   6.225   0.591   2.129  0.8987 -0.3949  0.0331
10907TIP3    H254137   6.264   0.731   2.173 -0.6098 -0.1056  0.4815
10908TIP3   OH254138   1.142   1.823  11.296 -0.0254 -0.0262  0.4913
10908TIP3    H154139   1.222   1.788  11.334 -1.0735  0.1097  2.9347
10908TIP3    H254140   1.072   1.791  11.353 -2.0255 -2.2454 -2.9657
10909TIP3   OH254141   6.627   1.399   2.894  0.2454 -0.6724  0.2364
10909TIP3    H154142   6.573   1.324   2.868 -0.4089  0.1052 -0.7181
10909TIP3    H254143   6.681   1.416   2.816  0.6738 -0.4060  0.5948
10910TIP3   OH254144   0.307   6.473  14.996 -0.8445  0.1224 -1.3150
10910TIP3    H154145   0.327   6.548  15.052 -1.6187 -1.1225  0.6706
10910TIP3    H254146   0.391   6.448  14.958  0.1039 -0.3412  1.0081
10911TIP3   OH254147   1.096   1.297   2.174  0.1822 -0.5086  0.1827
10911TIP3    H154148   1.042   1.322   2.250  1.7528  1.9248  0.5369
10911TIP3    H254149   1.128   1.209   2.196 -1.8591 -1.1068  0.9352
10912TIP3   OH254150   4.701   3.273   3.611  0.0567 -0.0050 -0.1196
10912TIP3    H154151   4.763   3.213   3.655  0.9405  0.1684 -1.1066
10912TIP3    H254152   4.721   3.263   3.518 -1.1640  0.3399 -0.4154
10913TIP3   OH254153   5.803   6.220   3.415 -0.1420  0.2331 -0.0336
10913TIP3    H154154   5.774   6.282   3.348 -2.5343 -0.9321 -0.1397
10913TIP3    H254155   5.855   6.272   3.475  1.1056  1.5371 -2.1878
10914TIP3   OH254156   5.401   0.975  14.047  0.6674 -0.8369 -0.3561
10914TIP3    H154157   5.496   0.966  14.039  0.5843 -1.8836 -0.3370
10914TIP3    H254158   5.379   1.053  13.997  1.6842  0.1041  0.6410
10915TIP3   OH254159   6.173   2.643  14.511 -0.4908 -0.0456  0.0098
10915TIP3    H154160   6.168   2.584  14.586  1.0005 -1.4269 -0.9278
10915TIP3    H254161   6.221   2.719  14.543  0.6488 -0.8772  0.3391
10916TIP3   OH254162   5.450   2.795   5.730 -0.4482 -0.0201  0.2300
10916TIP3    H154163   5.521   2.851   5.700 -2.1209  1.4627 -1.0730
10916TIP3    H254164   5.396   2.853   5.785 -1.1514 -0.8580  0.4313
10917TIP3   OH254165   4.284   1.317   3.231  0.0854 -0.4166  0.1281
10917TIP3    H154166   4.324   1.314   3.318  0.6690 -2.1948 -0.1949
10917TIP3    H254167   4.358   1.316   3.170 -0.4010 -1.9493 -0.4448
10918TIP3   OH254168   2.970   5.429  13.188 -0.0307 -0.4548 -0.0154
10918TIP3    H154169   2.882   5.459  13.167 -0.2145 -0.4312  0.7883
10918TIP3    H254170   3.013   5.505  13.227 -0.2368 -0.9783  1.2690
10919TIP3   OH254171   2.007   0.572   0.618 -0.0273 -0.1013  1.4227
10919TIP3    H154172   2.033   0.613   0.701 -3.1215  0.3968  2.1882
10919TIP3    H254173   1.977   0.644   0.564  2.2042 -0.3981 -0.2782
10920TIP3   OH254174   1.483   6.423   4.265 -0.3378  0.4782 -0.1549
10920TIP3    H154175   1.452   6.453   4.350 -3.3829  0.0104 -1.0032
10920TIP3    H254176   1.524   6.500   4.225  0.0946  0.9973  1.2709
10921TIP3   OH254177   2.180   6.523   2.657  0.3202  0.0494 -0.1823
10921TIP3    H154178   2.274   6.514   2.670  0.4144  0.1746 -0.7880
10921TIP3    H254179   2.145   6.531   2.746  0.8261 -0.4720  0.0705
10922TIP3   OH254180   2.197   6.584   3.506 -0.2624 -0.1951 -0.2138
10922TIP3    H154181   2.124   6.587   3.568  1.8285 -0.8709  2.3755
10922TIP3    H254182   2.207   6.675   3.476 -1.1388  0.1770  0.5990
10923TIP3   OH254183   4.270   2.219  13.262  0.7484 -0.2616 -0.8400
10923TIP3    H154184   4.193   2.179  13.219  0.9620  0.2024 -1.6750
10923TIP3    H254185   4.337   2.220  13.194  1.4767 -0.5960 -0.1298
10924TIP3   OH254186   3.636   5.883   5.482 -0.1241  0.7597  0.0325
10924TIP3    H154187   3.716   5.900   5.533 -0.8838 -1.5213  2.0978
10924TIP3    H254188   3.656   5.806   5.430 -0.1846  1.6397 -1.3213
10925TIP3   OH254189   4.334   2.150  13.823  0.0909 -0.1995  0.7249
10925TIP3    H154190   4.381   2.078  13.781 -1.2218 -0.2454 -0.7394
10925TIP3    H254191   4.258   2.165  13.766 -0.5457  1.2318  1.9139
10926TIP3   OH254192   5.299   5.482   6.027 -0.0080  0.1764 -0.0312
10926TIP3    H154193   5.236   5.548   5.995 -1.3679 -1.5752 -1.0505
10926TIP3    H254194   5.323   5.513   6.114 -0.6301  2.0183 -0.4811
10927TIP3   OH254195   6.525   1.966   1.442 -0.1647  0.6397 -0.2612
10927TIP3    H154196   6.473   1.967   1.361 -0.3313  0.1733 -0.1650
10927TIP3    H254197   6.564   2.053   1.447  1.0607  0.2013 -1.6376
10928TIP3   OH254198   3.526   4.356  12.487 -0.4503  0.4999 -0.5033
10928TIP3    H154199   3.470   4.406  12.548  0.4310 -0.0296  0.7643
10928TIP3    H254200   3.593   4.419  12.460  0.5790  0.0741  0.9866
10929TIP3   OH254201   5.351   5.957   1.399  0.2654  0.5535  0.5184
10929TIP3    H154202   5.340   6.044   1.361  1.4389  0.1863 -0.7147
10929TIP3    H254203   5.436   5.961   1.444  0.9553 -0.3245 -0.6669
10930TIP3   OH254204   0.449   3.826  14.636 -0.1391 -0.5813 -0.6000
10930TIP3    H154205   0.425   3.754  14.578 -0.2363 -0.0984 -1.1662
10930TIP3    H254206   0.401   3.901  14.601  0.5909 -0.0636 -0.4938
10931TIP3   OH254207   5.860   6.674   5.429  0.6562  0.4740 -0.1796
10931TIP3    H154208   5.947   6.664   5.468  0.5538  0.4497  0.0446
10931TIP3    H254209   5.857   6.766   5.402  0.6953  0.5116 -0.0559
10932TIP3   OH254210   6.655   0.205   4.894  0.4410  0.0219  0.1782
10932TIP3    H154211   6.596   0.279   4.908  0.4392 -0.3843  2.6194
10932TIP3    H254212   6.616   0.133   4.945  2.3502 -0.5945  0.8165
10933TIP3   OH254213   2.801   0.202   0.992 -0.4910 -0.2523  0.3890
10933TIP3    H154214   2.873   0.149   0.959 -1.0895 -0.3193 -0.8208
10933TIP3    H254215   2.734   0.198   0.924 -0.7096  1.7184  0.4593
10934TIP3   OH254216   0.029   1.173   2.731 -0.1414  0.4408 -0.6663
10934TIP3    H154217   0.033   1.268   2.719  0.1312  0.8212  2.2880
10934TIP3    H254218   0.120   1.145   2.730 -0.1727  0.3362 -0.3641
10935TIP3   OH254219   0.235   4.922  14.525 -0.0675 -0.7770 -0.1564
10935TIP3    H154220   0.322   4.938  14.560 -0.0211 -3.2366  0.9237
10935TIP3    H254221   0.250   4.892  14.435  0.1206 -0.3506 -0.2732
10936TIP3   OH254222   3.251   6.385   0.730 -0.5974  0.4345 -0.0243
10936TIP3    H154223   3.166   6.340   0.725  0.7497 -2.1225 -1.2785
10936TIP3    H254224   3.287   6.358   0.815 -0.4884  0.4510 -0.0652
10937TIP3   OH254225   1.407   0.732   0.032  0.0032  0.4703 -0.2629
10937TIP3    H154226   1.444   0.699  -0.050 -1.8210 -1.1342 -0.4889
10937TIP3    H254227   1.358   0.810   0.007  0.7967  0.9152 -0.4330
10938TIP3   OH254228   6.156   4.542  11.279  0.1225  0.0571  0.4513
10938TIP3    H154229   6.066   4.528  11.306 -0.7630  2.1446 -1.3100
10938TIP3    H254230   6.202   4.462  11.306 -1.9506 -0.4869  2.5113
10939TIP3   OH254231   1.021   5.389  12.192 -0.0382  0.2403 -0.1341
10939TIP3    H154232   1.083   5.353  12.256  0.5443  0.8647 -0.3464
10939TIP3    H254233   1.073   5.404  12.114 -0.1339  2.0957  0.1273
10940TIP3   OH254234   0.581   5.611  12.928 -0.1759 -0.0046  0.0537
10940TIP3    H154235   0.522   5.686  12.936 -1.9667 -1.5630  2.2140
10940TIP3    H254236   0.640   5.619  13.003  0.3446 -0.1407 -0.3415
10941TIP3   OH254237   6.648   4.076   2.112  0.2059 -0.3415 -0.5874
10941TIP3    H154238   6.616   4.165   2.125  0.9499  0.0394 -1.3189
10941TIP3    H254239   6.569   4.022   2.110 -0.2748  0.3512 -0.5265
10942TIP3   OH254240   4.111   2.726  15.125 -0.3006 -0.1309 -0.2667
10942TIP3    H154241   4.090   2.633  15.112 -0.9806 -0.1933  1.2409
10942TIP3    H254242   4.165   2.728  15.204 -0.4734  0.7900 -0.1677
10943TIP3   OH254243   6.283   0.835  11.328 -0.5267  1.0798  0.1901
10943TIP3    H154244   6.291   0.928  11.350  0.8886  0.8102  0.9168
10943TIP3    H254245   6.317   0.830  11.238 -2.0887  1.4985 -0.4336
10944TIP3   OH254246   2.218   2.105  12.448 -0.0887 -0.7353 -0.0863
10944TIP3    H154247   2.221   2.143  12.360 -0.1668 -2.7070 -0.9666
10944TIP3    H254248   2.308   2.078  12.465 -0.0222 -0.1236  0.5646
10945TIP3   OH254249   0.079   6.124  14.311 -0.5973 -0.1372 -0.0209
10945TIP3    H154250   0.047   6.035  14.295 -0.2102  0.1555 -2.6129
10945TIP3    H254251   0.174   6.114  14.316 -0.5987  0.0381  0.3427
10946TIP3   OH254252   4.852   0.164   4.480 -0.2350  0.4135  0.2205
10946TIP3    H154253   4.773   0.148   4.531 -0.6920  2.4572  0.2042
10946TIP3    H254254   4.835   0.248   4.436  1.2624  0.0411 -1.0998
10947TIP3   OH254255   3.757   0.912  15.745  0.5314  0.3037 -0.2421
10947TIP3    H154256   3.713   0.987  15.705 -1.1839 -0.9936 -0.8284
10947TIP3    H254257   3.829   0.893  15.685  0.0893  0.5695 -0.8672
10948TIP3   OH254258   2.389   1.024  13.427  0.4017  0.0475 -0.7007
10948TIP3    H154259   2.321   1.080  13.465  0.3907 -0.4997  0.0854
10948TIP3    H254260   2.372   1.027  13.333 -1.2868 -0.7933 -0.4525
10949TIP3   OH254261   3.110   1.903   6.050 -0.4528  0.0587  0.0750
10949TIP3    H154262   3.113   1.818   6.006 -0.6662 -0.6075  1.3261
10949TIP3    H254263   3.020   1.911   6.081 -0.7239  1.2319 -0.9654
10950TIP3   OH254264   0.708   0.013   1.805 -0.2978 -0.3623  0.0154
10950TIP3    H154265   0.701   0.091   1.750  0.0634 -0.6846 -0.5002
10950TIP3    H254266   0.699   0.045   1.895  1.5604  0.4951 -0.0844
10951TIP3   OH254267   1.584   4.257  12.403 -0.3407  0.7353  0.5286
10951TIP3    H154268   1.654   4.223  12.348 -0.5840 -0.7635  1.1359
10951TIP3    H254269   1.594   4.352  12.398  0.4048  0.5898 -1.1042
10952TIP3   OH254270   2.154   1.793   0.485 -0.0757 -0.2753 -0.1814
10952TIP3    H154271   2.063   1.817   0.500  0.1626  0.5139  0.0384
10952TIP3    H254272   2.164   1.794   0.390  0.2304  1.6899 -0.1515
10953TIP3   OH254273   0.755   2.927  11.623 -0.2548 -0.6618 -0.2935
10953TIP3    H154274   0.835   2.977  11.641 -1.0829  0.3548  0.6678
10953TIP3    H254275   0.786   2.837  11.610  1.0782 -0.2293 -0.2576
10954TIP3   OH254276   2.341   4.916  15.328 -0.2855 -0.5045 -0.2789
10954TIP3    H154277   2.397   4.994  15.320  1.7335 -1.9070 -0.1691
10954TIP3    H254278   2.258   4.950  15.361  0.9926  1.4365  1.0523
10955TIP3   OH254279   2.768   3.300   1.549 -0.8394  0.6412  0.4400
10955TIP3    H154280   2.718   3.381   1.553  0.1938  1.2864  0.4529
10955TIP3    H254281   2.845   3.321   1.497 -1.2354 -0.7113 -0.7323
10956TIP3   OH254282   2.009   2.075   3.194  0.2578  0.2547  0.1146
10956TIP3    H154283   2.030   1.985   3.218  0.1910 -0.6371 -2.9618
10956TIP3    H254284   1.934   2.097   3.249 -1.1654 -2.4004 -0.6772
10957TIP3   OH254285   4.601   4.314  13.119  0.4745  0.1467 -0.1471
10957TIP3    H154286   4.544   4.237  13.117  0.7661 -0.0661 -0.3294
10957TIP3    H254287   4.566   4.368  13.190 -0.2824  0.2753 -0.6212
10958TIP3   OH254288   0.244   6.743  16.056 -0.4256  0.5557  0.3121
10958TIP3    H154289   0.259   6.827  16.012 -0.7930  0.4544 -0.0138
10958TIP3    H254290   0.191   6.765  16.133 -3.6346  0.2277 -1.6884
10959TIP3   OH254291   0.783   0.404   0.187  0.0840  0.0361  0.0729
10959TIP3    H154292   0.738   0.456   0.254  0.7401  0.8575 -0.1014
10959TIP3    H254293   0.861   0.370   0.232  0.3929  0.3797 -0.1949
10960TIP3   OH254294   1.518   1.361  16.875 -0.8544 -0.5384 -1.0896
10960TIP3    H154295   1.430   1.340  16.844 -0.5900 -0.3815 -1.9593
10960TIP3    H254296   1.531   1.453  16.850  0.1042 -0.9815 -2.2698
10961TIP3   OH254297   3.173   1.965  15.092  0.1046 -0.1364  0.3757
10961TIP3    H154298   3.214   1.964  15.006  1.3376  0.4864  0.9432
10961TIP3    H254299   3.093   2.016  15.080 -0.5009 -1.3239 -0.7319
10962TIP3   OH254300   4.439   3.579   4.842 -0.0765 -0.5153 -0.1223
10962TIP3    H154301   4.533   3.590   4.824 -0.1348  0.3684  0.0822
10962TIP3    H254302   4.423   3.633   4.919 -0.8759 -0.1565 -0.5334
10963TIP3   OH254303   2.749   4.045  14.413  0.3018  0.3818 -0.0151
10963TIP3    H154304   2.677   4.003  14.366  0.2780 -0.5109  0.8060
10963TIP3    H254305   2.741   4.138  14.390  0.3578 -0.0483 -1.8431
10964TIP3   OH254306   6.414   6.532   1.880 -0.2406  0.4318 -0.5456
10964TIP3    H154307   6.491   6.546   1.825 -0.8129  2.7584 -0.8040
10964TIP3    H254308   6.418   6.439   1.903  2.5695  0.4679 -0.6539
10965TIP3   OH254309   3.347   0.573   5.773  0.0411  0.6904  0.2884
10965TIP3    H154310   3.265   0.621   5.781 -0.4931 -0.4998  2.0854
10965TIP3    H254311   3.400   0.601   5.848  0.6446  0.2531  0.0354
10966TIP3   OH254312   5.209   4.760  11.801  0.2640  0.2619  0.1555
10966TIP3    H154313   5.290   4.790  11.759  0.2530  0.1303  0.0391
10966TIP3    H254314   5.140   4.783  11.740  0.4209 -1.5339 -0.7379
10967TIP3   OH254315   6.271   1.016  14.903 -0.2476  0.1856 -0.0320
10967TIP3    H154316   6.177   1.003  14.888 -0.4158  0.2061  1.0060
10967TIP3    H254317   6.312   0.937  14.868 -0.7628 -0.4056  0.6977
10968TIP3   OH254318   4.945   2.091   5.503  0.0684  0.5186 -0.3581
10968TIP3    H154319   4.910   2.017   5.453  1.1058  1.6097 -2.8216
10968TIP3    H254320   5.039   2.088   5.486  0.5237  0.6161  2.0218
10969TIP3   OH254321   5.623   0.104  15.414  0.2026  0.5066 -0.4786
10969TIP3    H154322   5.578   0.188  15.423 -0.4492  0.0806  0.2624
10969TIP3    H254323   5.689   0.119  15.347 -0.3601  1.4257 -0.8246
10970TIP3   OH254324   6.403   6.161  16.236  0.7115  0.2845 -0.3011
10970TIP3    H154325   6.496   6.165  16.256  0.8760 -0.7421 -0.8364
10970TIP3    H254326   6.378   6.071  16.253 -0.4430  0.8133  0.8858
10971TIP3   OH254327   3.848   6.508  14.225 -0.0370  1.0033  0.3042
10971TIP3    H154328   3.788   6.434  14.234 -1.0321  1.7651 -0.0393
10971TIP3    H254329   3.812   6.561  14.154  0.0002  2.4498  1.3383
10972TIP3   OH254330   1.277   1.033  16.739 -0.3750 -0.0532 -0.2075
10972TIP3    H154331   1.294   0.967  16.671  1.8254  0.4758 -0.2110
10972TIP3    H254332   1.210   0.994  16.795  0.3981 -2.0010 -0.6115
10973TIP3   OH254333   6.709   2.044  12.791 -0.6353  0.0632 -0.6434
10973TIP3    H154334   6.614   2.035  12.801 -0.6712 -0.4386 -1.3403
10973TIP3    H254335   6.721   2.065  12.698 -0.1718  1.8986 -0.1748
10974TIP3   OH254336   2.563   0.990  12.102 -0.4097  0.1585  0.3058
10974TIP3    H154337   2.552   0.902  12.137 -2.6199 -0.1039 -0.9621
10974TIP3    H254338   2.481   1.035  12.123 -0.3573  1.0793 -1.3921
10975TIP3   OH254339   6.608   0.257  16.416 -0.8275  0.3875  0.0282
10975TIP3    H154340   6.596   0.189  16.350 -0.7448 -0.1472  0.5635
10975TIP3    H254341   6.660   0.325  16.371  1.6285 -1.2065  0.3577
10976TIP3   OH254342   1.181   6.651  16.500  0.1065 -0.0751  0.2069
10976TIP3    H154343   1.143   6.580  16.449 -0.8743 -0.6085  1.6595
10976TIP3    H254344   1.210   6.714  16.434 -0.0554 -1.2834 -1.0547
10977TIP3   OH254345   1.080   4.523   5.623 -0.1127 -0.4811  0.5003
10977TIP3    H154346   1.171   4.545   5.642 -0.4302 -0.5259  2.0873
10977TIP3    H254347   1.036   4.608   5.617 -0.3717 -0.5155  1.8024
10978TIP3   OH254348   1.311   3.440   4.277 -0.8976 -0.5692 -0.5423
10978TIP3    H154349   1.354   3.514   4.319 -1.2454 -1.1433  0.8474
10978TIP3    H254350   1.317   3.458   4.183  0.2508  0.5191 -0.2572
10979TIP3   OH254351   2.459   5.745  12.571 -0.1470 -0.1082 -0.2981
10979TIP3    H154352   2.421   5.682  12.632  0.1309 -0.0978 -0.1128
10979TIP3    H254353   2.437   5.711  12.484  0.4583 -0.7479 -0.2098
10980TIP3   OH254354   4.665   4.823   5.995 -0.2554 -0.1214 -0.7554
10980TIP3    H154355   4.690   4.812   6.087  2.5989  4.2432 -0.8055
10980TIP3    H254356   4.720   4.761   5.947 -1.1376 -1.8100  0.3809
10981TIP3   OH254357   3.976   4.402  16.297 -0.0861 -0.6867  0.1670
10981TIP3    H154358   4.020   4.326  16.335  0.9065 -0.2843 -0.1640
10981TIP3    H254359   4.046   4.465  16.280 -0.4835 -0.8278 -2.2757
10982TIP3   OH254360   0.600   0.866   0.470 -0.7672 -0.3575 -0.0440
10982TIP3    H154361   0.658   0.795   0.499 -2.3610 -1.7168 -0.1423
10982TIP3    H254362   0.536   0.823   0.414 -1.4356  1.2604 -0.5235
10983TIP3   OH254363   5.230   1.439  14.950 -0.0347  0.0515  0.1562
10983TIP3    H154364   5.182   1.361  14.978  1.1633 -1.1180 -0.9265
10983TIP3    H254365   5.187   1.465  14.868 -0.1566  0.2753  0.2897
10984TIP3   OH254366   5.276   1.218  12.897 -0.4969  0.0827 -0.1378
10984TIP3    H154367   5.272   1.303  12.940  1.1471 -0.1531  0.5236
10984TIP3    H254368   5.282   1.155  12.969  0.3605 -0.4401 -0.6582
10985TIP3   OH254369   4.360   5.410   4.895 -0.0943 -0.1216  0.0532
10985TIP3    H154370   4.393   5.350   4.962 -1.7912  0.0860  1.0907
10985TIP3    H254371   4.428   5.478   4.889  1.7720 -2.0200 -1.0410
10986TIP3   OH254372   5.590   3.588  15.969  0.3262 -0.2440  0.4588
10986TIP3    H154373   5.500   3.618  15.979  0.3497  0.5995 -1.7146
10986TIP3    H254374   5.593   3.545  15.884  1.8980 -0.5000  0.6221
10987TIP3   OH254375   0.279   0.866   2.027 -0.1150  0.2538  0.3699
10987TIP3    H154376   0.352   0.929   2.026  0.0027  0.1139 -0.1766
10987TIP3    H254377   0.207   0.914   2.069  0.1261  0.5812  0.4166
10988TIP3   OH254378   0.907   2.245  15.762  0.4379 -0.4652  0.1750
10988TIP3    H154379   0.944   2.158  15.750  1.0362 -0.2970  0.7928
10988TIP3    H254380   0.950   2.299  15.695 -0.0521 -0.6787 -0.3123
10989TIP3   OH254381   0.803   1.572   2.673  0.4544  0.2956  0.0443
10989TIP3    H154382   0.757   1.556   2.591  1.9974 -0.5897 -0.6820
10989TIP3    H254383   0.890   1.604   2.647  0.4497  1.4800  1.3618
10990TIP3   OH254384   3.703   5.017   2.715 -0.4588  0.3115 -0.3860
10990TIP3    H154385   3.750   4.968   2.647 -0.3050  0.8596 -0.6819
10990TIP3    H254386   3.634   5.064   2.668 -1.3332 -0.5147  0.0544
10991TIP3   OH254387   3.377   4.826   1.976  0.0275 -0.3580  0.0364
10991TIP3    H154388   3.342   4.898   2.029 -0.8299  0.0370 -1.0548
10991TIP3    H254389   3.300   4.787   1.935  0.4881 -1.9035  0.6094
10992TIP3   OH254390   6.416   6.229  15.832  0.4025 -0.1753 -0.3355
10992TIP3    H154391   6.404   6.324  15.840  0.9873 -0.0008 -1.4637
10992TIP3    H254392   6.484   6.208  15.895 -0.6661 -0.0635  0.8905
10993TIP3   OH254393   0.047   6.055  16.336 -0.3701 -0.4081  0.4277
10993TIP3    H154394   0.054   5.967  16.298 -0.5654 -0.5645  0.7477
10993TIP3    H254395   0.017   6.040  16.425 -0.5605 -0.0048  0.4337
10994TIP3   OH254396   5.907   2.861   3.296 -0.0065  0.0496  0.1175
10994TIP3    H154397   5.872   2.948   3.274  1.1310  0.6485  0.6045
10994TIP3    H254398   5.996   2.862   3.259 -0.1237 -1.0488 -0.1976
10995TIP3   OH254399   1.508   0.683  11.655 -0.1419  0.0455  0.5665
10995TIP3    H154400   1.504   0.777  11.672  1.0181  0.3984 -0.9245
10995TIP3    H254401   1.496   0.676  11.560  1.5242 -1.1580  0.4208
10996TIP3   OH254402   1.069   0.680   0.957 -0.5028  0.0337 -0.4854
10996TIP3    H154403   1.093   0.770   0.979 -0.2288 -0.2320  0.3540
10996TIP3    H254404   0.990   0.688   0.904 -0.3259  0.7803 -0.6388
10997TIP3   OH254405   2.487   6.395  12.229  0.7937  0.4589 -0.8187
10997TIP3    H154406   2.414   6.334  12.224  1.4502 -0.4267  0.3572
10997TIP3    H254407   2.520   6.399  12.139  0.2199 -0.2609 -1.0673
10998TIP3   OH254408   3.781   3.040  10.466  0.5551 -0.2848 -0.1533
10998TIP3    H154409   3.838   2.965  10.445  0.6425 -0.0066 -0.9439
10998TIP3    H254410   3.783   3.045  10.562  0.8343 -1.0734 -0.1096
10999TIP3   OH254411   6.103   1.644   4.011  0.1195  0.6014 -0.2028
10999TIP3    H154412   6.093   1.681   4.099  0.1816  0.9319 -0.3334
10999TIP3    H254413   6.101   1.720   3.953 -1.0517  0.3018 -0.5759
11000TIP3   OH254414   5.377   2.896  14.623  0.1057  0.5474 -0.2992
11000TIP3    H154415   5.467   2.928  14.616 -0.3479  1.9617  0.2898
11000TIP3    H254416   5.348   2.922  14.710 -2.3566  4.0353 -2.0357
11001TIP3   OH254417   0.630   0.561  13.330 -0.4142  0.2638 -0.4405
11001TIP3    H154418   0.664   0.508  13.259 -2.0760 -0.2986 -0.8413
11001TIP3    H254419   0.696   0.630  13.342  0.7287 -0.6506 -1.3261
11002TIP3   OH254420   1.976   5.877   5.324  0.6275  0.0113  0.1485
11002TIP3    H154421   2.057   5.831   5.348  0.4190 -0.6968 -0.4856
11002TIP3    H254422   1.972   5.870   5.229 -0.5343 -0.5652  0.2371
11003TIP3   OH254423   2.416   2.799  17.042  0.1445  0.2963  0.2541
11003TIP3    H154424   2.434   2.708  17.067  2.8569  0.1726 -1.8979
11003TIP3    H254425   2.425   2.800  16.947 -0.6118  2.6561  0.1836
11004TIP3   OH254426   0.958   0.599   1.967 -0.5446  0.4790  0.5460
11004TIP3    H154427   0.981   0.560   2.052  0.3737 -1.9309 -0.7505
11004TIP3    H254428   0.989   0.689   1.972  2.1188 -0.4699  1.7271
11005TIP3   OH254429   3.892   5.528  13.482 -0.0965  0.0676 -0.1795
11005TIP3    H154430   3.960   5.489  13.537 -1.1048  0.0312  1.0561
11005TIP3    H254431   3.846   5.589  13.541  0.7203  2.2733 -1.7514
11006TIP3   OH254432   4.505   6.045  12.475  0.2069 -0.6486 -0.3476
11006TIP3    H154433   4.441   5.989  12.430 -0.3600 -0.3707  0.1087
11006TIP3    H254434   4.534   5.992  12.550 -1.3065  0.1564  0.8383
11007TIP3   OH254435   3.122   6.013  15.447 -0.2275  0.2088 -0.1454
11007TIP3    H154436   3.029   6.036  15.441 -0.3650  0.1430  1.6321
11007TIP3    H254437   3.166   6.077  15.390 -1.1574  1.4591  0.5095
11008TIP3   OH254438   1.014   6.366   5.065 -0.5571  0.0921 -0.0227
11008TIP3    H154439   0.982   6.282   5.097 -0.9901  0.3653  0.2614
11008TIP3    H254440   1.052   6.408   5.143  3.7825 -1.7434 -1.0334
11009TIP3   OH254441   5.332   6.418  11.814 -0.4564  0.5182 -0.4161
11009TIP3    H154442   5.328   6.422  11.719  0.0903 -0.6853 -0.4982
11009TIP3    H254443   5.335   6.509  11.842 -3.1161  0.9625 -1.4197
11010TIP3   OH254444   5.346   0.615   1.436  0.4191  0.1153 -0.1909
11010TIP3    H154445   5.344   0.540   1.496 -1.3595  0.0590 -0.3044
11010TIP3    H254446   5.346   0.576   1.349  0.9032  0.2373 -0.2494
11011TIP3   OH254447   3.834   4.299   2.463  0.6442 -0.0572 -0.0567
11011TIP3    H154448   3.836   4.220   2.409  0.7402 -0.2934  0.2884
11011TIP3    H254449   3.864   4.369   2.405 -0.5797 -0.0640 -0.7024
11012TIP3   OH254450   5.395   6.282   1.471 -0.3821  0.3717  0.1599
11012TIP3    H154451   5.327   6.328   1.422 -1.3531 -2.6163 -1.4338
11012TIP3    H254452   5.469   6.276   1.411 -0.9347 -1.7288 -0.3577
11013TIP3   OH254453   0.885   4.651  16.145 -0.0555  0.3896  0.4816
11013TIP3    H154454   0.980   4.644  16.141 -0.0992 -0.7426  1.0182
11013TIP3    H254455   0.854   4.563  16.121 -1.0374  1.3340 -1.9056
11014TIP3   OH254456   1.012   0.272   0.752 -0.2306  0.0442 -0.0428
11014TIP3    H154457   0.927   0.231   0.738  0.1143 -0.7642  0.1505
11014TIP3    H254458   1.014   0.291   0.846 -0.8981  1.6739 -0.3593
11015TIP3   OH254459   5.603   5.819   5.773 -0.0139  0.0518  0.3353
11015TIP3    H154460   5.643   5.823   5.859 -0.4460 -1.3781  0.6062
11015TIP3    H254461   5.676   5.822   5.712  0.3388  0.1358  0.7626
11016TIP3   OH254462   0.463   2.994   0.097  0.4771 -0.5499 -0.2934
11016TIP3    H154463   0.478   3.003   0.191  0.5247 -1.2472 -0.2283
11016TIP3    H254464   0.535   2.939   0.066 -0.0469 -1.0856 -0.5739
11017TIP3   OH254465   4.547   0.869  15.746 -0.3897 -0.0250 -0.4430
11017TIP3    H154466   4.547   0.778  15.777  0.1667  0.1774  0.1875
11017TIP3    H254467   4.624   0.875  15.689 -1.2808 -0.3355 -1.6887
11018TIP3   OH254468   5.354   3.644   2.600  0.2365  0.4276  0.3580
11018TIP3    H154469   5.370   3.690   2.517 -0.4994  0.9640  0.5059
11018TIP3    H254470   5.388   3.703   2.667 -1.7071  1.2782  0.6271
11019TIP3   OH254471   4.877   5.693   1.503 -0.2762 -0.1234  1.1447
11019TIP3    H154472   4.907   5.730   1.420 -0.9264  0.4258  1.1494
11019TIP3    H254473   4.956   5.688   1.557 -0.1046  0.8572  0.9914
11020TIP3   OH254474   4.424   1.075  12.913 -0.2266  0.4664  0.1013
11020TIP3    H154475   4.422   1.170  12.919  1.4612  0.4795  0.5996
11020TIP3    H254476   4.457   1.046  12.997  0.7263 -0.4833 -0.5863
11021TIP3   OH254477   6.203   0.305   0.357  0.0540  0.5275  0.0836
11021TIP3    H154478   6.123   0.347   0.327 -0.1381 -0.5194 -0.9339
11021TIP3    H254479   6.190   0.212   0.339  0.6130  0.0533  1.9511
11022TIP3   OH254480   2.090   4.213  10.749  0.8579 -0.7523  0.0233
11022TIP3    H154481   2.091   4.183  10.658  0.5819  2.6175 -1.1914
11022TIP3    H254482   2.003   4.187  10.781  0.3577 -0.6395 -1.1868
11023TIP3   OH254483   0.439   4.906   3.712  0.1274  0.4516  0.1770
11023TIP3    H154484   0.413   4.888   3.803  1.6718  0.5601  0.6652
11023TIP3    H254485   0.431   5.001   3.704  0.4541  0.4970  0.3586
11024TIP3   OH254486   3.647   3.733   6.427 -0.2887 -0.4096  0.0913
11024TIP3    H154487   3.665   3.795   6.357  1.4338 -0.7115  0.2223
11024TIP3    H254488   3.600   3.783   6.493  1.3547  0.8788  0.3333
11025TIP3   OH254489   0.142   6.019  11.475  0.3299 -0.3258 -0.3444
11025TIP3    H154490   0.090   5.968  11.537 -0.0409 -2.1667 -2.1259
11025TIP3    H254491   0.153   6.104  11.518 -0.6418 -1.2694  1.8518
11026TIP3   OH254492   3.601   0.414  12.149  0.7749  0.2120 -0.3915
11026TIP3    H154493   3.573   0.329  12.183  0.7185  0.2250 -0.4046
11026TIP3    H254494   3.651   0.454  12.220  2.4640 -0.6547 -1.0812
11027TIP3   OH254495   1.731   3.850   1.981  0.1137  0.1744 -0.4371
11027TIP3    H154496   1.819   3.825   2.010  1.5058  3.5218 -1.5730
11027TIP3    H254497   1.682   3.864   2.062  1.1650  0.0867  0.2226
11028TIP3   OH254498   1.798   3.993  15.383 -0.4278  0.4222 -0.3560
11028TIP3    H154499   1.799   3.913  15.329 -0.3897  1.5454 -2.0621
11028TIP3    H254500   1.716   4.036  15.360 -1.0972  0.2216  1.5849
11029TIP3   OH254501   1.780   5.655  16.335 -0.6853  0.2086 -0.1302
11029TIP3    H154502   1.705   5.706  16.304 -0.1498  1.1160  0.0733
11029TIP3    H254503   1.856   5.700  16.300 -0.2286 -0.8574 -0.5516
11030TIP3   OH254504   4.830   6.721  15.383  0.0508  0.7103  0.1873
11030TIP3    H154505   4.925   6.732  15.389  0.0171  1.4776 -0.6300
11030TIP3    H254506   4.810   6.648  15.443  1.2452  0.0007 -0.2716
11031TIP3   OH254507   1.557   5.718   3.225  0.1784 -0.5343 -0.2176
11031TIP3    H154508   1.592   5.632   3.246 -0.3549 -0.4920  0.8824
11031TIP3    H254509   1.467   5.702   3.197  0.2750 -0.3876 -0.6346
11032TIP3   OH254510   5.125   1.391   5.240  0.0484 -0.1825  0.3923
11032TIP3    H154511   5.085   1.436   5.314  1.2263  0.0033  0.9361
11032TIP3    H254512   5.211   1.363   5.272 -0.9234 -3.4799  0.2985
11033TIP3   OH254513   0.259   2.750  16.031  0.0681 -0.3674  0.2652
11033TIP3    H154514   0.200   2.810  16.078  0.2945  0.8765 -0.9938
11033TIP3    H254515   0.327   2.730  16.095  0.5015  1.5007  0.4298
11034TIP3   OH254516   2.766   2.153  14.439 -0.2648  0.4359 -0.7358
11034TIP3    H154517   2.672   2.161  14.421 -0.3064  1.1618 -0.2156
11034TIP3    H254518   2.791   2.239  14.472  0.4161  0.0000 -0.1005
11035TIP3   OH254519   1.864   1.489   0.746  0.4603 -0.0978 -0.8288
11035TIP3    H154520   1.883   1.488   0.652  1.5458  4.7701 -0.7812
11035TIP3    H254521   1.792   1.551   0.756  0.2270 -0.6896  1.5823
11036TIP3   OH254522   0.448   6.473  13.515  0.2817 -0.0010 -0.4550
11036TIP3    H154523   0.425   6.386  13.484 -1.3856  1.2124 -2.8463
11036TIP3    H254524   0.363   6.512  13.539  1.1985  0.3161  2.4243
11037TIP3   OH254525   2.860   3.645   6.235  0.7500 -0.1695 -0.6854
11037TIP3    H154526   2.946   3.627   6.275  0.3026  0.1479  0.4353
11037TIP3    H254527   2.821   3.712   6.292 -0.0177  0.0911 -1.5083
11038TIP3   OH254528   1.046   3.563   3.921  0.0523  0.5007  0.1888
11038TIP3    H154529   1.064   3.532   3.832 -1.3592  0.4536 -0.0870
11038TIP3    H254530   0.964   3.611   3.913 -0.5307 -0.2347  1.6286
11039TIP3   OH254531   1.005   5.255  16.406  0.0927  0.0975  0.2206
11039TIP3    H154532   0.970   5.228  16.321 -0.1624 -0.4845  0.5054
11039TIP3    H254533   1.030   5.346  16.394 -2.2166  0.7639  0.2261
11040TIP3   OH254534   0.460   0.424   6.427  0.1584  0.0956  0.0040
11040TIP3    H154535   0.412   0.449   6.349  0.1758  0.0794 -0.0119
11040TIP3    H254536   0.479   0.331   6.415  1.4763  0.4459 -0.6765
11041TIP3   OH254537   5.776   2.182   3.113  0.1487  0.1118  0.1629
11041TIP3    H154538   5.857   2.132   3.120 -0.1137 -0.4725 -0.8031
11041TIP3    H254539   5.803   2.269   3.086  0.5104  0.1054  0.5107
11042TIP3   OH254540   0.556   4.328  16.185 -0.1816 -0.1953 -0.3868
11042TIP3    H154541   0.550   4.236  16.158 -0.4518 -0.5056  0.6975
11042TIP3    H254542   0.608   4.326  16.266 -1.2155  0.4649  0.3081
11043TIP3   OH254543   2.404   3.324  14.488  0.6551 -0.0744 -0.4435
11043TIP3    H154544   2.423   3.353  14.399  1.0802  0.8866 -0.0559
11043TIP3    H254545   2.322   3.367  14.511  1.5896  1.3456  0.3463
11044TIP3   OH254546   0.085   3.189   1.193  0.2738 -0.8939  0.1896
11044TIP3    H154547   0.175   3.215   1.173  0.6516 -0.9668  1.7895
11044TIP3    H254548   0.063   3.238   1.272 -1.3835 -0.2588 -0.6536
11045TIP3   OH254549   0.789   0.585  13.574 -0.0249 -0.0618 -0.4983
11045TIP3    H154550   0.819   0.508  13.526 -0.0853 -0.5384  0.2200
11045TIP3    H254551   0.869   0.626  13.605  0.0015  0.0748 -0.7520
11046TIP3   OH254552   4.558   3.366   5.960 -0.0907 -0.8588  0.3160
11046TIP3    H154553   4.589   3.302   6.023  0.9657 -1.0284 -0.3601
11046TIP3    H254554   4.565   3.322   5.875  0.8587  0.2266 -0.1752
11047TIP3   OH254555   4.245   1.682   4.392 -0.5679 -0.0605  0.1367
11047TIP3    H154556   4.169   1.679   4.333  0.3936  0.5011 -1.1617
11047TIP3    H254557   4.316   1.715   4.337  0.6528 -0.7066  1.3001
11048TIP3   OH254558   5.107   1.692  10.959 -0.2867 -0.5101  0.3579
11048TIP3    H154559   5.057   1.768  10.990  0.2266 -0.1333  0.2880
11048TIP3    H254560   5.143   1.720  10.875 -0.6359 -1.0716  0.0238
11049TIP3   OH254561   4.037   6.728  16.658  0.2251 -0.4111  0.2301
11049TIP3    H154562   3.958   6.714  16.605 -0.4515 -0.3361  1.2164
11049TIP3    H254563   4.009   6.783  16.730  1.6003  1.1702 -0.4089
11050TIP3   OH254564   2.286   2.059   1.081 -0.2199  0.5178  0.5194
11050TIP3    H154565   2.267   1.967   1.062 -0.0949  0.7488 -0.7289
11050TIP3    H254566   2.297   2.100   0.995 -0.0325  1.6501  1.0755
11051TIP3   OH254567   2.916   4.116   5.983 -0.0633  0.0847  0.3239
11051TIP3    H154568   2.824   4.120   6.008 -0.4854  0.7342 -1.3097
11051TIP3    H254569   2.963   4.152   6.059 -1.2655  1.3186  0.4986
11052TIP3   OH254570   3.619   1.310   5.406  0.3306 -0.1165  0.5463
11052TIP3    H154571   3.699   1.348   5.441  0.1443 -0.0983  0.9562
11052TIP3    H254572   3.637   1.298   5.313  0.2228  1.4386  0.3114
11053TIP3   OH254573   6.595   5.989  11.219 -0.6573  0.1324  0.0768
11053TIP3    H154574   6.644   6.062  11.181  0.0540  0.2287  1.1527
11053TIP3    H254575   6.593   5.923  11.150 -0.5662  0.8335 -0.6070
11054TIP3   OH254576   0.427   6.494   3.290  0.1039 -0.0419  0.0863
11054TIP3    H154577   0.476   6.494   3.372 -0.5297 -1.7683  0.4881
11054TIP3    H254578   0.452   6.412   3.246 -0.1464  0.4941 -1.0904
11055TIP3   OH254579   5.029   2.968  16.010 -0.0109 -0.4916 -0.0989
11055TIP3    H154580   4.978   3.044  16.038 -1.2749 -0.6330 -1.9473
11055TIP3    H254581   5.070   2.936  16.090 -2.2442  0.0591  1.3034
11056TIP3   OH254582   1.331   4.815   1.265 -0.0376 -0.6987 -0.4618
11056TIP3    H154583   1.370   4.902   1.268  0.2946 -0.8270 -0.9068
11056TIP3    H254584   1.301   4.798   1.354  2.5035 -1.3078  0.3196
11057TIP3   OH254585   2.871   6.212  16.044  0.2906 -0.1513 -0.2497
11057TIP3    H154586   2.798   6.211  16.106 -0.7775 -1.5431 -1.4948
11057TIP3    H254587   2.943   6.168  16.090  0.0463  0.3850  0.6386
11058TIP3   OH254588   6.566   2.067  11.418 -0.2399 -0.5545  0.1585
11058TIP3    H154589   6.601   1.979  11.425 -0.0457 -0.4992 -0.0822
11058TIP3    H254590   6.574   2.088  11.325 -0.9767 -0.5657  0.0891
11059TIP3   OH254591   4.763   5.487  13.318 -0.2128  0.1092 -0.2396
11059TIP3    H154592   4.746   5.443  13.402  0.4820  0.3801  0.0486
11059TIP3    H254593   4.843   5.536  13.333 -0.0989  0.1773 -1.0670
11060TIP3   OH254594   3.581   4.148   2.210 -0.0769  0.2725  0.1146
11060TIP3    H154595   3.530   4.074   2.242 -0.1795 -0.3472 -1.4325
11060TIP3    H254596   3.525   4.225   2.223  1.0739  0.5014  4.2412
11061TIP3   OH254597   0.370   6.652   4.524 -0.2628 -0.5765  1.2320
11061TIP3    H154598   0.403   6.737   4.552 -0.4150 -1.0481  2.8762
11061TIP3    H254599   0.448   6.599   4.508 -0.1828 -0.4183  1.0990
11062TIP3   OH254600   3.260   3.526  12.389 -0.1753 -0.2956  0.1703
11062TIP3    H154601   3.317   3.458  12.353 -0.7336  0.2042 -1.7528
11062TIP3    H254602   3.320   3.584  12.436  0.4276 -1.6008  1.0358
11063TIP3   OH254603   1.289   5.834   6.696  0.7253  0.4138 -0.1277
11063TIP3    H154604   1.222   5.787   6.747  1.0849  0.1473  0.0966
11063TIP3    H254605   1.248   5.918   6.675 -0.8014 -0.8253 -2.4268
11064TIP3   OH254606   1.543   4.834   3.348  0.0894  0.2339  0.3028
11064TIP3    H154607   1.586   4.872   3.271 -0.6716  0.5956  0.0502
11064TIP3    H254608   1.610   4.834   3.416  0.2849  1.4326  0.1178
11065TIP3   OH254609   1.190   4.616  11.589  0.5837 -0.2029 -0.4884
11065TIP3    H154610   1.219   4.527  11.569  0.5578 -0.1278 -0.8667
11065TIP3    H254611   1.108   4.626  11.541  0.8945  0.2306 -0.9303
11066TIP3   OH254612   1.120   3.429  12.118 -0.4883 -0.3387 -0.5762
11066TIP3    H154613   1.097   3.501  12.177 -0.8349 -0.3622 -0.6798
11066TIP3    H254614   1.175   3.470  12.051  0.3506 -0.4238  0.0692
11067TIP3   OH254615   1.497   0.503   2.938 -0.4533  0.6329  0.3552
11067TIP3    H154616   1.469   0.412   2.943 -1.2064  0.9182  1.4634
11067TIP3    H254617   1.418   0.552   2.916  0.0392  0.9719 -0.6838
11068TIP3   OH254618   2.630   1.748  14.707  0.3410  0.2512 -0.1557
11068TIP3    H154619   2.706   1.706  14.746 -0.3721 -1.1212 -0.2368
11068TIP3    H254620   2.619   1.829  14.757  0.0432 -0.9902  1.8377
11069TIP3   OH254621   4.318   2.161   2.435 -0.5661 -0.0283  0.0034
11069TIP3    H154622   4.242   2.202   2.394  0.5860  0.5038 -1.6492
11069TIP3    H254623   4.351   2.101   2.368  1.3585  0.8636  0.1234
11070TIP3   OH254624   3.645   0.044  12.916  0.1321 -0.8505  0.3603
11070TIP3    H154625   3.660  -0.048  12.896  2.8460 -0.3378 -0.1153
11070TIP3    H254626   3.729   0.087  12.899 -0.8440  1.5764  1.3719
11071TIP3   OH254627   4.120   3.760   3.677 -0.6076 -0.4266 -0.0396
11071TIP3    H154628   4.131   3.748   3.771 -1.2038  1.5734  0.2975
11071TIP3    H254629   4.028   3.783   3.665 -0.5917 -0.8759 -1.1386
11072TIP3   OH254630   6.541   3.685  16.397  0.7629 -0.9805  0.2819
11072TIP3    H154631   6.618   3.659  16.347 -0.6423 -0.9319 -1.9476
11072TIP3    H254632   6.468   3.670  16.338 -0.6491  2.1750  1.1328
11073TIP3   OH254633   3.079   3.586   4.643  0.0171  0.1058 -0.0155
11073TIP3    H154634   3.074   3.591   4.547  0.1654  1.4986  0.0395
11073TIP3    H254635   3.169   3.612   4.663  0.8373 -2.8324  0.3564
11074TIP3   OH254636   5.341   5.071  11.837 -0.1553  0.3893 -0.2236
11074TIP3    H154637   5.291   5.148  11.810  1.5104  0.5969 -2.8865
11074TIP3    H254638   5.370   5.031  11.754  3.7850  0.1082  1.1867
11075TIP3   OH254639   5.055   1.818  15.504  0.0421  0.5495  0.4589
11075TIP3    H154640   4.970   1.774  15.513  0.3885  0.1526  1.9496
11075TIP3    H254641   5.034   1.911  15.508 -0.0183  0.4542  4.4537
11076TIP3   OH254642   1.455   4.281   0.394 -0.0468  0.2953 -0.6906
11076TIP3    H154643   1.387   4.330   0.347 -0.4855  0.1417 -0.2328
11076TIP3    H254644   1.504   4.236   0.326 -0.7875 -0.0677 -0.9860
11077TIP3   OH254645   1.396   4.110   3.522 -0.2644 -0.4058  0.2069
11077TIP3    H154646   1.321   4.054   3.502 -0.5765  0.4319 -0.9874
11077TIP3    H254647   1.417   4.152   3.439  0.0776  1.1127  1.0560
11078TIP3   OH254648   2.700   5.823   0.809 -0.2155  0.3623 -0.2494
11078TIP3    H154649   2.724   5.758   0.742  1.3708 -0.1636  0.7956
11078TIP3    H254650   2.618   5.860   0.778  0.8053  0.5840 -2.8306
11079TIP3   OH254651   0.613   4.947   0.793  0.6632  0.6097 -0.5462
11079TIP3    H154652   0.630   4.857   0.818 -1.4560 -0.5978 -3.2181
11079TIP3    H254653   0.691   4.974   0.744 -0.1978 -1.0511 -2.9133
11080TIP3   OH254654   5.622   3.450  14.204 -0.3835 -0.2939  0.0867
11080TIP3    H154655   5.658   3.407  14.126 -1.1730 -1.7926  0.5383
11080TIP3    H254656   5.646   3.542  14.193  3.5130 -1.2008  0.3071
11081TIP3   OH254657   5.357   1.590   2.827 -0.1793  0.5362  0.2066
11081TIP3    H154658   5.336   1.505   2.867  0.7206 -0.1733 -0.8056
11081TIP3    H254659   5.276   1.640   2.835 -0.9044 -0.6229  0.2991
11082TIP3   OH254660   0.568   4.174   0.758  0.3151  0.6022  0.5306
11082TIP3    H154661   0.510   4.156   0.832 -0.5733 -1.0826 -0.5364
11082TIP3    H254662   0.508   4.194   0.686  1.0343 -1.1185 -0.5692
11083TIP3   OH254663   3.957   5.804   3.871  0.2876 -0.2154 -0.1873
11083TIP3    H154664   4.047   5.831   3.883  0.1655  0.0386  0.1394
11083TIP3    H254665   3.950   5.785   3.777  0.9757 -1.3187 -0.0254
11084TIP3   OH254666   5.366   2.337   1.069  0.1845  0.6212  0.2852
11084TIP3    H154667   5.358   2.386   0.987  1.3064  0.8904  0.3185
11084TIP3    H254668   5.363   2.404   1.137  0.6921  0.5413  0.3862
11085TIP3   OH254669   5.999   6.336   5.279 -0.1028  0.0142 -0.1365
11085TIP3    H154670   6.047   6.314   5.199  1.7509  2.9153  0.0957
11085TIP3    H254671   6.062   6.324   5.349  0.1861  3.3783  0.2380
11086TIP3   OH254672   5.663   0.144  11.523 -0.1961  0.1251  0.1364
11086TIP3    H154673   5.694   0.176  11.439 -1.8481  1.1787 -0.0840
11086TIP3    H254674   5.736   0.092  11.557  1.0425  0.9186 -1.2549
11087TIP3   OH254675   1.736   5.966  16.612  0.2662  0.1537 -0.3658
11087TIP3    H154676   1.703   5.969  16.701 -2.0643  0.4027 -1.1986
11087TIP3    H254677   1.686   6.033  16.566  0.4334 -0.9383 -2.1875
11088TIP3   OH254678   4.421   4.503   0.765 -0.9041 -0.4135 -0.3953
11088TIP3    H154679   4.386   4.476   0.680 -1.8781  0.1296 -0.1744
11088TIP3    H254680   4.485   4.435   0.787 -1.5482 -1.2272 -0.9870
11089TIP3   OH254681   5.878   1.386   2.525 -0.0606  0.3592 -0.4401
11089TIP3    H154682   5.847   1.352   2.609 -0.2705  0.4780 -0.4698
11089TIP3    H254683   5.826   1.340   2.460 -2.3506  2.7613 -0.3996
11090TIP3   OH254684   3.716   6.056   2.419 -0.1652 -0.3098  0.0295
11090TIP3    H154685   3.710   6.144   2.382  0.4525  0.4241  1.6139
11090TIP3    H254686   3.784   6.012   2.368  0.7851  0.7297  0.3835
11091TIP3   OH254687   3.276   4.669  13.048 -0.6599 -0.1253  1.0124
11091TIP3    H154688   3.292   4.754  13.088 -1.7064 -0.1572  1.5051
11091TIP3    H254689   3.349   4.615  13.076 -0.0186  0.5893  0.7398
11092TIP3   OH254690   3.692   1.019   5.755  0.3683 -0.0711  0.7025
11092TIP3    H154691   3.732   1.001   5.840 -0.1666 -1.2755  0.7071
11092TIP3    H254692   3.683   0.933   5.714  2.2592  0.6339 -1.3322
11093TIP3   OH254693   1.540   1.618  14.447 -0.0967 -0.3384  0.0993
11093TIP3    H154694   1.459   1.619  14.396 -1.6199 -0.7567  2.4152
11093TIP3    H254695   1.549   1.527  14.474 -0.4591  0.2434  2.2698
11094TIP3   OH254696   3.509   6.509   2.283  0.1472  0.8864 -0.0568
11094TIP3    H154697   3.443   6.513   2.214 -0.3188 -0.7027  0.2812
11094TIP3    H254698   3.559   6.590   2.273 -1.2284  1.6439 -0.9384
11095TIP3   OH254699   6.421   6.448  17.089 -0.0233  0.1466  0.4626
11095TIP3    H154700   6.398   6.488  17.173 -1.8303  0.0003  0.0477
11095TIP3    H254701   6.464   6.366  17.114 -0.3038  0.2289  1.2476
11096TIP3   OH254702   3.124   0.643   1.764 -0.2536 -0.6569  0.2664
11096TIP3    H154703   3.158   0.557   1.737  0.5482 -0.6062  1.0969
11096TIP3    H254704   3.162   0.704   1.700  0.1225 -0.7738  0.3759
11097TIP3   OH254705   4.280   3.713  15.418  0.2441  0.1629 -0.4312
11097TIP3    H154706   4.252   3.767  15.492 -0.3232  0.8415 -1.1321
11097TIP3    H254707   4.361   3.672  15.447  0.1618  0.6282  0.4692
11098TIP3   OH254708   5.569   1.839  17.231 -0.2291 -0.0914 -0.2201
11098TIP3    H154709   5.593   1.828  17.323 -0.4903 -0.7414 -0.2300
11098TIP3    H254710   5.651   1.827  17.183  0.0549  1.0311 -0.0183
11099TIP3   OH254711   4.134   0.569  11.476 -0.2763  0.2710  0.3571
11099TIP3    H154712   4.176   0.651  11.503 -0.6317  0.7383 -0.4860
11099TIP3    H254713   4.205   0.506  11.470  0.3981  1.1713 -1.5383
11100TIP3   OH254714   3.545   3.682   1.778 -0.0156 -0.1772  0.7272
11100TIP3    H154715   3.503   3.609   1.825  0.1179 -0.3126  0.6339
11100TIP3    H254716   3.635   3.653   1.763  0.0217 -0.0164  0.6400
11101TIP3   OH254717   6.430   0.393  14.149 -0.1121 -0.0089 -0.0893
11101TIP3    H154718   6.517   0.425  14.173 -0.3009 -0.1249  0.7600
11101TIP3    H254719   6.431   0.300  14.173 -0.3371 -0.1089 -0.4528
11102TIP3   OH254720   0.702   5.514  11.890 -0.2469  0.1328  0.0068
11102TIP3    H154721   0.727   5.576  11.958  1.1879 -0.4848  0.0549
11102TIP3    H254722   0.639   5.455  11.932  0.0831  0.1974  0.5934
11103TIP3   OH254723   1.256   6.516  14.593  0.1834  0.3864  0.3705
11103TIP3    H154724   1.339   6.538  14.635  0.5892 -1.7558  0.7307
11103TIP3    H254725   1.246   6.421  14.606 -1.7905  0.4271 -0.6026
11104TIP3   OH254726   6.113   4.496   5.761  0.2743  0.4964  0.3946
11104TIP3    H154727   6.184   4.559   5.772  0.1504  0.3378  2.3186
11104TIP3    H254728   6.155   4.411   5.766  0.0317  0.4073  1.0268
11105TIP3   OH254729   0.758   4.204   4.778 -0.1791  0.0670  0.0858
11105TIP3    H154730   0.756   4.185   4.872  0.0895  3.0885  0.7321
11105TIP3    H254731   0.837   4.159   4.746  0.5146  0.2017  1.5673
11106TIP3   OH254732   0.608   2.776  12.373  0.1141  0.1377 -0.5973
11106TIP3    H154733   0.526   2.822  12.352  2.0406  2.6783 -2.9268
11106TIP3    H254734   0.643   2.824  12.448  0.9545  1.0143 -1.5360
11107TIP3   OH254735   2.437   2.396   5.167 -0.0816 -0.3143 -0.6109
11107TIP3    H154736   2.432   2.453   5.243 -0.8223 -1.2867  0.0817
11107TIP3    H254737   2.409   2.450   5.094 -0.0758  0.4138 -0.0713
11108TIP3   OH254738   3.566   5.156   2.522  0.8342  0.4094  0.0162
11108TIP3    H154739   3.596   5.117   2.439 -2.4414 -1.4577 -0.3994
11108TIP3    H254740   3.571   5.250   2.508  0.6518  0.1159 -2.2247
11109TIP3   OH254741   6.664   2.871  16.012 -0.3413 -0.2633 -0.0329
11109TIP3    H154742   6.736   2.928  16.037 -0.4658  0.0759 -0.4533
11109TIP3    H254743   6.585   2.923  16.031 -0.5062 -0.9250  1.1883
11110TIP3   OH254744   1.219   0.057   0.419  0.5442  0.2211  0.2050
11110TIP3    H154745   1.142   0.002   0.405 -0.6040  2.1031 -1.2011
11110TIP3    H254746   1.272   0.043   0.341  1.0645 -0.1998  0.6371
11111TIP3   OH254747   6.715   5.812  12.884  0.3417 -0.2957  0.3143
11111TIP3    H154748   6.729   5.834  12.792 -0.0099 -2.0565 -0.1908
11111TIP3    H254749   6.690   5.895  12.926  0.5405  0.5224 -1.1627
11112TIP3   OH254750   0.666   5.859   1.984 -0.1765 -0.3520 -0.6214
11112TIP3    H154751   0.584   5.836   2.027  1.3485 -2.3071  1.3537
11112TIP3    H254752   0.660   5.817   1.898 -1.0394 -0.9351 -0.2847
11113TIP3   OH254753   6.685   0.366   1.283  0.0247  0.0474 -0.1068
11113TIP3    H154754   6.627   0.387   1.210  0.4191  0.5253 -0.2845
11113TIP3    H254755   6.640   0.401   1.360 -2.8485 -4.7721  0.6339
11114TIP3   OH254756   2.947   4.802  13.668  0.0281  0.5036  0.1191
11114TIP3    H154757   2.944   4.761  13.754 -0.3192  0.5114  0.1129
11114TIP3    H254758   2.939   4.896  13.686  1.3757  0.6244  0.1707
11115TIP3   OH254759   5.402   5.527   1.629 -0.1074 -0.2056  0.2165
11115TIP3    H154760   5.329   5.540   1.568  0.4263  2.8357  0.1697
11115TIP3    H254761   5.364   5.477   1.701 -1.4525 -1.3324 -1.2212
11116TIP3   OH254762   3.933   0.093  14.062  0.4466  0.2266 -0.1921
11116TIP3    H154763   3.934   0.002  14.091  3.6427 -0.5064 -2.3542
11116TIP3    H254764   4.020   0.126  14.085 -0.1145  2.2624 -0.8995
11117TIP3   OH254765   4.421   0.298   3.707 -0.4096  0.0137 -0.4491
11117TIP3    H154766   4.415   0.302   3.611  1.1111 -2.6422 -0.6963
11117TIP3    H254767   4.331   0.281   3.735 -0.9080  1.0299 -1.3659
11118TIP3   OH254768   1.291   4.320   3.674  0.3444 -0.5491 -0.3098
11118TIP3    H154769   1.288   4.399   3.619 -2.2903 -0.5261 -0.2083
11118TIP3    H254770   1.339   4.256   3.622  0.2142  0.3128 -1.5166
11119TIP3   OH254771   3.678   5.684  15.860 -0.0803 -0.5121  0.3873
11119TIP3    H154772   3.647   5.702  15.771  0.0992 -0.7485  0.2750
11119TIP3    H254773   3.698   5.770  15.897 -0.7912 -0.3612  0.4325
11120TIP3   OH254774   2.188   5.540   5.614 -0.4378 -0.0527  0.3459
11120TIP3    H154775   2.274   5.500   5.605 -0.4176  0.4538 -1.9454
11120TIP3    H254776   2.129   5.466   5.631  0.0327 -0.7620 -0.9984
11121TIP3   OH254777   3.902   6.608   0.670  0.3274  0.3070  0.2253
11121TIP3    H154778   3.894   6.523   0.714  0.0048  0.5972  0.7412
11121TIP3    H254779   3.812   6.639   0.661  0.3936  0.2275 -0.6950
11122TIP3   OH254780   2.295   6.231  12.321  0.4202 -0.0592  0.0128
11122TIP3    H154781   2.305   6.143  12.285  1.8201  1.0827 -2.4751
11122TIP3    H254782   2.208   6.230  12.363 -0.2598 -2.1231 -1.3739
11123TIP3   OH254783   3.700   2.797  17.211 -0.2253  0.3904 -0.1641
11123TIP3    H154784   3.658   2.882  17.224 -2.2610 -0.5584 -0.2506
11123TIP3    H254785   3.754   2.808  17.132 -0.7370  1.4984 -0.3654
11124TIP3   OH254786   0.842   5.097   5.307 -0.1095  0.9649  0.4401
11124TIP3    H154787   0.790   5.167   5.344  0.7842  0.6182  2.4244
11124TIP3    H254788   0.791   5.017   5.324  0.0256  0.8672  0.3936
11125TIP3   OH254789   2.483   6.738   4.777  0.0122 -0.3211  0.4511
11125TIP3    H154790   2.472   6.734   4.682 -0.0403 -0.5993  0.4678
11125TIP3    H254791   2.402   6.778   4.809  0.8737  1.6568  0.2106
11126TIP3   OH254792   0.400   5.928   3.539  0.4198  0.0925  0.1772
11126TIP3    H154793   0.428   5.842   3.508 -0.1800  0.7213 -2.1661
11126TIP3    H254794   0.313   5.913   3.575 -0.1064 -0.1143 -1.1489
11127TIP3   OH254795   4.799   4.865  17.046 -0.2050 -0.1002  0.2270
11127TIP3    H154796   4.771   4.827  17.129 -2.1233  0.9727  0.1098
11127TIP3    H254797   4.895   4.858  17.047 -0.2353 -0.5044  2.3203
11128TIP3   OH254798   6.644   2.393   2.256  0.3771  0.3788  0.0023
11128TIP3    H154799   6.710   2.356   2.315 -0.2093 -0.4992  0.1217
11128TIP3    H254800   6.573   2.328   2.255 -0.2430  1.0466 -0.5586
11129TIP3   OH254801   2.174   4.019   6.745  0.5917 -0.4116  0.2532
11129TIP3    H154802   2.119   4.000   6.821 -0.4796  0.4471 -0.2927
11129TIP3    H254803   2.193   3.934   6.707 -0.1809 -0.7320  0.5744
11130TIP3   OH254804   5.529   1.327   1.690 -0.1785  0.1420 -0.6722
11130TIP3    H154805   5.607   1.354   1.738  0.4006  0.0697 -1.5435
11130TIP3    H254806   5.474   1.405   1.687 -1.2233 -0.4377  1.9690
11131TIP3   OH254807   4.115   4.520  12.723 -0.4308  0.1692  0.0177
11131TIP3    H154808   4.020   4.534  12.716 -0.3779  0.2539 -0.5696
11131TIP3    H254809   4.138   4.474  12.642  0.3831  2.0324 -0.8482
11132TIP3   OH254810   5.027   4.614  13.210  0.4592  0.3146 -0.4498
11132TIP3    H154811   4.988   4.527  13.205 -3.1215  1.8428 -1.3249
11132TIP3    H254812   5.072   4.616  13.294 -0.1599 -2.0744 -0.0269
11133TIP3   OH254813   3.585   1.155   3.771  0.0148 -0.4316  0.0169
11133TIP3    H154814   3.591   1.205   3.690  0.8869  0.4244  0.5949
11133TIP3    H254815   3.659   1.096   3.769  0.4115  0.0445  0.4847
11134TIP3   OH254816   1.816   2.065  16.771  1.1549  0.4330 -0.1882
11134TIP3    H154817   1.874   1.989  16.779  2.2627  1.2409 -0.4241
11134TIP3    H254818   1.767   2.067  16.853 -1.4564 -2.6190 -1.6073
11135TIP3   OH254819   0.628   5.192  13.912  0.3625 -0.1236  0.4390
11135TIP3    H154820   0.557   5.243  13.873 -1.2126 -1.4857  1.4196
11135TIP3    H254821   0.637   5.228  14.001  1.5514  0.6623  0.0111
11136TIP3   OH254822   1.894   2.735   0.096  0.1480  0.1045  0.5046
11136TIP3    H154823   1.930   2.821   0.117 -2.3472  1.2565  0.3119
11136TIP3    H254824   1.956   2.672   0.132  1.9792  1.9894  0.6834
11137TIP3   OH254825   6.461   4.213  13.298 -0.0164 -0.3056  0.2224
11137TIP3    H154826   6.502   4.296  13.276  0.8157 -1.2554 -1.9240
11137TIP3    H254827   6.511   4.181  13.373 -0.9229  1.5079  1.6570
11138TIP3   OH254828   3.057   2.882  12.822 -0.3010 -0.7401 -0.1088
11138TIP3    H154829   2.991   2.924  12.767  0.2487 -2.2412 -1.9983
11138TIP3    H254830   3.069   2.942  12.896 -3.9308 -0.5865  0.4238
11139TIP3   OH254831   4.394   1.625  13.651 -0.0462  0.0487  0.1239
11139TIP3    H154832   4.303   1.604  13.631 -0.1408  0.9630 -0.4516
11139TIP3    H254833   4.397   1.632  13.746 -0.6759  0.4412  0.1158
11140TIP3   OH254834   4.613   2.644   2.386 -0.1988 -1.0506 -0.4323
11140TIP3    H154835   4.591   2.671   2.297  0.1900  0.2953 -0.1366
11140TIP3    H254836   4.684   2.703   2.412 -1.9836  0.2638  1.6543
11141TIP3   OH254837   5.271   4.382   2.157  0.2788 -0.3160 -0.4737
11141TIP3    H154838   5.234   4.461   2.116 -0.0191 -1.3532 -2.2712
11141TIP3    H254839   5.344   4.358   2.099  1.7470 -0.1303  1.2667
11142TIP3   OH254840   5.281   0.276  14.434 -0.0359  0.4374  0.1726
11142TIP3    H154841   5.316   0.298  14.521 -1.1216 -2.0035  1.2715
11142TIP3    H254842   5.198   0.324  14.430  1.1923  2.5868 -0.5969
11143TIP3   OH254843   0.232   3.373  16.305  0.1232  0.0292  0.1327
11143TIP3    H154844   0.197   3.340  16.222 -3.0253  0.0105  1.4044
11143TIP3    H254845   0.281   3.299  16.341 -1.0557 -0.9889 -0.3150
11144TIP3   OH254846   6.031   1.889  14.064  0.7224 -0.0916  0.1872
11144TIP3    H154847   6.003   1.981  14.064  2.0472  0.3253  1.0687
11144TIP3    H254848   6.122   1.892  14.092  0.5862 -1.7382  0.8614
11145TIP3   OH254849   2.568   0.640  11.152 -0.2034  0.1363 -0.5409
11145TIP3    H154850   2.537   0.701  11.218 -1.6948  0.5896 -1.6320
11145TIP3    H254851   2.576   0.692  11.072 -2.2022 -1.1858 -1.6744
11146TIP3   OH254852   3.873   0.331  14.859  0.5153 -0.4358 -0.1996
11146TIP3    H154853   3.841   0.364  14.775  2.7635  0.0924 -0.8754
11146TIP3    H254854   3.887   0.238  14.844 -2.5466 -1.0931  0.6974
11147TIP3   OH254855   1.411   5.247  13.905  0.2825  0.6742  0.3612
11147TIP3    H154856   1.428   5.340  13.916 -1.3393  0.9476  0.7619
11147TIP3    H254857   1.405   5.213  13.994 -0.9572  0.5612  0.2490
11148TIP3   OH254858   1.582   6.294   4.872 -0.1906 -0.5273 -0.1807
11148TIP3    H154859   1.649   6.296   4.804  0.1756 -0.8905  0.1662
11148TIP3    H254860   1.600   6.371   4.926 -0.6006 -0.1319 -0.6067
11149TIP3   OH254861   1.950   5.589   6.828 -0.0636 -0.0160 -0.1299
11149TIP3    H154862   2.044   5.608   6.834  0.2423 -1.2909 -0.7127
11149TIP3    H254863   1.908   5.671   6.853  1.1845  0.1426  1.5668
11150TIP3   OH254864   2.309   1.140  14.397  0.1483  0.1230 -0.4086
11150TIP3    H154865   2.228   1.124  14.349  0.1273 -0.4636 -0.1819
11150TIP3    H254866   2.327   1.233  14.384 -1.0779  0.4641  0.3713
11151TIP3   OH254867   2.402   5.123  10.939  0.7785 -0.8034  0.3273
11151TIP3    H154868   2.380   5.034  10.965  1.4301 -1.1181 -0.1559
11151TIP3    H254869   2.324   5.155  10.895  1.1073 -1.7475 -0.9915
11152TIP3   OH254870   0.426   4.096   2.741  0.5302 -0.4366  0.5371
11152TIP3    H154871   0.416   4.017   2.794 -0.7907 -0.7339 -0.1406
11152TIP3    H254872   0.365   4.159   2.778  0.6989 -0.1384  0.3160
11153TIP3   OH254873   3.735   0.896   0.394 -0.0484 -0.3474  0.1500
11153TIP3    H154874   3.830   0.888   0.397  0.2302  1.3500 -2.2956
11153TIP3    H254875   3.706   0.816   0.350  0.4845  0.2234 -1.2678
11154TIP3   OH254876   6.709   5.524  15.976 -0.4452 -0.1655 -0.0931
11154TIP3    H154877   6.731   5.617  15.966 -3.5784  0.8461  1.7069
11154TIP3    H254878   6.664   5.502  15.895  1.0513 -0.3936 -0.8873
11155TIP3   OH254879   0.798   5.072  15.086 -0.3844 -0.5265  0.0505
11155TIP3    H154880   0.748   5.111  15.158  0.4906  1.5692 -0.4416
11155TIP3    H254881   0.884   5.054  15.124  0.7386  2.4316 -0.9228
11156TIP3   OH254882   1.815   3.567   3.038  0.5150  0.1713  0.2205
11156TIP3    H154883   1.859   3.497   2.989  0.0509 -0.7916  1.1355
11156TIP3    H254884   1.835   3.547   3.130 -2.0087 -0.4343  0.6669
11157TIP3   OH254885   1.748   5.954   1.459 -0.7783  0.3039 -0.7168
11157TIP3    H154886   1.723   6.046   1.462 -0.8685  0.2257  2.9548
11157TIP3    H254887   1.668   5.908   1.434 -0.7668  1.1591 -2.4231
11158TIP3   OH254888   0.929   1.904  15.421  0.0353  0.1321  0.2279
11158TIP3    H154889   0.986   1.884  15.347  0.8658  0.9192  0.6463
11158TIP3    H254890   0.840   1.892  15.387  0.3606  1.8300 -1.3098
11159TIP3   OH254891   1.750   6.443  11.710 -0.1403 -0.3754 -0.3276
11159TIP3    H154892   1.664   6.428  11.749 -0.0160  1.2552  0.6117
11159TIP3    H254893   1.770   6.361  11.665 -2.1694 -0.7920 -0.5447
11160TIP3   OH254894   1.543   3.547   3.401 -0.1410  1.1397  0.6101
11160TIP3    H154895   1.619   3.525   3.347 -0.5644  0.2725  0.3575
11160TIP3    H254896   1.573   3.537   3.491  0.0645  0.8453  0.5089
11161TIP3   OH254897   6.221   2.904  16.121  0.5847  0.5059 -0.2870
11161TIP3    H154898   6.254   2.822  16.083  2.6098  1.1879 -0.0705
11161TIP3    H254899   6.299   2.946  16.157 -0.6447  1.9360  0.7298
11162TIP3   OH254900   3.952   2.905  15.348  0.4059 -0.2155  0.1470
11162TIP3    H154901   4.026   2.959  15.319 -1.6166  0.7773 -3.4962
11162TIP3    H254902   3.876   2.963  15.341 -1.2497 -2.3409  0.0950
11163TIP3   OH254903   0.987   6.662  14.780 -0.0374 -0.6382  0.4249
11163TIP3    H154904   0.901   6.636  14.814 -0.6373  1.5841  0.6496
11163TIP3    H254905   0.976   6.660  14.684 -1.4446  3.0656  0.4413
11164TIP3   OH254906   0.861   1.957   5.602 -0.2070  0.0353 -0.2392
11164TIP3    H154907   0.832   1.866   5.604  0.9181 -0.3506 -0.7589
11164TIP3    H254908   0.838   1.988   5.515  1.0580 -0.3184 -0.7048
11165TIP3   OH254909   0.109   1.699  16.029 -0.0847 -0.3202  0.1847
11165TIP3    H154910   0.093   1.614  16.069 -0.1523  0.1879  1.2657
11165TIP3    H254911   0.191   1.688  15.980  0.3096 -0.8006  0.9371
11166TIP3   OH254912   6.051   5.588   2.519 -0.1879  0.8213  0.5519
11166TIP3    H154913   6.120   5.524   2.507 -0.7900  0.6661 -2.5024
11166TIP3    H254914   6.094   5.663   2.561  1.2114 -0.3063  1.1491
11167TIP3   OH254915   1.072   5.080  11.491  0.4225  0.5902  0.3253
11167TIP3    H154916   1.085   5.015  11.422 -2.3655  0.8319 -0.4918
11167TIP3    H254917   1.149   5.136  11.486  1.2656 -0.6747 -1.1853
11168TIP3   OH254918   5.972   5.602  12.691  0.1687  0.2670 -0.7692
11168TIP3    H154919   5.895   5.558  12.655  1.3009 -0.8255 -1.9208
11168TIP3    H254920   6.019   5.636  12.615  0.4416  1.5710 -0.0275
11169TIP3   OH254921   3.002   0.311   4.955  0.0642  0.4804 -0.0673
11169TIP3    H154922   3.091   0.334   4.982 -0.4766  2.7161 -0.1395
11169TIP3    H254923   2.947   0.380   4.992 -1.6194 -0.7416 -0.2483
11170TIP3   OH254924   1.887   2.410  13.664  0.0647  0.0634  0.1098
11170TIP3    H154925   1.823   2.347  13.631 -0.3237  0.1099  0.7643
11170TIP3    H254926   1.889   2.394  13.758 -0.8022  1.7360  0.4359
11171TIP3   OH254927   0.315   0.424   1.888  0.7401  0.0836  0.0682
11171TIP3    H154928   0.333   0.516   1.869  2.7304 -0.1837  0.5242
11171TIP3    H254929   0.347   0.410   1.977  0.2206 -0.9857  0.1026
11172TIP3   OH254930   6.444   1.571   5.846  0.5842 -0.4055  0.5524
11172TIP3    H154931   6.479   1.542   5.930  0.9493  1.1481  0.9399
11172TIP3    H254932   6.357   1.606   5.866 -0.0827 -1.6977  0.0009
11173TIP3   OH254933   6.065   0.670   3.402  0.0890  0.5155 -0.7572
11173TIP3    H154934   6.026   0.700   3.319 -0.7446  1.0426 -0.1794
11173TIP3    H254935   6.074   0.749   3.455 -2.4989 -0.2360  0.9192
11174TIP3   OH254936   1.065   3.155  13.491  0.2135 -0.0559 -0.1019
11174TIP3    H154937   0.971   3.172  13.496 -0.0896 -2.0355  1.6451
11174TIP3    H254938   1.105   3.225  13.544 -0.1356  1.5376 -1.8852
11175TIP3   OH254939   6.425   5.952   1.405  0.2088 -0.2897 -0.1127
11175TIP3    H154940   6.378   5.881   1.448 -1.1323  0.5310 -0.2061
11175TIP3    H254941   6.506   5.912   1.373 -0.5227 -1.7560 -0.1324
11176TIP3   OH254942   1.638   0.063  11.362 -0.2766  0.3227  0.6012
11176TIP3    H154943   1.675   0.111  11.288 -1.1533 -1.2847 -0.9226
11176TIP3    H254944   1.544   0.074  11.353 -0.6351 -3.2578 -0.9577
11177TIP3   OH254945   0.069   3.161  17.003 -0.3468  0.0149 -0.5650
11177TIP3    H154946   0.120   3.181  17.082  0.1112 -1.4451 -0.4645
11177TIP3    H254947   0.121   3.093  16.958 -1.3238 -0.2033 -1.3735
11178TIP3   OH254948   2.372   3.316   2.708 -0.0840 -0.0591  0.3040
11178TIP3    H154949   2.375   3.402   2.751 -2.6203  0.0985  0.2374
11178TIP3    H254950   2.355   3.254   2.779 -1.0376 -0.1656 -0.0056
11179TIP3   OH254951   1.339   4.188   5.031  0.0912  0.3669 -0.3333
11179TIP3    H154952   1.319   4.100   5.000 -1.3286  0.3109  0.7220
11179TIP3    H254953   1.434   4.187   5.044  0.0410 -1.1087  0.0231
11180TIP3   OH254954   2.426   4.530   0.223  0.0023 -0.2735 -0.0575
11180TIP3    H154955   2.511   4.571   0.239 -0.4650  0.2197  1.2147
11180TIP3    H254956   2.367   4.604   0.207 -0.3984 -0.5592  0.0899
11181TIP3   OH254957   1.742   1.070   5.131  0.0957  0.0274  0.3879
11181TIP3    H154958   1.760   1.132   5.201 -1.1787  0.2861  0.5116
11181TIP3    H254959   1.745   1.122   5.051  0.0792  0.0402  0.3958
11182TIP3   OH254960   2.508   1.116  15.063 -0.0997 -0.1635 -0.8730
11182TIP3    H154961   2.530   1.205  15.090  0.4995 -1.0648  1.7769
11182TIP3    H254962   2.583   1.063  15.091 -1.4423 -1.8313 -0.3684
11183TIP3   OH254963   1.125   6.719   1.986 -0.4308  0.0113  0.6199
11183TIP3    H154964   1.219   6.716   2.004 -0.0361 -1.9667 -1.5581
11183TIP3    H254965   1.088   6.648   2.038 -1.0858  2.1431  3.1749
11184TIP3   OH254966   2.507   3.111   4.881  0.3980  0.4700  0.5967
11184TIP3    H154967   2.435   3.088   4.822 -0.1718  2.0197  0.6625
11184TIP3    H254968   2.464   3.154   4.956  1.3654  1.2801  0.6970
11185TIP3   OH254969   1.623   4.205  12.883  0.1745  0.6689  0.5221
11185TIP3    H154970   1.639   4.207  12.978  1.5150 -0.3739  0.3421
11185TIP3    H254971   1.706   4.235  12.845  0.4289 -1.1333 -0.3789
11186TIP3   OH254972   1.386   1.698  16.260  0.4298 -0.2173 -0.3077
11186TIP3    H154973   1.430   1.732  16.182  0.7241  1.2534  0.4899
11186TIP3    H254974   1.309   1.754  16.271  0.7217 -0.0178  0.8146
11187TIP3   OH254975   0.648   4.920  11.126 -0.2516 -0.0981  0.6410
11187TIP3    H154976   0.693   4.979  11.066  1.4875  0.0087  2.0096
11187TIP3    H254977   0.618   4.848  11.070 -1.2215  1.3840 -0.8220
11188TIP3   OH254978   1.995   6.280  13.145  0.0903  0.3934 -0.7833
11188TIP3    H154979   1.966   6.290  13.235  1.4836  0.1531 -0.2881
11188TIP3    H254980   1.998   6.370  13.111 -1.9832  0.3659 -1.1184
11189TIP3   OH254981   4.203   2.054   3.899 -0.8427 -0.1290 -0.0261
11189TIP3    H154982   4.142   2.106   3.951 -0.7589  0.2889 -0.3403
11189TIP3    H254983   4.221   1.977   3.952 -0.3245  0.5537  0.7980
11190TIP3   OH254984   6.708   5.386   4.127  0.3411 -0.4311 -0.1217
11190TIP3    H154985   6.690   5.452   4.061  1.6331  1.7239  1.6024
11190TIP3    H254986   6.625   5.374   4.173  0.4216  1.0601  0.4465
11191TIP3   OH254987   3.520   1.600   0.759  0.0029 -0.3547  0.4819
11191TIP3    H154988   3.593   1.603   0.697  0.6767 -1.4434  1.1988
11191TIP3    H254989   3.442   1.613   0.705  0.5452 -1.7026 -0.6635
11192TIP3   OH254990   0.839   2.715  11.285  0.0586 -0.1058 -0.0702
11192TIP3    H154991   0.773   2.726  11.216  0.3995  0.2808 -0.3374
11192TIP3    H254992   0.911   2.772  11.258  1.1222 -1.6635 -0.5677
11193TIP3   OH254993   0.412   2.432   5.142 -0.1916 -0.0021 -0.2879
11193TIP3    H154994   0.384   2.485   5.067 -0.0294 -1.3822 -1.3625
11193TIP3    H254995   0.490   2.476   5.174 -0.5033  0.8463 -0.6639
11194TIP3   OH254996   2.508   0.147   1.250 -0.0391 -0.1019  0.1929
11194TIP3    H154997   2.514   0.052   1.256 -2.2387 -0.2594  0.3154
11194TIP3    H254998   2.491   0.165   1.158  1.0784  0.2340  0.0420
11195TIP3   OH254999   5.158   5.013  10.995  0.3487 -0.1230  0.0489
11195TIP3    H155000   5.233   5.004  11.054  0.5159  1.6942  0.1629
11195TIP3    H255001   5.082   5.000  11.051  0.5412 -0.0227  0.3364
11196TIP3   OH255002   2.213   4.193  13.819  0.0813  0.3595 -0.1462
11196TIP3    H155003   2.139   4.213  13.876 -0.4303 -0.4020 -0.5422
11196TIP3    H255004   2.203   4.253  13.744  0.0121  0.4258 -0.0832
11197TIP3   OH255005   5.618   3.618  13.418  0.6175  0.0402 -0.1299
11197TIP3    H155006   5.526   3.596  13.404  1.0513 -1.7527 -0.2418
11197TIP3    H255007   5.642   3.671  13.342  0.3715 -1.6888 -1.4494
11198TIP3   OH255008   1.047   3.823   1.330 -0.1287 -0.0086  0.3609
11198TIP3    H155009   1.080   3.903   1.370  2.2654 -0.3033 -0.9280
11198TIP3    H255010   1.116   3.758   1.347  0.9023 -0.2048 -3.9372
11199TIP3   OH255011   3.190   4.119  16.079 -0.3942  0.1510  0.3163
11199TIP3    H155012   3.116   4.137  16.021 -0.7059  0.3578  0.7804
11199TIP3    H255013   3.231   4.204  16.093  0.7905 -0.1607 -1.0834
11200TIP3   OH255014   5.705   0.261  12.122 -0.1244 -0.6500  0.6998
11200TIP3    H155015   5.710   0.341  12.069  0.7344 -2.5266 -2.2002
11200TIP3    H255016   5.794   0.249  12.156 -0.7234  0.6697  2.8515
11201TIP3   OH255017   3.351   6.381  10.249  0.4214  0.1248  0.1507
11201TIP3    H155018   3.377   6.330  10.326 -0.1052  1.0469  0.9424
11201TIP3    H255019   3.422   6.444  10.237  0.6771 -0.2534 -0.3412
11202TIP3   OH255020   1.737   3.775  13.405  0.1713  0.5502 -0.2316
11202TIP3    H155021   1.762   3.708  13.341  0.3496 -0.3073  0.7142
11202TIP3    H255022   1.665   3.734  13.454 -0.6545  1.5983 -0.5620
11203TIP3   OH255023   4.293   2.249   5.384  0.3008  0.6392 -0.4294
11203TIP3    H155024   4.290   2.159   5.417 -0.1511  0.5691 -0.6617
11203TIP3    H255025   4.210   2.261   5.338 -0.3279  1.6882  0.9376
11204TIP3   OH255026   2.250   0.054   1.465 -0.2192  0.0853  0.5357
11204TIP3    H155027   2.165   0.095   1.448 -0.2112 -0.5844 -1.1678
11204TIP3    H255028   2.228  -0.025   1.515 -0.3834  1.1516  2.1932
11205TIP3   OH255029   3.783   0.451  13.537  0.1164  0.1105  0.3287
11205TIP3    H155030   3.727   0.374  13.530 -0.0509  0.1284  1.3501
11205TIP3    H255031   3.872   0.418  13.525 -0.1381  0.1561 -1.8076
11206TIP3   OH255032   1.575   0.962  11.915 -0.1083  0.1629 -0.0294
11206TIP3    H155033   1.638   0.893  11.893  0.5264  0.9033 -0.5897
11206TIP3    H255034   1.611   1.003  11.994 -1.1945 -1.0140  1.0940
11207TIP3   OH255035   0.266   4.733  15.285 -0.4215  0.5784  0.0059
11207TIP3    H155036   0.213   4.664  15.247 -0.7013  0.2069  1.0503
11207TIP3    H255037   0.219   4.814  15.264 -0.0804  0.4528 -1.2369
11208TIP3   OH255038   1.741   2.947   1.186  0.4823  0.0165 -0.1087
11208TIP3    H155039   1.777   2.914   1.104  2.5161  0.0165  0.7643
11208TIP3    H255040   1.743   2.872   1.245 -0.3169  0.2010  0.1561
11209TIP3   OH255041   5.285   1.440  13.094  0.2431  0.3088 -0.3205
11209TIP3    H155042   5.202   1.484  13.110 -0.0622 -0.3705 -0.0359
11209TIP3    H255043   5.312   1.408  13.180 -0.2659 -1.3466 -0.7654
11210TIP3   OH255044   5.714   6.168  16.386 -0.9102  0.1315  0.9975
11210TIP3    H155045   5.731   6.094  16.328  0.4424 -0.2681  1.8844
11210TIP3    H255046   5.619   6.177  16.385 -1.0780 -1.4600  0.6720
11211TIP3   OH255047   3.499   2.421   5.506  0.0272 -0.0445  0.2680
11211TIP3    H155048   3.502   2.404   5.412 -1.5524  0.5630  0.0993
11211TIP3    H255049   3.420   2.376   5.537  1.0955 -1.1211  1.4986
11212TIP3   OH255050   5.288   2.682   3.668 -0.2249 -0.1307 -0.0365
11212TIP3    H155051   5.283   2.609   3.606  0.1476  1.0760 -1.4950
11212TIP3    H255052   5.200   2.719   3.668  0.4352  1.4829 -1.8261
11213TIP3   OH255053   6.078   5.217   6.026  0.1426 -0.4312  0.8245
11213TIP3    H155054   6.104   5.309   6.037 -2.7879  0.3645  1.5254
11213TIP3    H255055   6.147   5.167   6.069  1.9473  1.4137  0.1617
11214TIP3   OH255056   4.592   4.629   4.511  0.3396  0.6058 -0.2093
11214TIP3    H155057   4.516   4.605   4.563 -0.0258 -0.5586 -1.2564
11214TIP3    H255058   4.665   4.630   4.574  0.3190 -3.0377 -0.0340
11215TIP3   OH255059   5.923   0.402  16.379 -0.1572 -0.0787 -0.0998
11215TIP3    H155060   5.857   0.350  16.424 -1.1896  0.4366 -0.9782
11215TIP3    H255061   5.912   0.491  16.414 -0.6965  0.2408 -1.0471
11216TIP3   OH255062   0.372   4.246  17.051  0.4228  1.0590 -0.1243
11216TIP3    H155063   0.441   4.249  17.116  0.2901  1.8974 -0.0230
11216TIP3    H255064   0.292   4.265  17.100 -0.6309 -4.7351  0.7666
11217TIP3   OH255065   4.679   1.304  12.478  0.2767 -0.5287 -0.0055
11217TIP3    H155066   4.695   1.274  12.388  0.8466 -1.2626  0.3365
11217TIP3    H255067   4.594   1.265  12.500 -0.7086  1.1038 -0.8391
11218TIP3   OH255068   0.777   5.135   3.484 -0.1232 -0.3755  0.1582
11218TIP3    H155069   0.852   5.105   3.433 -0.8573 -0.1562 -1.0833
11218TIP3    H255070   0.719   5.058   3.487 -0.4735 -0.1229 -0.1009
11219TIP3   OH255071   5.619   1.796  13.959  0.0227 -0.6338 -0.3687
11219TIP3    H155072   5.553   1.850  13.916  0.1273  0.7645  1.1543
11219TIP3    H255073   5.569   1.743  14.022  0.2051 -0.4564 -0.0722
11220TIP3   OH255074   1.922   6.167   2.139 -0.0570 -0.4475 -0.5514
11220TIP3    H155075   1.832   6.179   2.170 -0.3615 -0.3200 -1.4678
11220TIP3    H255076   1.970   6.135   2.215 -1.1946 -1.9340 -0.4542
11221TIP3   OH255077   3.137   0.952  13.099  0.3854  0.7202 -0.5070
11221TIP3    H155078   3.108   1.041  13.115  1.0515  0.6641  1.0744
11221TIP3    H255079   3.200   0.934  13.168 -1.5272 -1.7954  0.6876
11222TIP3   OH255080   4.901   5.358  15.143 -0.1255 -0.4283 -0.6246
11222TIP3    H155081   4.841   5.393  15.208  0.6235 -0.0781 -0.1233
11222TIP3    H255082   4.921   5.433  15.086  1.4529 -0.0406  0.4304
11223TIP3   OH255083   0.409   1.922  15.578  0.7071  0.3363  0.3378
11223TIP3    H155084   0.374   1.936  15.490  1.1543  0.2394  0.1445
11223TIP3    H255085   0.402   2.007  15.620  1.8781  0.7684 -0.2932
11224TIP3   OH255086   5.367   2.087   4.716 -0.2020 -0.6208 -0.1982
11224TIP3    H155087   5.448   2.044   4.744 -0.4595 -1.3364 -0.5282
11224TIP3    H255088   5.389   2.129   4.633  0.3361  0.7936  0.6374
11225TIP3   OH255089   2.012   1.252  11.675 -0.2354 -0.1218  0.2770
11225TIP3    H155090   1.939   1.307  11.702 -0.4289 -0.4901  0.5071
11225TIP3    H255091   1.997   1.236  11.582  1.4742  2.7714 -0.5636
11226TIP3   OH255092   0.557   1.050  16.700  0.5855 -0.7445 -0.5702
11226TIP3    H155093   0.590   1.120  16.757  2.3575 -1.1615 -1.0726
11226TIP3    H255094   0.605   0.972  16.727 -0.7793 -1.6192 -0.5888
11227TIP3   OH255095   0.180   0.713   0.619  0.2510  0.0391  0.7146
11227TIP3    H155096   0.203   0.795   0.662 -0.0344  0.0722  0.8093
11227TIP3    H255097   0.084   0.708   0.628 -0.0897  1.1123 -1.7868
11228TIP3   OH255098   5.627   4.071   1.601 -0.3739 -0.0664 -0.1022
11228TIP3    H155099   5.662   4.147   1.645 -0.2287  0.2516 -0.7560
11228TIP3    H255100   5.608   4.008   1.671  2.1803 -0.5450  0.2044
11229TIP3   OH255101   2.463   0.824  14.020 -0.3797 -0.0958 -0.4062
11229TIP3    H155102   2.383   0.771  14.028 -2.3307  2.5007 -1.7808
11229TIP3    H255103   2.487   0.845  14.110 -1.7402 -0.2168 -0.0026
11230TIP3   OH255104   0.587   5.700   0.301 -0.1976  0.4702 -0.5297
11230TIP3    H155105   0.562   5.658   0.219  0.2634 -0.3040 -0.2731
11230TIP3    H255106   0.506   5.707   0.351  0.1558 -2.6593  0.5883
11231TIP3   OH255107   1.584   5.071  14.319  0.2907  0.1693  0.0892
11231TIP3    H155108   1.501   5.117  14.307  0.5746  0.9278  0.9500
11231TIP3    H255109   1.564   4.980  14.298 -0.6323  0.4424 -0.2290
11232TIP3   OH255110   2.173   1.213   4.130 -0.2196  0.2498 -0.1187
11232TIP3    H155111   2.202   1.277   4.065 -0.9154  1.1423  0.4446
11232TIP3    H255112   2.225   1.135   4.111  1.0623  1.1663 -0.4364
11233TIP3   OH255113   3.287   3.538  14.030 -0.1170 -0.7276 -0.3328
11233TIP3    H155114   3.329   3.452  14.034 -2.1393 -1.7135  0.0090
11233TIP3    H255115   3.310   3.572  13.944  0.7797 -1.5619 -0.4296
11234TIP3   OH255116   2.656   6.483   4.349 -0.2298  0.6218  0.0972
11234TIP3    H155117   2.729   6.468   4.409 -0.7587 -1.5035  0.2364
11234TIP3    H255118   2.609   6.557   4.387  1.7476  1.9387  0.0754
11235TIP3   OH255119   1.063   1.980  12.374 -0.1599 -0.2148  0.3786
11235TIP3    H155120   1.111   1.964  12.455  1.0545 -0.9047 -0.4598
11235TIP3    H255121   0.976   2.009  12.403  0.7732  1.1560  1.9203
11236TIP3   OH255122   2.251   2.944  14.754 -0.4285  0.2699 -0.1440
11236TIP3    H155123   2.209   3.030  14.762  1.8890  1.2616  1.8367
11236TIP3    H255124   2.178   2.882  14.762 -2.2226  2.0146 -2.2671
11237TIP3   OH255125   4.983   4.127   0.199  0.2557  0.2662 -0.5245
11237TIP3    H155126   5.046   4.067   0.238 -0.7944 -0.4618  0.0711
11237TIP3    H255127   4.913   4.071   0.166 -0.7583  1.1488  0.0804
11238TIP3   OH255128   3.120   0.504   0.233  0.0579 -0.0377  0.4351
11238TIP3    H155129   3.159   0.440   0.292 -0.2880 -0.3286  0.3501
11238TIP3    H255130   3.027   0.482   0.231 -0.0751  0.5013  0.4481
11239TIP3   OH255131   4.961   1.935   3.494  0.6778 -0.4165 -0.1554
11239TIP3    H155132   4.992   2.001   3.556 -2.0398  0.1563  0.6887
11239TIP3    H255133   4.969   1.852   3.541  1.4245 -0.3427 -0.1517
11240TIP3   OH255134   4.283   2.473  15.045  0.1419 -0.6828  0.5524
11240TIP3    H155135   4.299   2.478  15.140  0.6892  0.4640  0.4100
11240TIP3    H255136   4.369   2.456  15.007  0.1046 -0.0687  0.1841
11241TIP3   OH255137   3.646   5.102  14.796  0.7398  0.6208 -0.2118
11241TIP3    H155138   3.716   5.165  14.817  0.9418  1.0739 -2.1345
11241TIP3    H255139   3.568   5.156  14.784  0.4860  0.3025 -0.0087
11242TIP3   OH255140   5.093   4.695   1.524  0.2112 -0.2443 -0.2821
11242TIP3    H155141   5.142   4.621   1.559  0.2735  0.0709  0.2941
11242TIP3    H255142   5.065   4.666   1.437 -0.8219 -1.4301  0.4180
11243TIP3   OH255143   2.315   0.715   1.919 -1.0645 -0.0681 -0.3049
11243TIP3    H155144   2.334   0.626   1.949  1.4821  0.3506 -0.5654
11243TIP3    H255145   2.366   0.724   1.838 -2.4410  1.1459 -1.0590
11244TIP3   OH255146   3.547   3.833   0.644  0.1194  0.1949  0.3762
11244TIP3    H155147   3.478   3.882   0.599 -0.2669 -0.1992  0.5296
11244TIP3    H255148   3.614   3.819   0.577 -0.3043 -0.1017  0.0116
11245TIP3   OH255149   4.276   1.271  15.222 -0.4415 -0.0429 -0.3674
11245TIP3    H155150   4.316   1.185  15.237 -1.1544 -0.2524  0.4012
11245TIP3    H255151   4.210   1.279  15.291 -0.9990  0.7376 -0.9784
11246TIP3   OH255152   5.902   6.554  11.318 -0.6017  0.4137 -0.0290
11246TIP3    H155153   5.912   6.570  11.224  0.4905 -0.2096 -0.0251
11246TIP3    H255154   5.934   6.465  11.331 -0.3667  0.6346  0.9960
11247TIP3   OH255155   0.467   6.062   0.304 -0.3328 -0.2705 -0.3059
11247TIP3    H155156   0.549   6.014   0.317 -0.3415 -0.0719  0.4551
11247TIP3    H255157   0.421   6.011   0.237 -1.2165 -2.4810  1.9157
11248TIP3   OH255158   6.592   2.244  15.031  0.2548 -0.4653  0.3536
11248TIP3    H155159   6.662   2.181  15.045 -0.4504 -1.1593  0.8191
11248TIP3    H255160   6.516   2.206  15.076 -0.3461  0.4023  0.0916
11249TIP3   OH255161   5.195   5.884   5.645 -0.3671 -0.2303  0.7832
11249TIP3    H155162   5.125   5.949   5.641  0.3481  0.5458  0.7909
11249TIP3    H255163   5.258   5.912   5.577 -0.2593 -1.1432  0.5034
11250TIP3   OH255164   4.378   1.061  14.010 -0.0937 -1.0201  0.3523
11250TIP3    H155165   4.438   1.001  14.055  0.7671 -1.5542 -1.4521
11250TIP3    H255166   4.430   1.140  13.995 -0.4706 -0.7349  0.5206
11251TIP3   OH255167   0.023   1.715   1.867 -0.0383 -0.1965  0.6683
11251TIP3    H155168   0.059   1.777   1.930 -0.5390  1.7408 -0.8954
11251TIP3    H255169  -0.066   1.746   1.849  0.1723 -0.5447 -1.1615
11252TIP3   OH255170   5.374   0.302   3.770 -0.2499 -0.4092  0.0232
11252TIP3    H155171   5.433   0.254   3.829  4.0808  2.9938 -1.2962
11252TIP3    H255172   5.383   0.257   3.686 -2.1184 -1.8061  0.5137
11253TIP3   OH255173   2.255   4.666   1.224 -0.4163  0.0832 -0.2266
11253TIP3    H155174   2.281   4.708   1.306 -0.2312  1.4150 -0.9588
11253TIP3    H255175   2.254   4.572   1.245  2.2529  0.1837  0.5786
11254TIP3   OH255176   4.935   0.775   3.651  0.3787 -0.6415 -0.9307
11254TIP3    H155177   4.957   0.789   3.743  1.3312  0.5119 -1.3190
11254TIP3    H255178   4.840   0.780   3.647  0.3856  0.1018 -0.1429
11255TIP3   OH255179   2.526   6.198   0.622 -0.8543 -0.4424 -0.0718
11255TIP3    H155180   2.539   6.126   0.562  1.2440 -0.0491 -0.1235
11255TIP3    H255181   2.481   6.265   0.571  1.8472  0.3027 -1.5549
11256TIP3   OH255182   2.086   3.742  14.396 -0.0895 -0.5068 -0.6321
11256TIP3    H155183   2.046   3.827  14.412  0.0979 -0.2558 -1.4669
11256TIP3    H255184   2.017   3.689  14.355 -0.7376 -1.3246  1.4527
11257TIP3   OH255185   1.107   2.746  15.219  0.2367 -0.6162 -0.6590
11257TIP3    H155186   1.139   2.832  15.248 -1.3044 -0.3582  0.3505
11257TIP3    H255187   1.135   2.740  15.128  0.9449  0.6767 -0.5465
11258TIP3   OH255188   6.188   5.785  15.197  0.8535 -0.4434 -0.3440
11258TIP3    H155189   6.185   5.691  15.214  0.2847 -0.3809 -0.0870
11258TIP3    H255190   6.248   5.794  15.123  0.2728 -1.0899 -0.9042
11259TIP3   OH255191   0.027   1.096  15.725  0.5331 -0.1155  0.6423
11259TIP3    H155192   0.008   1.036  15.652  0.8091 -2.5619  2.5251
11259TIP3    H255193   0.121   1.110  15.721  0.8287 -1.7310  1.6142
11260TIP3   OH255194   4.207   4.228  13.757  0.3117  0.1928  0.3363
11260TIP3    H155195   4.187   4.258  13.668 -1.4312 -1.0121  0.2947
11260TIP3    H255196   4.177   4.137  13.759  0.5573  0.1335  2.0871
11261TIP3   OH255197   3.332   6.381   3.333  0.0147  0.4815  0.0535
11261TIP3    H155198   3.295   6.430   3.259 -1.6798 -0.2237  0.4128
11261TIP3    H255199   3.270   6.310   3.348  2.1394 -1.4298 -0.0512
11262TIP3   OH255200   3.496   1.513   1.027  0.4467 -0.0720  0.1382
11262TIP3    H155201   3.475   1.563   0.949  2.4154 -1.9349 -1.6463
11262TIP3    H255202   3.462   1.425   1.010  2.0341 -0.8482  0.7699
11263TIP3   OH255203   1.398   1.041   5.353 -0.1227  0.6122 -0.2788
11263TIP3    H155204   1.427   1.126   5.323 -1.9438  1.8408  1.3248
11263TIP3    H255205   1.425   1.038   5.445 -0.9854 -0.0993 -0.0404
11264TIP3   OH255206   3.774   1.355  10.660 -0.0364 -0.2754  0.3369
11264TIP3    H155207   3.716   1.283  10.637 -0.1917 -0.0363 -0.0308
11264TIP3    H255208   3.857   1.313  10.683 -0.0252 -0.5489 -0.1969
11265TIP3   OH255209   5.323   6.599  14.871  0.6176 -0.2121 -0.6118
11265TIP3    H155210   5.233   6.567  14.860 -0.9968  3.2015  1.5677
11265TIP3    H255211   5.348   6.630  14.784 -0.7663 -0.2342 -1.0292
11266TIP3   OH255212   1.798   5.249  12.158 -0.0989 -0.3421  0.0301
11266TIP3    H155213   1.775   5.196  12.082 -1.1731  0.2102 -0.0402
11266TIP3    H255214   1.777   5.338  12.132 -0.0643 -0.1010  0.8188
11267TIP3   OH255215   6.553   5.439   6.445 -0.3566  0.1921  0.1228
11267TIP3    H155216   6.567   5.370   6.380  0.4133  1.6044 -1.2555
11267TIP3    H255217   6.459   5.453   6.445 -0.4707 -0.5294  0.0785
11268TIP3   OH255218   2.816   3.136  11.242 -0.1405  0.4082 -0.4578
11268TIP3    H155219   2.888   3.195  11.218  0.2892 -0.3535 -1.0795
11268TIP3    H255220   2.812   3.073  11.170  0.1629 -1.0124  0.7429
11269TIP3   OH255221   0.893   5.654   1.986  0.2309 -0.0211 -0.3556
11269TIP3    H155222   0.837   5.715   2.034 -1.6339 -1.8335 -0.2102
11269TIP3    H255223   0.982   5.676   2.015 -0.6409  0.7492  1.8062
11270TIP3   OH255224   2.589   2.338   0.817 -0.1475  0.2714  0.1855
11270TIP3    H155225   2.629   2.422   0.796 -0.0524 -0.6230 -3.5793
11270TIP3    H255226   2.504   2.340   0.773  0.1519 -1.8270 -0.5644
11271TIP3   OH255227   4.158   0.611  10.647 -0.6019 -0.4322 -0.1485
11271TIP3    H155228   4.212   0.550  10.597 -1.3084 -0.6688 -0.6347
11271TIP3    H255229   4.072   0.569  10.651 -1.3055  0.8689 -1.1421
11272TIP3   OH255230   4.557   1.806   1.550  0.3549  0.4573 -0.4326
11272TIP3    H155231   4.587   1.834   1.464 -0.6350 -1.3173 -1.3938
11272TIP3    H255232   4.614   1.732   1.573  1.0676  1.3659  0.7507
11273TIP3   OH255233   0.972   3.207  14.614 -0.6079  0.3078  0.0708
11273TIP3    H155234   0.937   3.294  14.632  0.4607  0.6321  0.6225
11273TIP3    H255235   0.895   3.151  14.611 -1.3906  1.4040 -1.1350
11274TIP3   OH255236   2.779   3.555   1.857  0.2693  0.0263  0.3162
11274TIP3    H155237   2.741   3.478   1.899 -0.3614  1.2738  2.1089
11274TIP3    H255238   2.728   3.568   1.778 -1.7926  0.5034  1.6754
11275TIP3   OH255239   6.091   1.506  15.693  0.2150 -0.1683  0.5962
11275TIP3    H155240   6.159   1.441  15.676  2.6079  1.6012  2.9817
11275TIP3    H255241   6.063   1.535  15.606  2.1451 -1.3220 -0.4251
11276TIP3   OH255242   4.328   4.811  11.217 -0.3562 -0.6898  0.3019
11276TIP3    H155243   4.262   4.742  11.214 -1.3379  0.2779 -1.2883
11276TIP3    H255244   4.284   4.888  11.180  1.5229  0.0896 -0.3787
11277TIP3   OH255245   1.835   4.510   0.868 -0.5237  0.1136 -0.5410
11277TIP3    H155246   1.835   4.422   0.829 -0.3774 -0.8971  1.6862
11277TIP3    H255247   1.928   4.531   0.878 -0.5506 -0.4743  1.0751
11278TIP3   OH255248   5.775   4.126   1.935 -0.1400  0.2311  0.3478
11278TIP3    H155249   5.814   4.070   1.867  1.0811 -0.2442  1.4147
11278TIP3    H255250   5.728   4.193   1.886  0.8464 -0.0111 -0.9795
11279TIP3   OH255251   5.103   6.108  15.725 -0.0389 -0.1543  0.0105
11279TIP3    H155252   5.161   6.089  15.798 -2.3874 -0.0889  1.9676
11279TIP3    H255253   5.060   6.024  15.705  0.8690 -0.2659 -1.5802
11280TIP3   OH255254   5.576   0.920   2.042 -0.4233  0.2283 -0.5770
11280TIP3    H155255   5.535   0.882   1.964 -2.6314 -0.3733  0.8104
11280TIP3    H255256   5.664   0.884   2.043 -0.9710 -1.2120 -1.8066
11281TIP3   OH255257   3.626   3.924  12.190  0.4427 -0.0998 -0.5608
11281TIP3    H155258   3.671   3.955  12.111 -2.6263  0.3611 -2.1954
11281TIP3    H255259   3.586   4.003  12.227  0.9380 -0.5105  0.8906
11282TIP3   OH255260   3.966   4.624   1.325  0.4014  0.5222  0.0124
11282TIP3    H155261   3.985   4.574   1.246 -0.4365  0.2611 -0.0301
11282TIP3    H255262   4.051   4.638   1.365  0.8782  0.9981 -1.1405
11283TIP3   OH255263   5.192   3.636   4.389  0.1760  0.4586  0.3984
11283TIP3    H155264   5.197   3.541   4.384  1.8161  0.5628 -0.1885
11283TIP3    H255265   5.283   3.665   4.391 -0.2704  1.8825  3.4436
11284TIP3   OH255266   1.178   2.849  17.232  0.0594 -0.4387 -0.0999
11284TIP3    H155267   1.161   2.865  17.139  2.1712  0.2899 -0.3993
11284TIP3    H255268   1.262   2.803  17.234  0.2666 -0.0326  1.4616
11285TIP3   OH255269   6.577   4.684  11.478 -0.0303  0.3035  0.2625
11285TIP3    H155270   6.577   4.648  11.390  0.0608  0.8699  0.0313
11285TIP3    H255271   6.623   4.618  11.531  1.8784  0.9745 -0.5232
11286TIP3   OH255272   1.831   6.213  14.024  0.3433  0.4821 -0.3572
11286TIP3    H155273   1.780   6.164  13.960  2.4736 -0.2647 -1.5426
11286TIP3    H255274   1.855   6.149  14.091  1.3286  0.3710 -0.8056
11287TIP3   OH255275   2.274   2.698  12.347 -0.3071 -0.4523  0.0844
11287TIP3    H155276   2.263   2.780  12.395  0.0466  0.3128 -1.1068
11287TIP3    H255277   2.359   2.707  12.302 -1.6487 -0.1722 -2.5003
11288TIP3   OH255278   4.595   0.425  15.683 -0.1465  0.1421  1.1522
11288TIP3    H155279   4.674   0.467  15.715 -0.1444  1.5699 -0.6320
11288TIP3    H255280   4.625   0.367  15.613 -0.4529 -0.8934  1.8629
11289TIP3   OH255281   1.335   2.768   2.640  0.4283  0.0077  0.2063
11289TIP3    H155282   1.361   2.724   2.721 -1.7335 -1.5595  0.0874
11289TIP3    H255283   1.320   2.859   2.665  3.8625  0.4881  0.6839
11290TIP3   OH255284   3.158   3.103  14.520 -0.7575 -0.7293  0.0040
11290TIP3    H155285   3.126   3.018  14.490  0.6725 -1.7491  1.3064
11290TIP3    H255286   3.184   3.088  14.611 -2.8663  1.7341  1.0927
11291TIP3   OH255287   5.608   0.506  14.486  0.0229  0.2455  0.4449
11291TIP3    H155288   5.545   0.532  14.552 -0.2899 -1.2132  0.7227
11291TIP3    H255289   5.605   0.577  14.421 -1.7224  0.3107  0.5697
11292TIP3   OH255290   6.388   4.294  12.535  0.2814  0.1315  0.0871
11292TIP3    H155291   6.307   4.336  12.506  0.6004  0.9850  0.3999
11292TIP3    H255292   6.457   4.344  12.492  0.6007 -1.8012 -1.7312
11293TIP3   OH255293   1.765   6.028   5.440 -0.3390  0.5123  0.1749
11293TIP3    H155294   1.711   6.045   5.363 -1.5228 -1.0511  0.6389
11293TIP3    H255295   1.840   5.979   5.406 -0.6355  0.2065 -0.0430
11294TIP3   OH255296   0.355   4.027  12.756 -0.1300  0.2063 -0.4235
11294TIP3    H155297   0.355   3.945  12.707  1.6038  0.8532 -1.5664
11294TIP3    H255298   0.330   4.094  12.692  0.4005  0.8152 -0.0082
11295TIP3   OH255299   5.670   4.192  16.818  0.2430  0.7656 -0.1211
11295TIP3    H155300   5.636   4.275  16.786  0.6810  0.6318 -0.9688
11295TIP3    H255301   5.719   4.156  16.743  1.7736  0.7125  0.8747
11296TIP3   OH255302   5.371   3.153  13.346 -0.0362  0.0747 -0.0578
11296TIP3    H155303   5.279   3.152  13.321 -0.2678  1.7915  0.5987
11296TIP3    H255304   5.370   3.155  13.442  0.7758 -3.5860  0.0825
11297TIP3   OH255305   4.644   3.705   1.002  0.1164  0.2623  0.1621
11297TIP3    H155306   4.687   3.656   1.072  0.7686 -0.5650 -0.8052
11297TIP3    H255307   4.671   3.661   0.921 -0.4052  1.3663 -0.6316
11298TIP3   OH255308   0.392   4.937  11.244  0.0893  0.2561  0.1495
11298TIP3    H155309   0.468   4.924  11.187 -1.2467 -1.4070 -1.3283
11298TIP3    H255310   0.369   5.029  11.233 -0.3224 -0.0996 -2.2803
11299TIP3   OH255311   1.362   6.063  15.476  0.2655 -0.2397 -0.2131
11299TIP3    H155312   1.430   6.011  15.518  0.1648 -0.3541 -0.1930
11299TIP3    H255313   1.284   6.009  15.479  0.6391 -0.8956 -1.9743
11300TIP3   OH255314   2.232   2.980  11.322  0.5297 -0.0583 -0.2497
11300TIP3    H155315   2.178   3.058  11.335  1.0575  0.4435 -0.9810
11300TIP3    H255316   2.197   2.939  11.243 -2.1709 -2.6695  2.2040
11301TIP3   OH255317   0.238   3.946  17.179  0.5352  0.3104  0.4559
11301TIP3    H155318   0.239   4.035  17.213 -0.0774  0.4325  0.1700
11301TIP3    H255319   0.182   3.898  17.240 -1.8471  0.8822 -1.1881
11302TIP3   OH255320   2.061   3.359  15.226  0.4590  0.0232  0.0023
11302TIP3    H155321   2.095   3.396  15.308  2.4859  0.2313 -0.8996
11302TIP3    H255322   2.138   3.322  15.183 -0.6687 -0.5137 -1.5890
11303TIP3   OH255323   1.801   4.121   4.032  0.5599 -0.0930  0.6559
11303TIP3    H155324   1.810   4.212   4.062  0.1997 -0.2182  1.1496
11303TIP3    H255325   1.822   4.069   4.109  3.5039 -0.4849 -0.3474
11304TIP3   OH255326   3.728   2.717   2.666 -0.4861  0.1219  0.0691
11304TIP3    H155327   3.676   2.713   2.586 -0.1788 -1.6946 -0.0698
11304TIP3    H255328   3.666   2.699   2.736  0.0509 -2.9292 -0.1667
11305TIP3   OH255329   5.305   4.931   3.404  0.2218  0.1744 -0.0520
11305TIP3    H155330   5.358   4.882   3.340 -0.1009 -0.1416 -0.0796
11305TIP3    H255331   5.287   4.867   3.473  0.4315  0.4695  0.2749
11306TIP3   OH255332   4.287   2.662   1.751 -0.2922  0.2283  0.3948
11306TIP3    H155333   4.230   2.733   1.722 -0.6072 -0.4400 -0.6369
11306TIP3    H255334   4.233   2.611   1.811 -0.3209  0.4117  0.5259
11307TIP3   OH255335   4.134   1.352   5.481 -0.2875  0.2075  0.0803
11307TIP3    H155336   4.073   1.287   5.447 -0.2266 -0.0813  0.5170
11307TIP3    H255337   4.122   1.349   5.576  0.3955  0.1539  0.1682
11308TIP3   OH255338   2.306   2.441   0.222 -0.3956  0.1685 -0.0638
11308TIP3    H155339   2.244   2.373   0.247 -1.4476  1.6084  1.3704
11308TIP3    H255340   2.326   2.487   0.303  0.3847  1.5140 -0.9842
11309TIP3   OH255341   3.762   0.948   3.813 -0.5313  0.1786  0.0319
11309TIP3    H155342   3.759   0.865   3.765  0.8359  0.1999 -0.1202
11309TIP3    H255343   3.820   1.004   3.760 -1.7050  1.3531 -0.0518
11310TIP3   OH255344   1.550   1.019  16.838 -0.0267  0.3336  0.7393
11310TIP3    H155345   1.535   1.052  16.927 -1.0558  2.8449 -0.3023
11310TIP3    H255346   1.468   1.035  16.793  0.9404  0.3654 -1.0381
11311TIP3   OH255347   4.384   0.840  16.483  0.0977  0.0897 -0.0969
11311TIP3    H155348   4.378   0.751  16.518 -1.1735 -0.5185 -1.8053
11311TIP3    H255349   4.307   0.884  16.519 -0.4319 -0.1254 -0.9564
11312TIP3   OH255350   2.769   1.051   6.340 -0.1903 -0.1392 -0.3273
11312TIP3    H155351   2.835   1.056   6.271  0.0132 -0.8678 -0.1912
11312TIP3    H255352   2.794   1.120   6.402 -0.8252  1.0293 -1.3608
11313TIP3   OH255353   5.504   6.539  14.490  0.1522 -0.4801  0.0505
11313TIP3    H155354   5.440   6.604  14.519  0.0480 -0.4509 -0.2514
11313TIP3    H255355   5.456   6.483  14.429  0.2157 -0.8965  0.3793
11314TIP3   OH255356   3.927   0.728   4.887  0.2574 -0.2661  0.2339
11314TIP3    H155357   3.916   0.727   4.982 -0.0427  0.6445  0.2167
11314TIP3    H255358   4.005   0.675   4.871  2.3029  2.2907  1.2787
11315TIP3   OH255359   5.100   6.071   4.674 -0.5939  0.1950  0.8401
11315TIP3    H155360   5.066   6.140   4.618 -0.8907  0.9245  1.8917
11315TIP3    H255361   5.104   5.994   4.618  0.1594  1.1727 -0.4558
11316TIP3   OH255362   5.090   0.530  17.051 -0.3944  0.3911 -0.3083
11316TIP3    H155363   4.997   0.510  17.057  0.3364 -2.7159  1.8061
11316TIP3    H255364   5.107   0.589  17.124 -0.5874  0.4694 -0.3266
11317TIP3   OH255365   1.749   0.824   4.229 -0.0584  0.1308  0.1356
11317TIP3    H155366   1.766   0.738   4.265 -1.6448 -0.6835 -0.9901
11317TIP3    H255367   1.670   0.854   4.274 -0.4891  0.2574 -0.6946
11318TIP3   OH255368   4.668   2.675   3.659 -0.2188 -0.1594  0.1304
11318TIP3    H155369   4.632   2.600   3.706  0.7805  0.5918  2.1714
11318TIP3    H255370   4.693   2.640   3.573 -1.5305 -1.7083  0.3596
11319TIP3   OH255371   4.533   0.340  12.173 -0.0451  0.3190 -0.0172
11319TIP3    H155372   4.570   0.325  12.086 -2.0892 -0.7856 -0.7153
11319TIP3    H255373   4.545   0.434  12.188  1.0353  0.3781 -1.1484
11320TIP3   OH255374   3.622   6.023   0.048 -0.0426 -0.0795  0.5034
11320TIP3    H155375   3.624   6.119   0.049 -0.4809 -0.0673  0.0628
11320TIP3    H255376   3.671   5.998   0.127  0.4098  0.4989  0.4123
11321TIP3   OH255377   4.060   6.323  15.691  0.6031  0.3029  0.1958
11321TIP3    H155378   4.115   6.305  15.767 -0.4645 -0.1654  0.8664
11321TIP3    H255379   4.012   6.241  15.676  0.1680  0.6729 -0.4379
11322TIP3   OH255380   4.728   2.663  11.421 -0.0999 -0.3853  0.6329
11322TIP3    H155381   4.696   2.573  11.426  0.9834 -0.8325 -0.2490
11322TIP3    H255382   4.816   2.659  11.460  0.8936 -0.1863 -1.5198
11323TIP3   OH255383   6.271   5.115   3.339 -0.5488 -0.2876 -0.5286
11323TIP3    H155384   6.243   5.149   3.424  0.1287 -0.5464 -0.1927
11323TIP3    H255385   6.221   5.166   3.275 -1.1506 -0.1720  0.0262
11324TIP3   OH255386   5.769   1.200   5.698 -0.2243  0.1804 -0.2835
11324TIP3    H155387   5.773   1.279   5.645  1.8552 -0.4033 -1.0202
11324TIP3    H255388   5.724   1.136   5.643 -3.1779  1.1916  0.8301
11325TIP3   OH255389   2.247   3.182  14.104  0.6712  0.1903 -0.9004
11325TIP3    H155390   2.327   3.229  14.128 -0.9659  2.0809  1.0517
11325TIP3    H255391   2.212   3.230  14.029  0.2569  0.6848 -0.3989
11326TIP3   OH255392   2.109   4.459  13.239 -0.7371 -0.1817  0.6462
11326TIP3    H155393   2.064   4.399  13.298 -1.8277  0.8059  0.8369
11326TIP3    H255394   2.092   4.546  13.275 -1.5974  0.4555 -1.2160
11327TIP3   OH255395   0.484   1.963   0.659 -0.6324 -0.9076 -0.0730
11327TIP3    H155396   0.411   1.946   0.718 -2.0813  0.9098 -1.2728
11327TIP3    H255397   0.446   1.956   0.571  0.5352  0.4347 -0.7148
11328TIP3   OH255398   0.720   5.126  16.297 -0.5682  0.2696 -0.0853
11328TIP3    H155399   0.711   5.115  16.392  2.3001  0.1995  0.2216
11328TIP3    H255400   0.767   5.048  16.268  0.2862  1.2074 -1.2589
11329TIP3   OH255401   5.559   3.149   0.737 -0.1354  0.5494 -0.5687
11329TIP3    H155402   5.495   3.079   0.751 -0.7022  1.1499 -0.1783
11329TIP3    H255403   5.578   3.182   0.825 -1.0359  1.9304 -0.8857
11330TIP3   OH255404   3.128   4.272   1.481  0.0713  0.6968 -0.0626
11330TIP3    H155405   3.161   4.295   1.568 -1.7293 -0.5820  0.9917
11330TIP3    H255406   3.033   4.269   1.491 -0.0311 -2.8585 -1.1772
11331TIP3   OH255407   5.555   6.762  12.490  0.3499  0.2255 -0.0295
11331TIP3    H155408   5.469   6.792  12.519 -0.3626  0.6101 -2.4827
11331TIP3    H255409   5.571   6.683  12.542 -1.4410  0.1854  0.4884
11332TIP3   OH255410   1.643   3.937   5.811  0.0922  0.0603  0.2532
11332TIP3    H155411   1.693   4.008   5.849  1.4251 -0.4396 -0.5136
11332TIP3    H255412   1.579   3.980   5.755  1.0242  0.6636 -0.3622
11333TIP3   OH255413   0.982   3.892   1.665 -0.2605 -0.2747  0.5613
11333TIP3    H155414   0.956   3.979   1.634  0.2671 -0.3753 -0.1929
11333TIP3    H255415   0.916   3.868   1.730  1.1898  1.9455  2.9475
11334TIP3   OH255416   3.886   4.097   2.292 -0.7495  0.0221  0.2348
11334TIP3    H155417   3.917   4.127   2.207 -0.9361 -2.7983 -0.8669
11334TIP3    H255418   3.794   4.076   2.278 -0.2050 -2.7035  0.4921
11335TIP3   OH255419   2.455   0.094   2.052  0.6613 -0.1310  0.2335
11335TIP3    H155420   2.524   0.105   2.118  0.6285  2.2290 -0.0845
11335TIP3    H255421   2.386   0.046   2.097  1.4107 -0.1609  1.3618
11336TIP3   OH255422   5.926   5.667  15.629 -0.0373  0.3348 -0.0357
11336TIP3    H155423   5.853   5.700  15.577  0.8740  1.3314 -0.7194
11336TIP3    H255424   5.888   5.649  15.715 -1.1351  0.6202 -0.4561
11337TIP3   OH255425   1.285   4.447   1.667  0.8386  0.1442  0.5821
11337TIP3    H155426   1.316   4.520   1.613  1.1446 -0.4797 -0.0993
11337TIP3    H255427   1.326   4.369   1.628  0.1204 -0.4474  0.9931
11338TIP3   OH255428   2.013   4.184  14.203 -0.5124 -0.1069 -0.4368
11338TIP3    H155429   2.028   4.110  14.143 -1.3835 -1.3278  0.8242
11338TIP3    H255430   1.990   4.257  14.146  1.9793 -0.3603 -1.8274
11339TIP3   OH255431   5.636   0.445  15.814 -0.1732  0.1100  0.0133
11339TIP3    H155432   5.717   0.439  15.864 -0.8775 -1.7301  0.9914
11339TIP3    H255433   5.657   0.407  15.729  0.8637  2.7043 -0.9445
11340TIP3   OH255434   6.161   6.754  10.990 -0.1986 -0.2573 -0.3750
11340TIP3    H155435   6.206   6.683  10.944  0.6601 -0.9020  1.4186
11340TIP3    H255436   6.098   6.788  10.926 -1.0193 -3.0088 -1.0742
11341TIP3   OH255437   5.681   2.326   1.126  0.1268 -0.6485 -0.0010
11341TIP3    H155438   5.658   2.418   1.112  1.2946 -0.3898 -0.3125
11341TIP3    H255439   5.616   2.293   1.188 -0.3097  0.3817  0.0900
11342TIP3   OH255440   4.644   6.205  16.175 -0.7985  0.3314 -0.0429
11342TIP3    H155441   4.721   6.151  16.194 -1.7837 -1.0730 -0.0062
11342TIP3    H255442   4.569   6.147  16.189 -1.8730  1.6884 -0.0748
11343TIP3   OH255443   5.054   4.736  16.449  0.5719  0.3835  0.4256
11343TIP3    H155444   4.961   4.722  16.467  0.7151  0.7636  1.4595
11343TIP3    H255445   5.067   4.696  16.362 -0.7234  1.0148 -0.0784
11344TIP3   OH255446   3.894   2.098  10.952  0.5420  0.4971 -0.3280
11344TIP3    H155447   3.856   2.128  10.869  2.1127 -0.4038 -1.3873
11344TIP3    H255448   3.939   2.175  10.987 -1.2911  1.2644  0.3966
11345TIP3   OH255449   2.177   2.217  11.062  0.1093 -0.4610 -0.4643
11345TIP3    H155450   2.235   2.201  11.137 -1.0337  2.0955  1.0166
11345TIP3    H255451   2.090   2.196  11.094 -0.2417 -0.5047 -1.4484
11346TIP3   OH255452   6.676   5.313  13.685  0.3579  0.5942  0.3960
11346TIP3    H155453   6.586   5.345  13.682  0.6056  1.2438 -0.4278
11346TIP3    H255454   6.681   5.263  13.766  0.0296  2.9525  1.9348
11347TIP3   OH255455   1.724   0.648  15.389 -0.6156 -0.1893  0.6776
11347TIP3    H155456   1.649   0.703  15.366  0.8752  1.6791  0.0866
11347TIP3    H255457   1.711   0.627  15.482 -2.2578 -0.5637  0.3779
11348TIP3   OH255458   4.151   2.493   1.948  0.0948  0.3731  0.8346
11348TIP3    H155459   4.220   2.436   1.984 -0.3796 -2.1200 -2.0105
11348TIP3    H255460   4.078   2.482   2.008 -0.4394 -3.1611 -0.3117
11349TIP3   OH255461   0.395   3.914   0.929  0.0807  0.2648 -0.1695
11349TIP3    H155462   0.479   3.872   0.950 -0.2943 -0.1423  0.5579
11349TIP3    H255463   0.376   3.886   0.840 -0.2865 -1.3531  0.3945
11350TIP3   OH255464   3.818   6.318   3.836 -0.0056 -0.4300  0.0497
11350TIP3    H155465   3.793   6.243   3.782 -0.2379 -0.2751 -0.0575
11350TIP3    H255466   3.840   6.387   3.773 -0.7543 -0.0932  0.1525
11351TIP3   OH255467   2.458   5.027   3.269 -0.3216  0.2807 -0.6918
11351TIP3    H155468   2.406   5.078   3.331 -0.1140 -1.1246  0.6511
11351TIP3    H255469   2.425   5.055   3.183  0.1990  3.0985 -0.0419
11352TIP3   OH255470   1.489   0.540  13.781 -0.0504  0.1613  0.0354
11352TIP3    H155471   1.541   0.490  13.718 -1.2144  0.1169 -0.9019
11352TIP3    H255472   1.545   0.545  13.859  1.5813  0.6140 -1.1417
11353TIP3   OH255473   5.172   2.746   4.869  0.1593  0.2225 -0.4916
11353TIP3    H155474   5.131   2.678   4.922 -0.1093  1.1029  0.4383
11353TIP3    H255475   5.158   2.718   4.778 -2.7111  0.6483 -0.2083
11354TIP3   OH255476   3.993   4.965  11.944  0.0480  0.0728  0.2603
11354TIP3    H155477   3.966   4.988  12.033  1.2781  3.5339 -0.1990
11354TIP3    H255478   3.912   4.971  11.893 -0.3038 -0.0536  0.7925
11355TIP3   OH255479   0.426   0.908  13.063 -0.2299 -0.1337 -0.3070
11355TIP3    H155480   0.369   0.958  13.005  1.4877  0.7871 -1.2478
11355TIP3    H255481   0.515   0.927  13.032  0.6118 -1.3309  1.2714
11356TIP3   OH255482   2.370   0.286   0.509  0.0641  0.0312 -0.0319
11356TIP3    H155483   2.439   0.330   0.460  0.0723 -0.6896 -0.6769
11356TIP3    H255484   2.290   0.303   0.459  0.0680 -0.6768 -0.2890
11357TIP3   OH255485   2.052   2.938   3.044 -0.6866 -0.5744  0.2646
11357TIP3    H155486   1.997   2.864   3.068 -1.2697 -0.3244 -0.2861
11357TIP3    H255487   2.126   2.934   3.105 -1.3110 -0.9067  1.0094
11358TIP3   OH255488   6.370   3.906  14.968  0.0072  0.0506  0.6504
11358TIP3    H155489   6.335   3.831  15.016 -1.7587  0.1687 -0.3953
11358TIP3    H255490   6.350   3.887  14.876  1.3896  0.8375  0.1746
11359TIP3   OH255491   6.402   6.160  13.381  0.7447  0.2152  0.4842
11359TIP3    H155492   6.316   6.119  13.388  1.1563 -0.7381 -0.0174
11359TIP3    H255493   6.463   6.095  13.416  1.3985  0.4324 -0.2476
11360TIP3   OH255494   4.291   2.616   2.618 -1.0787 -0.4972 -0.3039
11360TIP3    H155495   4.214   2.657   2.658 -1.3889 -0.4881 -0.9156
11360TIP3    H255496   4.283   2.636   2.525 -0.3689 -0.5502 -0.3763
11361TIP3   OH255497   1.137   3.684  11.666 -0.3228 -0.1889 -0.0806
11361TIP3    H155498   1.095   3.635  11.737  1.0765  0.2241  1.0693
11361TIP3    H255499   1.123   3.776  11.690  1.6726 -0.0379  0.6229
11362TIP3   OH255500   5.671   0.923  13.603  0.0260  0.2495  0.5703
11362TIP3    H155501   5.670   1.005  13.555  0.1103  0.3240  0.6959
11362TIP3    H255502   5.581   0.890  13.598  0.1402  0.0238 -0.0430
11363TIP3   OH255503   4.606   5.889  12.666  0.1942  0.3320 -0.1115
11363TIP3    H155504   4.560   5.808  12.690 -0.6501  0.9807  0.4989
11363TIP3    H255505   4.662   5.907  12.742  0.5449  0.2036 -0.3397
11364TIP3   OH255506   2.033   4.611   2.978 -0.2835 -0.2233  0.2511
11364TIP3    H155507   2.121   4.574   2.973  0.1641  0.6201  1.6182
11364TIP3    H255508   2.001   4.586   3.065 -0.6480  1.0746  0.5066
11365TIP3   OH255509   0.136   2.787  12.182 -0.1221 -0.2336  0.2073
11365TIP3    H155510   0.131   2.808  12.275  2.1709 -0.5538  0.4457
11365TIP3    H255511   0.093   2.702  12.173 -2.7043  1.0046  0.5026
11366TIP3   OH255512   2.473   5.161  12.121 -0.3588 -0.1368 -0.0920
11366TIP3    H155513   2.513   5.101  12.058  1.3404 -0.0442  0.8597
11366TIP3    H255514   2.392   5.190  12.079 -0.3085 -1.7215 -1.3041
11367TIP3   OH255515   6.639   5.409  16.645  0.3175 -0.7871  0.1737
11367TIP3    H155516   6.557   5.405  16.597  0.0675  2.7742  0.1601
11367TIP3    H255517   6.707   5.415  16.577  0.5056 -2.2528  0.2125
11368TIP3   OH255518   5.569   1.300   4.388 -0.1699  0.0812 -0.6154
11368TIP3    H155519   5.617   1.230   4.345 -0.1594  0.5246 -1.3293
11368TIP3    H255520   5.632   1.372   4.394  0.0225 -0.1782  0.6947
11369TIP3   OH255521   3.262   0.188  16.355  0.1766 -0.6322  0.3525
11369TIP3    H155522   3.312   0.249  16.301  0.4554  0.1160  1.4400
11369TIP3    H255523   3.248   0.112  16.299  1.6996 -0.4498 -0.2880
11370TIP3   OH255524   3.186   3.285  14.332 -0.1112  0.0880  0.1148
11370TIP3    H155525   3.170   3.226  14.407 -0.3668  2.0125  1.6120
11370TIP3    H255526   3.099   3.309  14.302 -0.0018  0.3649  0.0253
11371TIP3   OH255527   6.160   5.480   1.600  0.1494 -0.3704  0.4033
11371TIP3    H155528   6.198   5.397   1.570  1.6972  0.4883 -0.1033
11371TIP3    H255529   6.199   5.495   1.686  0.5282  0.2260  0.1364
11372TIP3   OH255530   4.368   4.640  12.275 -0.0483 -0.6119 -1.2106
11372TIP3    H155531   4.374   4.735  12.281 -1.5706 -0.4608 -1.7011
11372TIP3    H255532   4.458   4.610  12.273  0.4557  0.8942 -1.9227
11373TIP3   OH255533   3.998   1.963  13.598 -0.3373  0.1422  0.5092
11373TIP3    H155534   4.019   1.983  13.689 -0.1399 -1.9555  0.9474
11373TIP3    H255535   4.081   1.932  13.560 -0.8188 -0.7084  0.1248
11374TIP3   OH255536   2.463   4.250  12.567 -0.1567  0.6378 -0.5107
11374TIP3    H155537   2.376   4.221  12.538 -0.3394 -0.8625  1.4255
11374TIP3    H255538   2.446   4.330  12.616 -0.6557 -0.4083  1.0751
11375TIP3   OH255539   4.766   3.924   4.956  0.0783 -0.0505  0.1297
11375TIP3    H155540   4.680   3.955   4.929  0.8611  0.7130 -1.5525
11375TIP3    H255541   4.805   3.887   4.876  1.5216  0.1027  0.7339
11376TIP3   OH255542   4.306   3.746   3.273 -0.4246  0.5215  0.1441
11376TIP3    H155543   4.288   3.740   3.179 -0.7579 -1.5250  0.3185
11376TIP3    H255544   4.225   3.717   3.315 -0.2037  1.2138  1.0720
11377TIP3   OH255545   5.364   2.010   0.831 -0.2356 -0.5025 -0.6406
11377TIP3    H155546   5.356   2.078   0.764 -1.5967 -0.3427 -0.3238
11377TIP3    H255547   5.456   2.014   0.857 -0.4763  1.7769 -0.0426
11378TIP3   OH255548   2.427   4.449  16.732 -0.1125 -0.2813 -0.0946
11378TIP3    H155549   2.348   4.503  16.732 -1.2474 -1.9031 -0.8684
11378TIP3    H255550   2.480   4.485  16.803 -0.2017  2.7343 -1.4829
11379TIP3   OH255551   0.778   3.829  15.158 -0.0747 -0.0142  0.3459
11379TIP3    H155552   0.853   3.817  15.217  0.9667  0.2451 -0.8888
11379TIP3    H255553   0.815   3.815  15.070 -1.2145  1.3017 -0.3650
11380TIP3   OH255554   3.231   5.107  10.603  0.0270  0.1903  0.1598
11380TIP3    H155555   3.139   5.121  10.627  0.3381  1.0360  0.9168
11380TIP3    H255556   3.264   5.045  10.668  0.1002  0.2178  0.1497
11381TIP3   OH255557   5.985   5.989  16.694  0.4392  0.2783  0.4038
11381TIP3    H155558   6.021   5.931  16.761  1.5743  0.2235 -0.2330
11381TIP3    H255559   6.057   6.049  16.673  0.1500  0.1979 -0.8736
11382TIP3   OH255560   1.261   5.890   4.872 -0.1680 -0.3007 -0.0205
11382TIP3    H155561   1.298   5.971   4.907  2.0073 -0.8379 -1.0459
11382TIP3    H255562   1.267   5.827   4.944 -2.0493  0.4596  0.8466
11383TIP3   OH255563   5.227   2.234   1.333 -0.0730  0.1086 -0.3686
11383TIP3    H155564   5.239   2.196   1.246  3.8368 -0.1264  0.2090
11383TIP3    H255565   5.176   2.168   1.381  0.5520 -1.2290 -1.5083
11384TIP3   OH255566   2.644   1.861  11.984 -0.2022 -0.3140  0.0288
11384TIP3    H155567   2.661   1.848  11.891  0.8908 -1.6550  0.4004
11384TIP3    H255568   2.721   1.823  12.028 -1.1915 -0.6392  1.5099
11385TIP3   OH255569   2.251   2.585   3.149 -0.5737  0.0886 -0.5060
11385TIP3    H155570   2.309   2.660   3.151  0.2208 -0.5225 -0.1734
11385TIP3    H255571   2.302   2.514   3.189 -0.7999 -0.9900 -2.0902
11386TIP3   OH255572   4.552   4.612   3.082 -0.1436  0.3373  0.0654
11386TIP3    H155573   4.581   4.679   3.020 -0.7593 -0.2501 -0.8704
11386TIP3    H255574   4.500   4.661   3.146 -2.7484  0.4657 -2.0121
11387TIP3   OH255575   3.435   2.098   4.571 -0.5387  0.2894 -0.2981
11387TIP3    H155576   3.480   2.078   4.654 -1.8445 -0.1367  0.3273
11387TIP3    H255577   3.407   2.013   4.538 -3.2085  0.7528  0.6743
11388TIP3   OH255578   6.292   3.645   3.124  0.2084  0.3142  0.1898
11388TIP3    H155579   6.286   3.681   3.035  1.6100 -0.1572 -0.1102
11388TIP3    H255580   6.262   3.554   3.115  0.2206  0.3066  0.2282
11389TIP3   OH255581   0.229   2.907  13.843  0.3933  0.0004  0.0450
11389TIP3    H155582   0.148   2.862  13.865 -0.0210 -0.3430 -2.0022
11389TIP3    H255583   0.283   2.900  13.921 -1.8027  0.8622  1.7186
11390TIP3   OH255584   6.096   2.134  15.343 -0.6840 -0.0593  0.2584
11390TIP3    H155585   6.097   2.069  15.413 -3.8161  0.8741  1.2368
11390TIP3    H255586   6.143   2.209  15.380 -0.5557 -0.3079  0.6028
11391TIP3   OH255587   0.937   6.529   5.949 -0.3195 -0.4153 -0.1035
11391TIP3    H155588   0.937   6.589   6.024  0.4247 -1.7183  0.9618
11391TIP3    H255589   0.844   6.512   5.933 -0.5440  1.1629 -0.5377
11392TIP3   OH255590   3.861   6.571   4.790  0.1142 -0.0596  0.1689
11392TIP3    H155591   3.850   6.663   4.765  0.7889 -0.1652 -0.5497
11392TIP3    H255592   3.874   6.573   4.885  0.3512  0.6087  0.1259
11393TIP3   OH255593   2.269   5.610   4.423 -0.0835  0.0252 -0.1337
11393TIP3    H155594   2.199   5.644   4.367 -1.5921 -0.0662  1.6478
11393TIP3    H255595   2.288   5.523   4.388  0.2610  0.6679 -1.5947
11394TIP3   OH255596   5.950   0.150   3.724  0.1887 -0.3229 -0.1224
11394TIP3    H155597   5.933   0.205   3.800  1.3585 -0.1083 -0.0021
11394TIP3    H255598   6.022   0.193   3.678 -1.8691  0.6857 -2.5095
11395TIP3   OH255599   1.591   1.060   2.612  0.0582 -0.2374  0.1574
11395TIP3    H155600   1.604   0.966   2.622 -1.6149 -0.4924  0.0818
11395TIP3    H255601   1.517   1.081   2.670  0.2597  0.9824 -0.0072
11396TIP3   OH255602   2.615   2.797   0.596  0.1989 -0.0361  0.2051
11396TIP3    H155603   2.606   2.892   0.590 -0.0778 -0.0522  0.3573
11396TIP3    H255604   2.658   2.771   0.515  3.4226  0.6150  1.6421
11397TIP3   OH255605   2.543   5.672  16.198 -0.6031 -0.2490  0.5373
11397TIP3    H155606   2.606   5.618  16.151 -0.7711 -1.2314  1.4238
11397TIP3    H255607   2.561   5.655  16.290 -0.1679  1.7789  0.8570
11398TIP3   OH255608   6.143   5.376  13.708  0.3388  0.1075 -0.0993
11398TIP3    H155609   6.072   5.437  13.725  1.1886  0.8149  0.9942
11398TIP3    H255610   6.122   5.338  13.623 -1.1375  0.5841  0.0340
11399TIP3   OH255611   1.426   4.577  11.809 -0.1337  0.0083  0.5033
11399TIP3    H155612   1.478   4.528  11.873  0.2535 -0.2985 -0.0465
11399TIP3    H255613   1.466   4.557  11.725 -0.4346  0.6885  0.1987
11400TIP3   OH255614   0.868   4.922   4.379  0.0019  0.0699 -0.1622
11400TIP3    H155615   0.946   4.943   4.430 -1.0412  3.5553  0.1195
11400TIP3    H255616   0.819   4.861   4.434  2.5167 -2.2645 -0.3979
11401TIP3   OH255617   2.905   5.093   5.617  0.3092 -0.3656 -0.5255
11401TIP3    H155618   2.855   5.018   5.647  0.2874 -0.9806 -2.0708
11401TIP3    H255619   2.996   5.062   5.616  0.3976 -0.1161 -0.4012
11402TIP3   OH255620   0.930   4.852  12.344 -0.5389  0.5325  0.3124
11402TIP3    H155621   0.976   4.782  12.391  2.4125  1.2638 -1.3569
11402TIP3    H255622   0.898   4.811  12.264 -1.0082  0.5006  0.5169
11403TIP3   OH255623   0.359   2.545  11.825 -0.2790  0.4521 -0.4959
11403TIP3    H155624   0.360   2.630  11.869  0.0336  1.1173 -1.7689
11403TIP3    H255625   0.267   2.527  11.809 -0.4881 -0.3245  1.4050
11404TIP3   OH255626   2.801   6.502  13.938 -0.2067  0.2552 -0.6175
11404TIP3    H155627   2.869   6.566  13.919  0.4846 -0.3616 -0.2485
11404TIP3    H255628   2.726   6.554  13.967  0.3682  0.8960 -0.2618
11405TIP3   OH255629   6.570   3.244   1.335 -0.2682  0.1148  0.1323
11405TIP3    H155630   6.500   3.297   1.298  0.0377  0.0087 -0.6073
11405TIP3    H255631   6.645   3.304   1.341 -0.1059 -0.0640 -0.1070
11406TIP3   OH255632   3.170   5.608   1.492 -0.7294 -0.0115  0.1848
11406TIP3    H155633   3.091   5.652   1.461 -0.3923  0.5656  0.1287
11406TIP3    H255634   3.139   5.544   1.556 -1.4347 -1.2092 -1.3249
11407TIP3   OH255635   4.021   2.890   4.020 -0.1881  0.0316  0.1850
11407TIP3    H155636   3.929   2.865   4.026 -0.7553  1.6931 -1.1388
11407TIP3    H255637   4.026   2.973   4.066  0.4934  0.3326 -0.4280
11408TIP3   OH255638   2.784   4.906  15.284  0.3511  0.3267 -0.0018
11408TIP3    H155639   2.838   4.828  15.299  2.2004  1.2453 -1.7002
11408TIP3    H255640   2.781   4.949  15.370  3.0730  0.7069 -0.0547
11409TIP3   OH255641   3.536   5.496   0.680 -0.3480 -0.0387 -0.4033
11409TIP3    H155642   3.451   5.477   0.642  0.0684  0.8882 -1.8636
11409TIP3    H255643   3.549   5.590   0.663  0.6369 -0.0133  0.4468
11410TIP3   OH255644   2.824   1.054   2.762  0.0061 -0.0608 -0.3244
11410TIP3    H155645   2.793   1.136   2.722 -1.5860 -0.1699  0.6807
11410TIP3    H255646   2.875   1.012   2.692 -1.5579  0.4216 -1.7866
11411TIP3   OH255647   5.369   1.637   4.822 -0.0971  0.5426 -0.0577
11411TIP3    H155648   5.293   1.688   4.793 -1.0018 -0.5231  0.4312
11411TIP3    H255649   5.363   1.637   4.917  1.1214  1.3551  0.0333
11412TIP3   OH255650   5.533   2.754  14.406  0.3020  0.2394 -0.2836
11412TIP3    H155651   5.554   2.828  14.463 -0.4772 -0.6557  1.2079
11412TIP3    H255652   5.438   2.747  14.408  0.4330 -1.8773  1.0489
11413TIP3   OH255653   0.375   0.682  12.244 -0.2790 -0.4210  0.2651
11413TIP3    H155654   0.292   0.661  12.287 -1.0399  1.4025 -0.2694
11413TIP3    H255655   0.354   0.681  12.151  0.4618 -0.6120  0.1006
11414TIP3   OH255656   1.620   4.484  13.958 -0.1456 -0.1097  0.0856
11414TIP3    H155657   1.579   4.457  13.875 -1.5866  1.1292  0.3674
11414TIP3    H255658   1.666   4.565  13.936 -0.3964  0.1355  0.4665
11415TIP3   OH255659   4.412   3.975   1.683 -0.3373 -0.0352 -0.5624
11415TIP3    H155660   4.455   3.961   1.598 -2.3702  0.0711 -1.6361
11415TIP3    H255661   4.364   4.057   1.672 -1.0145 -0.2848  0.5183
11416TIP3   OH255662   5.609   5.768  15.787  0.2389 -0.3863  0.0157
11416TIP3    H155663   5.564   5.837  15.836 -2.4237 -3.0079  1.4297
11416TIP3    H255664   5.665   5.725  15.852  0.8780 -0.4259 -0.5522
11417TIP3   OH255665   0.255   3.955   4.848 -0.2225 -0.1780 -0.7755
11417TIP3    H155666   0.173   3.996   4.822 -1.6834 -2.7554 -0.4018
11417TIP3    H255667   0.257   3.964   4.943  0.1362  0.2396 -0.8208
11418TIP3   OH255668   4.609   4.522  15.093  0.0913  0.1740  0.2399
11418TIP3    H155669   4.564   4.471  15.026  0.1771 -1.1303  1.1411
11418TIP3    H255670   4.540   4.575  15.133 -0.3531 -0.5931  0.5102
11419TIP3   OH255671   2.752   2.407   1.261 -0.2511 -0.1257  0.6725
11419TIP3    H155672   2.701   2.326   1.262  1.2188 -1.0513  1.3874
11419TIP3    H255673   2.688   2.475   1.239 -1.9054 -1.1871  2.0659
11420TIP3   OH255674   0.136   3.529   2.488  0.2387 -0.2878  0.3338
11420TIP3    H155675   0.136   3.624   2.475 -0.1151 -0.4542 -0.9676
11420TIP3    H255676   0.194   3.514   2.562  0.2479  0.9562  0.5761
11421TIP3   OH255677   0.514   5.261   0.148 -0.5597 -0.2461 -0.2205
11421TIP3    H155678   0.421   5.283   0.142 -1.3287 -2.8827  1.0143
11421TIP3    H255679   0.540   5.285   0.237 -0.1242  0.2498 -0.4786
11422TIP3   OH255680   4.144   1.085   3.844  0.0246 -0.7800 -0.5123
11422TIP3    H155681   4.052   1.088   3.815 -0.8906  1.2880  2.3624
11422TIP3    H255682   4.139   1.070   3.938  2.8001 -4.0346 -0.8079
11423TIP3   OH255683   0.399   0.022   1.898  0.0254  0.6951 -0.0725
11423TIP3    H155684   0.449  -0.013   1.825 -0.1022  0.5966 -0.1130
11423TIP3    H255685   0.350   0.096   1.862 -1.5834 -0.5711 -0.5633
11424TIP3   OH255686   5.915   3.038   2.508  0.3387 -0.0826 -0.1415
11424TIP3    H155687   5.838   2.988   2.537  1.0304 -0.9676  0.2157
11424TIP3    H255688   5.921   3.020   2.414  0.2092 -0.1662 -0.1333
11425TIP3   OH255689   6.444   2.992  12.127 -0.1338 -0.1344 -0.1552
11425TIP3    H155690   6.434   3.072  12.075 -0.8803 -1.0331 -1.4155
11425TIP3    H255691   6.454   2.922  12.062  0.8721 -1.0217  0.9416
11426TIP3   OH255692   3.438   2.576  13.184  0.1531  0.5417  0.0837
11426TIP3    H155693   3.378   2.650  13.173  0.1873  0.7736  1.3692
11426TIP3    H255694   3.430   2.527  13.102 -1.9957  0.4162  0.3226
11427TIP3   OH255695   4.271   1.970   3.434  0.5733 -0.2323 -0.2080
11427TIP3    H155696   4.210   1.983   3.506 -1.1214  1.7890 -1.9482
11427TIP3    H255697   4.314   2.055   3.423  2.0833 -1.0153 -0.4505
11428TIP3   OH255698   5.488   6.076   5.753 -0.2120  0.0347 -0.5345
11428TIP3    H155699   5.536   5.995   5.770  0.0538  0.3417  0.1870
11428TIP3    H255700   5.460   6.106   5.839 -0.8226  0.3992 -0.8571
11429TIP3   OH255701   0.618   1.490   4.289 -0.1457 -0.1209  0.3728
11429TIP3    H155702   0.550   1.538   4.242 -0.9171 -0.9081  0.6604
11429TIP3    H255703   0.634   1.412   4.235  0.6709  0.1537  0.2087
11430TIP3   OH255704   2.092   5.027   1.189  0.2452  0.1122 -0.1955
11430TIP3    H155705   2.014   5.041   1.242 -0.0034 -0.6611 -0.3523
11430TIP3    H255706   2.070   4.953   1.133  0.9333  0.1720 -0.5541
11431TIP3   OH255707   6.556   0.738   1.330  0.5167 -0.1516 -0.0361
11431TIP3    H155708   6.535   0.790   1.408  0.6416 -1.6561  1.0305
11431TIP3    H255709   6.477   0.744   1.276  1.4802  3.3151 -1.2118
11432TIP3   OH255710   5.471   4.792  15.486 -0.0905 -0.0314 -0.4650
11432TIP3    H155711   5.560   4.821  15.466  0.0026 -0.3405 -0.5152
11432TIP3    H255712   5.445   4.742  15.409 -0.6265  0.7662 -0.8048
11433TIP3   OH255713   2.742   4.499   0.293  0.2806  0.0450  0.8584
11433TIP3    H155714   2.812   4.542   0.342  1.0006  0.5641 -0.6108
11433TIP3    H255715   2.787   4.451   0.224 -0.8751  1.5386 -0.9819
11434TIP3   OH255716   1.068   2.678  12.318 -0.3282 -0.0558 -0.1433
11434TIP3    H155717   1.157   2.661  12.287  0.0937 -0.5467  1.3039
11434TIP3    H255718   1.070   2.768  12.350 -0.5548  0.1878 -0.8120
11435TIP3   OH255719   4.972   5.158   2.458 -0.2563 -0.8801  0.2977
11435TIP3    H155720   4.993   5.191   2.546 -1.2063 -0.2081  0.2746
11435TIP3    H255721   5.016   5.073   2.454  1.0802 -0.2350  0.8566
11436TIP3   OH255722   2.022   5.859   0.161  0.1565 -0.7667 -0.0135
11436TIP3    H155723   2.114   5.856   0.188  0.1768  0.3038  0.0242
11436TIP3    H255724   2.012   5.944   0.118 -0.8798 -0.7838  0.1881
11437TIP3   OH255725   1.878   1.521   0.458 -0.6389  0.2467 -0.1390
11437TIP3    H155726   1.911   1.481   0.377  1.8943 -0.0332  0.9960
11437TIP3    H255727   1.843   1.605   0.430 -0.5923 -0.2206 -1.6548
11438TIP3   OH255728   6.131   1.983   4.464 -0.3408  0.1800  0.0963
11438TIP3    H155729   6.066   2.032   4.515 -0.4668 -0.5035  0.6102
11438TIP3    H255730   6.118   2.012   4.374 -1.8071 -0.4131  0.0889
11439TIP3   OH255731   5.645   1.312  13.235  0.0399 -0.3309 -0.4385
11439TIP3    H155732   5.635   1.331  13.142  2.7765 -1.6352 -1.0418
11439TIP3    H255733   5.669   1.396  13.274 -0.1268  0.0134 -1.0714
11440TIP3   OH255734   1.526   1.511   5.488 -0.1465  0.2456  0.6572
11440TIP3    H155735   1.596   1.570   5.517  0.5249 -1.5573  2.7809
11440TIP3    H255736   1.464   1.569   5.443  1.8591  2.1295  0.2118
11441TIP3   OH255737   1.383   6.479  13.187 -0.3739  0.2810 -0.1351
11441TIP3    H155738   1.320   6.547  13.163 -0.2194  0.4586 -0.0341
11441TIP3    H255739   1.407   6.438  13.104  0.0825  0.8270 -0.2745
11442TIP3   OH255740   6.236   6.597   1.019  0.4512 -0.1840  0.4629
11442TIP3    H155741   6.165   6.628   1.075  1.4919  2.8924  0.2002
11442TIP3    H255742   6.193   6.538   0.956 -1.5452  0.1905  1.4347
11443TIP3   OH255743   2.414   5.650  11.728  0.0971 -0.1093 -0.1029
11443TIP3    H155744   2.449   5.597  11.657 -0.1795  0.4875 -0.6785
11443TIP3    H255745   2.445   5.606  11.808  1.5015 -0.0254 -0.6020
11444TIP3   OH255746   5.956   2.430   5.338  0.5169  0.2099  0.0906
11444TIP3    H155747   6.043   2.448   5.374  1.0085 -2.1964  0.2110
11444TIP3    H255748   5.972   2.410   5.246  0.1445 -0.7004  0.2206
11445TIP3   OH255749   2.570   5.374  11.698  0.3546  0.0809  0.3638
11445TIP3    H155750   2.479   5.356  11.674 -0.4178  3.2195  0.7003
11445TIP3    H255751   2.584   5.323  11.778 -0.6598 -1.4513 -0.4057
11446TIP3   OH255752   4.089   2.381   1.182 -0.3503  0.0458 -0.2673
11446TIP3    H155753   4.133   2.442   1.124  0.7670  0.5485  1.0604
11446TIP3    H255754   3.998   2.410   1.185  0.3606  2.2467  1.0822
11447TIP3   OH255755   1.107   2.617  15.968 -0.9525 -0.0287 -0.3511
11447TIP3    H155756   1.182   2.622  16.027 -1.0490  0.9066 -0.3050
11447TIP3    H255757   1.142   2.575  15.889 -0.1847  1.1307 -0.6345
11448TIP3   OH255758   3.467   2.457  16.013  0.3086 -0.4802  0.1203
11448TIP3    H155759   3.482   2.363  16.023 -0.2309 -0.4616  1.2057
11448TIP3    H255760   3.378   2.471  16.048  1.1368  0.7174  1.8366
11449TIP3   OH255761   5.512   1.706  15.410  0.7246  0.5887  0.0773
11449TIP3    H155762   5.449   1.752  15.465 -0.4170 -0.4423 -0.3365
11449TIP3    H255763   5.475   1.618  15.400  1.5475  0.3876 -1.2940
11450TIP3   OH255764   3.900   4.148   2.988  0.1168 -0.1914 -0.0247
11450TIP3    H155765   3.852   4.182   3.063  1.0777 -2.5003  1.6715
11450TIP3    H255766   3.919   4.057   3.010  2.3703 -0.2743 -2.0877
11451TIP3   OH255767   4.428   2.555   5.618 -0.1069 -0.0399 -0.3212
11451TIP3    H155768   4.465   2.471   5.589 -2.0448 -0.6653 -1.0231
11451TIP3    H255769   4.492   2.619   5.588  1.0125 -1.1932 -0.4838
11452TIP3   OH255770   2.231   4.858   5.530 -0.0873 -0.2239  0.2815
11452TIP3    H155771   2.206   4.881   5.440 -0.8597 -3.4644 -0.4295
11452TIP3    H255772   2.326   4.869   5.532  0.0258 -0.7218 -1.1779
11453TIP3   OH255773   0.447   4.897  16.419  0.0188  0.2180  0.5139
11453TIP3    H155774   0.500   4.826  16.383 -1.3292 -0.6297  0.1865
11453TIP3    H255775   0.505   4.940  16.483  1.2405 -0.4196 -0.1523
11454TIP3   OH255776   3.779   1.265  11.992 -0.3736 -0.6026 -0.3517
11454TIP3    H155777   3.820   1.317  11.924 -0.0054 -1.0780 -0.4988
11454TIP3    H255778   3.700   1.230  11.952  0.9269 -2.6164 -1.2357
11455TIP3   OH255779   4.212   0.438  11.918  0.1751 -0.0355 -0.4502
11455TIP3    H155780   4.187   0.527  11.893 -1.0708 -0.6344 -1.3927
11455TIP3    H255781   4.270   0.408  11.848 -1.7710 -1.0129 -1.6915
11456TIP3   OH255782   2.235   1.684  14.449  0.4647  0.1620  0.4062
11456TIP3    H155783   2.193   1.598  14.452 -0.9414  0.8031 -0.7288
11456TIP3    H255784   2.328   1.665  14.455  0.3259 -1.6140 -2.2553
11457TIP3   OH255785   0.136   3.282   3.038  0.1247 -0.0595  0.1263
11457TIP3    H155786   0.225   3.248   3.053  0.9893  1.5560 -1.2017
11457TIP3    H255787   0.125   3.352   3.102  0.5742  1.0565 -0.9881
11458TIP3   OH255788   0.878   0.031   2.824  0.0382  0.1714 -0.4757
11458TIP3    H155789   0.892   0.047   2.731  0.1658  2.1372 -0.1449
11458TIP3    H255790   0.911  -0.058   2.839  0.6399  0.0973 -2.1581
11459TIP3   OH255791   5.138   0.467  15.986  0.4135 -0.3037 -0.6376
11459TIP3    H155792   5.111   0.393  15.932  0.4247  0.8856 -2.2832
11459TIP3    H255793   5.233   0.456  15.997  0.3870 -0.6204 -0.7448
11460TIP3   OH255794   0.030   0.123   0.367 -0.6566 -0.1386 -0.1613
11460TIP3    H155795  -0.026   0.200   0.358  0.0678  0.4433  0.2464
11460TIP3    H255796   0.116   0.159   0.391 -0.6190 -1.1605  1.2395
11461TIP3   OH255797   2.729   0.342  16.353 -0.1631  0.4814  0.2562
11461TIP3    H155798   2.792   0.413  16.337  0.5901 -0.0927  0.6290
11461TIP3    H255799   2.697   0.318  16.266  2.2976 -1.1565 -0.2602
11462TIP3   OH255800   3.859   1.988   2.898 -0.4235  0.2121  0.4155
11462TIP3    H155801   3.831   2.059   2.956 -0.2138 -0.5358  1.4448
11462TIP3    H255802   3.869   2.029   2.813  0.4385  1.5886  1.1646
11463TIP3   OH255803   1.577   2.000  13.718  0.0031  0.4348  0.5589
11463TIP3    H155804   1.508   2.001  13.784 -0.9104  1.0609 -0.3864
11463TIP3    H255805   1.619   1.915  13.727 -0.5183  0.2796  1.5289
11464TIP3   OH255806   2.305   6.619   0.703 -0.0967 -0.2358 -0.3571
11464TIP3    H155807   2.314   6.693   0.763 -2.2856 -1.1928  1.1983
11464TIP3    H255808   2.259   6.656   0.627 -1.8572 -0.1428  0.7284
11465TIP3   OH255809   0.018   4.583   4.074  0.1449 -0.1891 -0.2332
11465TIP3    H155810   0.011   4.676   4.051  1.3705  0.2788  1.2414
11465TIP3    H255811  -0.059   4.543   4.033 -0.2910  1.4366 -1.0530
11466TIP3   OH255812   6.777   3.444  14.589  0.4556 -1.0418 -0.4157
11466TIP3    H155813   6.834   3.385  14.638  0.9347 -0.3537 -0.1334
11466TIP3    H255814   6.710   3.471  14.651  1.8373  0.9045  0.3005
11467TIP3   OH255815   4.607   6.538  12.641 -0.1808 -0.0231 -0.2920
11467TIP3    H155816   4.572   6.565  12.557 -1.8495  0.1951  0.4508
11467TIP3    H255817   4.575   6.604  12.703 -2.3448 -2.3141  1.1578
11468TIP3   OH255818   1.630   4.698   2.658 -0.3315  0.7642  0.3615
11468TIP3    H155819   1.692   4.660   2.595 -1.6686 -0.4617 -0.2362
11468TIP3    H255820   1.640   4.644   2.737 -2.3654 -1.0273 -0.5493
11469TIP3   OH255821   0.241   1.033   2.291 -0.1189 -0.1233 -0.6966
11469TIP3    H155822   0.183   1.070   2.224  1.0368  2.3359 -0.4009
11469TIP3    H255823   0.313   1.096   2.298  2.5726 -3.0104 -0.9576
11470TIP3   OH255824   4.594   1.131  16.227  0.0542  0.6177  0.3286
11470TIP3    H155825   4.594   1.149  16.321  0.6169 -0.6854  0.5952
11470TIP3    H255826   4.686   1.118  16.205  0.0029  1.7563 -0.5737
11471TIP3   OH255827   3.396   6.108   5.154 -0.1365  0.4883  0.2147
11471TIP3    H155828   3.437   6.096   5.240 -0.2336 -0.7607  0.0980
11471TIP3    H255829   3.372   6.201   5.152  0.6005  0.7156  1.2062
11472TIP3   OH255830   2.290   0.360   5.329  0.3277  0.2872 -0.1136
11472TIP3    H155831   2.234   0.316   5.393  0.6746  0.2896  0.1895
11472TIP3    H255832   2.312   0.292   5.265 -0.6473  0.4659 -0.6620
11473TIP3   OH255833   6.207   2.183   0.350 -0.0588  0.4182 -0.0971
11473TIP3    H155834   6.272   2.171   0.420  1.5026 -1.3590 -1.7753
11473TIP3    H255835   6.205   2.278   0.336  2.2103  0.5042 -0.0220
11474TIP3   OH255836   1.885   4.593  16.223 -0.2203  0.2677 -0.2390
11474TIP3    H155837   1.816   4.529  16.241 -1.3596  1.6170  0.3571
11474TIP3    H255838   1.875   4.658  16.293  1.2088  0.8403 -0.5625
11475TIP3   OH255839   2.809   3.383   4.865 -0.5976 -0.1758 -0.4354
11475TIP3    H155840   2.723   3.402   4.828 -0.1814 -0.8325 -1.7736
11475TIP3    H255841   2.855   3.467   4.865 -1.4017  0.2760  0.7540
11476TIP3   OH255842   6.172   4.831  15.047 -0.1790 -0.3592 -0.1021
11476TIP3    H155843   6.125   4.901  15.002 -0.4663  0.2283  1.1134
11476TIP3    H255844   6.199   4.869  15.130 -0.9977 -1.9233  0.9021
11477TIP3   OH255845   4.752   0.124   2.045 -0.2970 -0.2781 -0.3247
11477TIP3    H155846   4.786   0.214   2.043 -2.7360  0.6891 -1.1143
11477TIP3    H255847   4.812   0.075   1.989  1.7373  0.5882  1.0330
11478TIP3   OH255848   5.639   0.156   5.709 -0.2529  0.3502 -0.3921
11478TIP3    H155849   5.636   0.128   5.617  0.9717 -0.5691 -0.1526
11478TIP3    H255850   5.596   0.086   5.757 -0.3786  0.5641 -0.1914
11479TIP3   OH255851   2.306   6.448  10.437  0.4521 -0.2849  0.1925
11479TIP3    H155852   2.369   6.439  10.366 -0.7342  0.7011 -1.0080
11479TIP3    H255853   2.254   6.368  10.434 -0.5977  0.4301 -1.0582
11480TIP3   OH255854   2.668   4.666   3.382 -0.1776  0.1096 -0.3191
11480TIP3    H155855   2.605   4.680   3.311 -0.1847  1.6476 -0.0444
11480TIP3    H255856   2.642   4.729   3.450  1.1098  0.1595  0.1573
11481TIP3   OH255857   0.500   1.016   5.222  0.6974  0.3157 -0.0480
11481TIP3    H155858   0.448   1.009   5.301  1.0860 -0.9796  0.1051
11481TIP3    H255859   0.449   1.073   5.164  0.8071  1.9730  1.4248
11482TIP3   OH255860   4.349   3.235  12.804  0.4329 -0.2373 -0.0357
11482TIP3    H155861   4.276   3.253  12.863  1.0326 -2.1120  1.3516
11482TIP3    H255862   4.309   3.191  12.729  0.1236 -1.2734  0.7265
11483TIP3   OH255863   2.095   0.309  16.015  0.1435 -0.3095  0.1962
11483TIP3    H155864   2.048   0.371  16.072  0.3750  0.3904 -0.3636
11483TIP3    H255865   2.089   0.225  16.061 -0.9870 -0.0693  0.5065
11484TIP3   OH255866   4.551   3.696   6.687 -0.7396  0.3017  0.6567
11484TIP3    H155867   4.559   3.618   6.742  0.9574 -0.1500 -0.2118
11484TIP3    H255868   4.586   3.767   6.741  1.5464 -0.2523 -0.0411
11485TIP3   OH255869   4.332   4.223   2.963  0.1820 -0.4008 -0.4767
11485TIP3    H155870   4.260   4.214   3.026 -1.0063  0.7989 -1.6125
11485TIP3    H255871   4.407   4.180   3.005 -0.7836 -0.2946  1.4080
11486TIP3   OH255872   0.066   4.240  10.926  0.8472  0.0690 -0.1114
11486TIP3    H155873   0.065   4.336  10.929 -0.0163  0.1359 -1.5384
11486TIP3    H255874   0.157   4.216  10.942  0.9879  1.1025  0.7301
11487TIP3   OH255875   1.139   3.212  10.660 -0.2303 -0.2208 -0.3513
11487TIP3    H155876   1.218   3.224  10.712 -1.0816 -1.3824  1.2867
11487TIP3    H255877   1.080   3.281  10.690  0.5409  1.3983 -2.4231
11488TIP3   OH255878   2.682   3.030  15.289  0.0095  0.8803 -0.4647
11488TIP3    H155879   2.778   3.029  15.285 -0.0436  0.6022 -1.8598
11488TIP3    H255880   2.656   3.085  15.215 -1.0153 -2.6339 -2.8535
11489TIP3   OH255881   2.317   6.081  11.494 -0.4325 -0.5588  0.0372
11489TIP3    H155882   2.297   6.174  11.496 -0.4398 -0.5619  0.1455
11489TIP3    H255883   2.409   6.075  11.519 -0.2856 -0.5406 -0.5106
11490TIP3   OH255884   3.001   1.803   1.273 -0.2428  0.7536  0.2231
11490TIP3    H155885   3.055   1.747   1.329 -0.7180 -0.7518 -0.7824
11490TIP3    H255886   3.061   1.834   1.206  0.0939  1.7253  0.9627
11491TIP3   OH255887   1.675   5.266   0.783  0.2210  0.4450  0.4750
11491TIP3    H155888   1.737   5.258   0.710  0.4861 -0.0271  0.7540
11491TIP3    H255889   1.659   5.176   0.812 -1.7344  0.4246 -0.5450
11492TIP3   OH255890   0.972   0.183  14.349  0.0326  0.4575 -0.0245
11492TIP3    H155891   1.012   0.146  14.427 -1.0979 -0.7184  0.0092
11492TIP3    H255892   0.933   0.108  14.303 -2.5017  1.5921  0.1642
11493TIP3   OH255893   0.495   6.183   2.879  0.0228  0.2257  0.0149
11493TIP3    H155894   0.407   6.204   2.849  0.5679  2.4868 -0.0883
11493TIP3    H255895   0.518   6.104   2.831 -0.6506  1.5423 -2.5704
11494TIP3   OH255896   1.350   3.476   0.063 -0.0775 -0.1284  0.5997
11494TIP3    H155897   1.312   3.410   0.006 -1.3861 -0.4084  1.7765
11494TIP3    H255898   1.302   3.556   0.042 -0.7939 -0.3050  1.5173
11495TIP3   OH255899   6.785   4.080  13.157 -0.1699 -0.1611  0.2031
11495TIP3    H155900   6.767   4.155  13.100  1.6372  0.0227 -0.1569
11495TIP3    H255901   6.811   4.120  13.241 -0.3032 -0.4080  0.3625
11496TIP3   OH255902   0.238   0.263  15.546 -0.6674 -0.1496  0.3160
11496TIP3    H155903   0.258   0.172  15.525  0.2865 -0.0464  0.7237
11496TIP3    H255904   0.144   0.264  15.561 -0.9946 -0.6781 -1.6118
11497TIP3   OH255905   0.732   5.062  12.984  0.8888  0.4154 -0.0917
11497TIP3    H155906   0.669   5.111  13.038  0.3834  1.1238 -1.3061
11497TIP3    H255907   0.682   5.037  12.906  2.0775  0.8997 -1.0260
11498TIP3   OH255908   0.362   4.718   2.246 -0.2325 -0.3718 -0.3571
11498TIP3    H155909   0.274   4.683   2.261 -0.1598 -0.7873 -0.9088
11498TIP3    H255910   0.371   4.723   2.151  0.6651 -1.1604 -0.3230
11499TIP3   OH255911   4.654   6.481   0.892  0.7414 -0.1676  0.3970
11499TIP3    H155912   4.608   6.409   0.849  0.8993  0.0341 -0.1153
11499TIP3    H255913   4.589   6.552   0.893  1.0997  0.1835 -0.5128
11500TIP3   OH255914   5.103   5.484  14.358  0.0477 -0.2064 -0.3259
11500TIP3    H155915   5.043   5.559  14.359 -0.0217 -0.2736  0.8220
11500TIP3    H255916   5.189   5.522  14.370  0.1666 -0.1780 -1.2441
11501TIP3   OH255917   5.635   1.586   2.299  0.0872 -0.3825  0.1698
11501TIP3    H155918   5.691   1.662   2.310 -1.7252  1.3985 -2.5181
11501TIP3    H255919   5.578   1.587   2.376  0.3647  0.7409  0.3688
11502TIP3   OH255920   4.417   5.813  13.064 -0.1549 -0.1601  0.3088
11502TIP3    H155921   4.484   5.756  13.104  0.6216  0.5219  0.0034
11502TIP3    H255922   4.417   5.892  13.118 -0.1730  0.1517 -0.1419
11503TIP3   OH255923   6.088   6.057  13.187 -0.1924 -0.3341  0.4758
11503TIP3    H155924   6.113   5.981  13.241 -1.1293 -0.8637  0.1736
11503TIP3    H255925   5.995   6.045  13.171 -0.1823  0.4901 -0.2210
11504TIP3   OH255926   2.106   4.047  14.640 -0.6039  0.2075 -0.6831
11504TIP3    H155927   2.172   4.069  14.705  0.1351  0.7850 -1.6076
11504TIP3    H255928   2.023   4.049  14.687 -0.1669  1.4085  0.0458
11505TIP3   OH255929   6.693   0.212  13.011  0.6461 -0.1118  0.3359
11505TIP3    H155930   6.653   0.297  13.027  0.9708  0.0922  0.0642
11505TIP3    H255931   6.622   0.149  13.026  0.2802  0.2337  0.0599
11506TIP3   OH255932   6.184   5.253   5.450 -0.3858  0.0912 -1.2512
11506TIP3    H155933   6.148   5.305   5.522 -0.9425 -1.8433 -0.0840
11506TIP3    H255934   6.260   5.303   5.420 -1.0441  1.6883 -0.3511
11507TIP3   OH255935   5.604   2.407  13.710  0.7918 -0.0441  0.1676
11507TIP3    H155936   5.687   2.448  13.736  1.2374 -0.8391  0.0378
11507TIP3    H255937   5.631   2.327  13.664 -0.0393  0.0428 -0.4801
11508TIP3   OH255938   5.987   4.019   0.925  0.1449 -0.1530  0.0375
11508TIP3    H155939   5.949   4.055   0.845  0.3833  1.0424  0.4492
11508TIP3    H255940   5.939   4.062   0.996  0.6483 -0.4002  0.5353
11509TIP3   OH255941   1.530   0.528   5.402  0.2985 -0.1733  0.2321
11509TIP3    H155942   1.555   0.437   5.415  0.4197  0.0039  1.3136
11509TIP3    H255943   1.548   0.570   5.486 -0.0291  0.7843 -0.1669
11510TIP3   OH255944   5.712   5.584   2.083 -0.2335 -0.2004  0.0437
11510TIP3    H155945   5.682   5.617   1.998  0.4217  0.1850 -0.0411
11510TIP3    H255946   5.731   5.664   2.134  0.2939 -0.4378  0.2205
11511TIP3   OH255947   1.273   6.466   2.754 -0.2088 -0.0124 -0.8136
11511TIP3    H155948   1.222   6.497   2.679  1.0429  1.9806 -0.8863
11511TIP3    H255949   1.364   6.478   2.727  0.2703 -0.9485  0.3537
11512TIP3   OH255950   4.227   0.181   1.472 -0.5732 -1.1748 -0.9456
11512TIP3    H155951   4.273   0.100   1.495  0.6151 -1.1287 -3.0356
11512TIP3    H255952   4.192   0.164   1.385  1.0499  1.1229 -2.0846
11513TIP3   OH255953   1.668   3.925  13.053 -0.1064  0.0385 -0.4310
11513TIP3    H155954   1.699   3.837  13.076  0.2747 -0.1168 -1.5090
11513TIP3    H255955   1.716   3.947  12.973 -2.6288 -0.1623 -2.0975
11514TIP3   OH255956   3.906   0.842  16.434  0.2134 -0.1913 -0.1056
11514TIP3    H155957   3.945   0.819  16.519 -0.4399 -0.7891  0.0406
11514TIP3    H255958   3.874   0.759  16.399 -0.2774  0.1803 -0.5503
11515TIP3   OH255959   6.473   1.714   2.192  0.2389 -0.0384  0.0299
11515TIP3    H155960   6.470   1.765   2.111 -1.4148 -0.2174 -0.0430
11515TIP3    H255961   6.419   1.637   2.174 -1.5594  0.7562  1.8653
11516TIP3   OH255962   1.206   0.984  16.294  1.0896 -0.5088 -0.3350
11516TIP3    H155963   1.234   1.005  16.205  1.2285 -0.5787 -0.3060
11516TIP3    H255964   1.142   1.052  16.315  1.1836 -0.3917 -0.4221
11517TIP3   OH255965   1.956   6.329  16.487 -0.2464 -0.3090  1.1487
11517TIP3    H155966   1.940   6.318  16.580 -1.4581  0.0224  0.9825
11517TIP3    H255967   1.883   6.381  16.455 -0.2483 -1.0616 -0.1240
11518TIP3   OH255968   2.604   5.016  11.923  0.2135  0.3541 -0.7554
11518TIP3    H155969   2.616   4.928  11.889  1.4989 -0.0135  0.6189
11518TIP3    H255970   2.692   5.052  11.929 -0.3159  1.8327 -1.5453
11519TIP3   OH255971   0.902   2.848  13.540  0.3542  0.0500  0.0392
11519TIP3    H155972   0.864   2.932  13.565 -0.5366 -1.0279  2.3932
11519TIP3    H255973   0.993   2.868  13.518  0.2376  1.5621  0.9272
11520TIP3   OH255974   5.016   4.645   2.237  0.0166  0.5134 -0.1239
11520TIP3    H155975   5.003   4.585   2.163 -1.5477  0.6876 -0.0066
11520TIP3    H255976   5.060   4.592   2.303  0.7620  0.1501 -0.8991
11521TIP3   OH255977   3.415   3.348  12.260  0.2033  0.5000  0.4958
11521TIP3    H155978   3.390   3.319  12.172  0.5843 -0.9354  0.8527
11521TIP3    H255979   3.511   3.353  12.256  0.2284  0.2650  0.8914
11522TIP3   OH255980   0.827   2.870   6.367 -0.3000 -0.3718 -0.3206
11522TIP3    H155981   0.873   2.800   6.412  0.4332 -0.1940 -0.7937
11522TIP3    H255982   0.873   2.950   6.392 -0.2595 -0.2079 -0.9098
11523TIP3   OH255983   5.705   2.617  15.896  0.3586  0.3453 -0.0500
11523TIP3    H155984   5.667   2.696  15.934 -1.5858 -0.6389  0.1404
11523TIP3    H255985   5.632   2.577  15.848  1.8213 -0.3334 -1.7577
11524TIP3   OH255986   4.138   6.241  12.418  0.4300 -0.0151 -0.1597
11524TIP3    H155987   4.094   6.171  12.466  0.6567  0.1773  0.3314
11524TIP3    H255988   4.120   6.320  12.470  1.7091 -0.0013  0.2777
11525TIP3   OH255989   3.365   2.216   3.984  0.7345 -0.2425 -0.2799
11525TIP3    H155990   3.280   2.243   4.018  0.3709 -0.9663 -0.5854
11525TIP3    H255991   3.400   2.156   4.051 -0.1113 -1.8986 -1.2710
11526TIP3   OH255992   2.236   3.341   4.800 -0.4422 -0.7791  0.5057
11526TIP3    H155993   2.158   3.306   4.844 -0.1230 -0.7733  1.0864
11526TIP3    H255994   2.218   3.434   4.790  0.0022 -0.5353  1.7807
11527TIP3   OH255995   4.566   6.201  10.332 -0.4554  0.2134  0.1941
11527TIP3    H155996   4.496   6.141  10.360  0.0847 -1.2620 -1.5352
11527TIP3    H255997   4.647   6.150  10.344  0.2366  1.4814  1.0270
11528TIP3   OH255998   6.089   4.585   3.812  0.0648 -0.2133  0.4701
11528TIP3    H155999   6.062   4.539   3.892  0.1735  0.7286  1.0538
11528TIP3    H256000   6.179   4.612   3.829 -0.6583  1.9817  0.9462
11529TIP3   OH256001   0.059   1.614  13.248  0.1404 -0.0232  0.7711
11529TIP3    H156002   0.095   1.663  13.321  0.3792 -0.4590  0.9427
11529TIP3    H256003   0.134   1.576  13.204  0.0005  0.2304  0.2958
11530TIP3   OH256004   6.675   2.981   1.401 -0.1235 -0.1541 -0.2569
11530TIP3    H156005   6.674   3.073   1.373 -0.1255 -0.1129 -0.1227
11530TIP3    H256006   6.698   2.985   1.493  0.5197 -0.3299 -0.4068
11531TIP3   OH256007   2.420   1.998  10.968 -0.0095  0.5249 -0.0029
11531TIP3    H156008   2.406   2.057  11.041 -2.3089  1.9961 -1.5617
11531TIP3    H256009   2.470   2.050  10.904 -0.9113  0.3892 -0.8382
11532TIP3   OH256010   1.890   0.834   1.034  0.1901  0.1958  0.3265
11532TIP3    H156011   1.894   0.757   1.091  0.9559 -0.2133 -0.2613
11532TIP3    H256012   1.958   0.893   1.068  0.7556 -0.1176 -0.2552
11533TIP3   OH256013   1.759   4.154  11.280 -0.2014 -0.1908  0.1103
11533TIP3    H156014   1.745   4.104  11.199 -1.4290 -0.3120  0.3887
11533TIP3    H256015   1.837   4.114  11.319  0.1572 -0.3991 -0.8163
11534TIP3   OH256016   3.043   5.842   0.707  0.3851  0.5617  0.4154
11534TIP3    H156017   2.997   5.783   0.767 -0.1428 -1.8331 -2.2354
11534TIP3    H256018   3.133   5.845   0.739  0.0910 -0.5836  1.3583
11535TIP3   OH256019   4.830   0.278   5.737  0.0276 -0.3422  0.2799
11535TIP3    H156020   4.835   0.295   5.831 -0.3298  0.0593  0.2297
11535TIP3    H256021   4.762   0.212   5.728 -0.7531  0.4630  0.2048
11536TIP3   OH256022   1.541   6.786   4.403  0.3855  0.3478 -0.0688
11536TIP3    H156023   1.471   6.771   4.466  0.6646 -0.0756  0.1425
11536TIP3    H256024   1.621   6.775   4.453  0.6297 -2.2100 -0.9861
11537TIP3   OH256025   0.019   2.997   2.032 -0.3305 -0.1555 -0.7041
11537TIP3    H156026  -0.005   3.085   2.003  0.0183  0.1490 -0.0841
11537TIP3    H256027   0.100   3.009   2.081 -1.3778 -0.5205  1.1873
11538TIP3   OH256028   4.640   2.218  12.659 -0.5982 -0.6303 -0.1325
11538TIP3    H156029   4.722   2.175  12.638  0.6157  1.3690  0.3705
11538TIP3    H256030   4.631   2.285  12.591 -1.3169 -0.1898  0.3896
11539TIP3   OH256031   1.731   2.664   1.018  0.1163 -0.7399 -0.0138
11539TIP3    H156032   1.649   2.625   1.048 -0.1390 -0.8686 -0.8680
11539TIP3    H256033   1.710   2.756   1.002  0.2467 -0.6779  0.1620
11540TIP3   OH256034   1.426   4.243   4.604  0.0900  0.2926  0.1149
11540TIP3    H156035   1.388   4.257   4.517  0.0075  0.3962  0.1690
11540TIP3    H256036   1.467   4.156   4.598 -0.0398  0.2392  0.0165
11541TIP3   OH256037   1.876   0.456  17.005 -0.1206 -0.3737  0.2289
11541TIP3    H156038   1.906   0.400  17.077  0.7326 -1.4508 -0.9481
11541TIP3    H256039   1.825   0.398  16.949  0.3478  0.1388 -0.7439
11542TIP3   OH256040   0.155   2.133   1.829  0.2563  0.6129  0.3135
11542TIP3    H156041   0.177   2.119   1.737 -0.9149  1.0763 -0.0565
11542TIP3    H256042   0.167   2.227   1.842 -0.6674  0.7424  0.3111
11543TIP3   OH256043   5.160   2.737  15.408 -0.3794  0.1699 -0.1677
11543TIP3    H156044   5.238   2.692  15.377  0.2504  1.0599  0.0973
11543TIP3    H256045   5.152   2.712  15.500  0.5202  1.3575  0.2365
11544TIP3   OH256046   4.874   5.590  15.726  0.2987  0.2829  0.3998
11544TIP3    H156047   4.825   5.519  15.683  0.6084  0.2163  0.1482
11544TIP3    H256048   4.886   5.561  15.816 -0.7200  0.6077  0.6371
11545TIP3   OH256049   4.934   0.208   6.418 -0.1011  0.3261 -0.1394
11545TIP3    H156050   4.890   0.244   6.495 -0.6850 -1.0249  0.1794
11545TIP3    H256051   4.872   0.145   6.382 -0.1971  1.5851 -2.2462
11546TIP3   OH256052   4.080   2.292   2.380 -0.2934  0.2933 -0.0247
11546TIP3    H156053   4.049   2.344   2.454  0.9137  0.2468  0.5238
11546TIP3    H256054   4.049   2.339   2.303  0.0767  1.3854  0.4790
11547TIP3   OH256055   4.669   2.125   6.178 -0.2652  0.3419  0.4371
11547TIP3    H156056   4.668   2.043   6.229 -1.1611  0.8861  1.3144
11547TIP3    H256057   4.760   2.156   6.185 -0.3030  0.2485  1.4525
11548TIP3   OH256058   3.834   4.105  16.667  0.0490 -0.2545 -0.4268
11548TIP3    H156059   3.866   4.113  16.577 -0.2679  1.1908 -0.4185
11548TIP3    H256060   3.788   4.021  16.668 -0.9873  0.2832 -1.9328
11549TIP3   OH256061   3.129   3.171  10.974 -0.0768  0.3730  0.0639
11549TIP3    H156062   3.194   3.101  10.980  0.0471  0.5749  1.2264
11549TIP3    H256063   3.149   3.216  10.893 -1.0008 -1.7905 -1.4169
11550TIP3   OH256064   5.220   2.446  15.122  0.0092  0.1539 -0.3623
11550TIP3    H156065   5.213   2.394  15.042  0.1856  0.9026 -0.8606
11550TIP3    H256066   5.132   2.479  15.138 -0.7875 -2.6992  1.5837
11551TIP3   OH256067   5.729   5.444  14.356 -0.2601 -0.8852  0.3164
11551TIP3    H156068   5.755   5.364  14.401  0.2424 -0.8711  0.0565
11551TIP3    H256069   5.808   5.497  14.354 -0.1536 -1.0639 -0.9548
11552TIP3   OH256070   2.751   3.681  16.940  0.8141 -0.6497 -0.4861
11552TIP3    H156071   2.796   3.701  16.858  1.4473  0.1194  0.0404
11552TIP3    H256072   2.664   3.651  16.913  1.0515 -0.4972 -1.4427
11553TIP3   OH256073   4.098   2.042  16.733 -0.1824  0.1119  0.1869
11553TIP3    H156074   4.190   2.066  16.723  0.4737 -1.2000  2.7172
11553TIP3    H256075   4.061   2.052  16.645  2.0745  1.7812 -0.6274
11554TIP3   OH256076   3.428   6.216  13.775  0.0053  0.5467  0.6308
11554TIP3    H156077   3.512   6.260  13.765  1.3594 -1.6340  2.0174
11554TIP3    H256078   3.378   6.242  13.698  2.0062  1.7480 -0.3040
11555TIP3   OH256079   5.465   2.912   4.250 -0.4159 -0.0540 -0.2784
11555TIP3    H156080   5.522   2.844   4.285 -0.6248  1.3834  3.0250
11555TIP3    H256081   5.377   2.875   4.257 -0.3437 -0.2715 -0.5122
11556TIP3   OH256082   2.206   3.562  13.821 -0.4685 -0.9300  0.1628
11556TIP3    H156083   2.270   3.618  13.864 -0.0090 -1.6455  0.4326
11556TIP3    H256084   2.173   3.613  13.748  1.9531 -1.3193 -1.2569
11557TIP3   OH256085   1.965   2.676   2.224 -0.0922 -0.4855 -0.3838
11557TIP3    H156086   1.960   2.586   2.258  1.9710 -0.5529 -0.1604
11557TIP3    H256087   1.921   2.673   2.140  0.3432 -1.8303 -0.5747
11558TIP3   OH256088   5.071   3.137  15.220  0.2856  0.2353  0.2461
11558TIP3    H156089   5.130   3.085  15.164  1.1519  0.4331  0.9698
11558TIP3    H256090   5.058   3.082  15.297  1.1471  1.0674  0.9839
11559TIP3   OH256091   4.378   5.541  15.516 -0.4053 -0.3727 -0.4071
11559TIP3    H156092   4.300   5.572  15.469 -1.9010  1.1853  2.8761
11559TIP3    H256093   4.421   5.622  15.546  2.0563 -1.2427 -1.4533
11560TIP3   OH256094   0.228   0.743  16.009 -0.3003  0.2497  0.5477
11560TIP3    H156095   0.241   0.734  15.915 -0.1249  2.8432  0.2764
11560TIP3    H256096   0.185   0.828  16.019 -1.5608 -0.5919  2.7193
11561TIP3   OH256097   4.873   3.474  17.120  0.3035 -0.1348 -0.6388
11561TIP3    H156098   4.880   3.417  17.197 -0.6374  0.6433  0.0305
11561TIP3    H256099   4.864   3.414  17.046 -1.5114 -0.8607  0.1404
11562TIP3   OH256100   6.249   1.044  16.913  0.0745 -0.0352  0.2849
11562TIP3    H156101   6.155   1.060  16.906  0.0431  0.6627  2.1737
11562TIP3    H256102   6.256   0.948  16.917 -0.4567 -0.1395 -0.9623
11563TIP3   OH256103   4.854   4.693   5.831  0.9875 -0.2451  0.8489
11563TIP3    H156104   4.814   4.702   5.744 -0.4275  0.4396  1.5484
11563TIP3    H256105   4.923   4.760   5.832  1.7023 -0.9638 -0.1209
11564TIP3   OH256106   5.155   2.583  14.461 -0.0121  0.0612  0.0430
11564TIP3    H156107   5.219   2.518  14.491  0.4249  1.5657  2.5345
11564TIP3    H256108   5.078   2.569  14.517 -0.1508  1.2386  0.1676
11565TIP3   OH256109   0.772   2.623  13.640  0.4608  0.5334 -0.0776
11565TIP3    H156110   0.702   2.639  13.576 -0.2525  1.0189  0.8066
11565TIP3    H256111   0.827   2.701  13.635  0.5372  0.4670 -0.2691
11566TIP3   OH256112   3.216   6.563  13.922 -0.2209  0.2366  0.0879
11566TIP3    H156113   3.209   6.612  14.004 -0.7296  0.8214 -0.3121
11566TIP3    H256114   3.190   6.474  13.946  0.8526  0.1075  0.8451
11567TIP3   OH256115   0.940   0.275  12.671  0.2238 -0.2455  0.3485
11567TIP3    H156116   0.874   0.232  12.725  1.1265  0.3970  2.0289
11567TIP3    H256117   1.010   0.210  12.661 -0.7707 -1.0491 -1.7199
11568TIP3   OH256118   4.064   4.775   2.678 -0.4742 -0.1210  0.0256
11568TIP3    H156119   4.148   4.757   2.635  0.3623 -2.4129  2.4316
11568TIP3    H256120   4.029   4.688   2.698 -2.8551  0.8390  0.1343
11569TIP3   OH256121   5.858   6.312  12.109  0.4228 -0.1572 -0.1669
11569TIP3    H156122   5.889   6.402  12.113  0.9195 -0.3276 -0.0937
11569TIP3    H256123   5.798   6.310  12.035 -1.8802  0.9138  1.6256
11570TIP3   OH256124   5.933   2.798  15.231 -0.3128 -0.2155  0.0288
11570TIP3    H156125   5.975   2.871  15.277  0.3809  0.5166 -1.7146
11570TIP3    H256126   5.965   2.720  15.276 -0.9440  0.5293  1.8195
11571TIP3   OH256127   6.474   6.303  12.914  0.6077 -0.3118  0.3805
11571TIP3    H156128   6.422   6.303  12.994  0.8522 -1.7281  0.5411
11571TIP3    H256129   6.559   6.338  12.940  0.3501  0.2200  0.5127
11572TIP3   OH256130   3.095   5.019  13.046  0.2573  0.2339  0.2243
11572TIP3    H156131   3.122   5.040  12.957  2.2159  1.5971  1.1001
11572TIP3    H256132   3.172   4.979  13.086  0.5557  2.7748  2.3208
11573TIP3   OH256133   5.462   0.308  11.602  0.1506  0.0642 -0.1586
11573TIP3    H156134   5.466   0.274  11.691 -0.4311 -0.4652 -0.3323
11573TIP3    H256135   5.526   0.256  11.553 -0.3950 -0.4584 -0.3177
11574TIP3   OH256136   5.264   5.174   5.489  0.1686 -0.3888  0.2050
11574TIP3    H156137   5.200   5.121   5.538 -0.7107  1.0004  0.5939
11574TIP3    H256138   5.217   5.255   5.470  1.3295  0.0351 -0.8519
11575TIP3   OH256139   2.347   4.234   2.773 -0.1157 -0.0176  0.3089
11575TIP3    H156140   2.358   4.216   2.679 -1.0861 -0.1936  0.2250
11575TIP3    H256141   2.368   4.151   2.816 -0.6867 -0.2315  0.1779
11576TIP3   OH256142   6.522   5.620   3.237 -0.2171  0.3144 -0.0241
11576TIP3    H156143   6.513   5.525   3.240  0.9964  0.2363  1.6338
11576TIP3    H256144   6.454   5.653   3.295  1.1495  0.3176  1.6099
11577TIP3   OH256145   5.516   6.431   4.159 -0.2459 -0.7460  0.1596
11577TIP3    H156146   5.475   6.412   4.244  0.7571 -1.0589  0.5784
11577TIP3    H256147   5.450   6.404   4.095 -1.1147 -0.2776  0.8330
11578TIP3   OH256148   2.983   4.281   2.488 -0.1097 -0.7878  0.3911
11578TIP3    H156149   2.931   4.201   2.500 -1.0817 -0.0003  1.4294
11578TIP3    H256150   3.063   4.265   2.539 -0.0640 -1.3003  0.1681
11579TIP3   OH256151   4.416   5.302  13.555 -0.2263  0.5547 -0.1686
11579TIP3    H156152   4.417   5.275  13.464 -0.4256  0.9291 -0.2818
11579TIP3    H256153   4.347   5.368  13.561 -0.2411  0.5076  0.2582
11580TIP3   OH256154   0.088   6.700  15.307  0.4906 -0.0935 -0.0574
11580TIP3    H156155   0.084   6.605  15.320  1.2553  0.0713  1.5224
11580TIP3    H256156   0.181   6.721  15.314  0.1708  0.9827  1.3888
11581TIP3   OH256157   0.256   1.727   0.632  0.2049 -0.1086 -0.2544
11581TIP3    H156158   0.275   1.776   0.712 -1.3830 -2.8465  1.8763
11581TIP3    H256159   0.341   1.719   0.588  1.0553  1.6084  1.0356
11582TIP3   OH256160   4.460   5.899   5.838 -0.3517 -0.6780 -0.1847
11582TIP3    H156161   4.461   5.807   5.865  1.6710 -0.1052  1.8075
11582TIP3    H256162   4.432   5.946   5.916  0.8901  0.6113 -0.5129
11583TIP3   OH256163   5.584   5.567   4.707  0.2981  0.8193  0.4238
11583TIP3    H156164   5.518   5.535   4.769  0.2397  0.4863  0.1874
11583TIP3    H256165   5.665   5.524   4.734  0.1701  0.2673 -0.0468
11584TIP3   OH256166   3.435   5.791   1.557 -0.3990  0.2860  0.0815
11584TIP3    H156167   3.379   5.865   1.532 -2.0094 -0.9426  0.0125
11584TIP3    H256168   3.374   5.718   1.569  0.9123 -0.4828  2.3559
11585TIP3   OH256169   4.419   5.439  15.203  0.0957 -0.7533  0.2776
11585TIP3    H156170   4.337   5.485  15.187 -0.0794 -0.7924  1.0366
11585TIP3    H256171   4.480   5.507  15.228  0.5088 -0.6267 -1.0261
11586TIP3   OH256172   2.546   4.645  12.082 -0.0741 -0.1889  0.0044
11586TIP3    H156173   2.541   4.717  12.145 -0.8455 -0.7989  0.6596
11586TIP3    H256174   2.607   4.675  12.015 -1.8521  1.8749 -0.7469
11587TIP3   OH256175   4.078   2.068   0.990  0.5412  0.0372 -0.1851
11587TIP3    H156176   4.065   2.067   1.085 -2.0664 -0.9085 -0.4858
11587TIP3    H256177   4.059   2.158   0.964  2.6362  0.6416  0.3306
11588TIP3   OH256178   1.146   4.203  11.248  0.2203 -0.7418  0.5703
11588TIP3    H156179   1.158   4.188  11.155 -0.2506 -1.8384  0.6865
11588TIP3    H256180   1.197   4.133  11.291 -0.1810 -0.6989  1.1277
11589TIP3   OH256181   2.278   5.680  15.447 -0.2217 -0.0483  0.2651
11589TIP3    H156182   2.266   5.616  15.518 -1.3437 -0.2347 -0.0754
11589TIP3    H256183   2.362   5.657  15.408  0.9860  0.8342  2.3201
11590TIP3   OH256184   5.419   5.338  11.740 -0.7021 -0.2354  0.5836
11590TIP3    H156185   5.415   5.329  11.645 -0.2886  2.2357  0.2877
11590TIP3    H256186   5.341   5.388  11.764 -0.6247 -0.5294  1.4961
11591TIP3   OH256187   0.761   5.256   0.637 -0.1666 -0.3820 -0.0355
11591TIP3    H156188   0.814   5.191   0.683 -0.5838  0.5349  1.8148
11591TIP3    H256189   0.825   5.311   0.590  0.2939 -1.1138 -0.2676
11592TIP3   OH256190   5.257   2.618  16.374  0.3022 -0.4696 -0.8109
11592TIP3    H156191   5.205   2.543  16.402  3.6196 -3.1022 -1.3074
11592TIP3    H256192   5.276   2.665  16.456  0.2721 -1.6003 -0.1329
11593TIP3   OH256193   3.056   2.243  16.216 -0.1999 -0.1366 -0.6775
11593TIP3    H156194   2.981   2.184  16.224 -0.5666  0.5566  1.3641
11593TIP3    H256195   3.109   2.206  16.145 -1.8609 -1.2925 -1.3423
11594TIP3   OH256196   1.782   1.251   5.353  0.3196  0.4728  0.1610
11594TIP3    H156197   1.740   1.206   5.426  3.9566 -0.9550  1.5008
11594TIP3    H256198   1.843   1.313   5.394  2.1351 -0.0681 -1.6212
11595TIP3   OH256199   6.524   2.739  13.968 -0.1516 -0.3782 -0.6222
11595TIP3    H156200   6.525   2.800  14.041 -1.2242 -2.2947  1.0319
11595TIP3    H256201   6.458   2.674  13.990 -0.6878 -0.8800 -3.4218
11596TIP3   OH256202   2.336   4.892   3.851 -0.2082 -0.2432  0.1876
11596TIP3    H156203   2.410   4.838   3.879  0.7311  1.0400  0.2389
11596TIP3    H256204   2.327   4.874   3.758  0.2078 -0.3563  0.1698
11597TIP3   OH256205   3.289   6.225  15.364 -0.0157  0.2431 -0.4750
11597TIP3    H156206   3.320   6.273  15.441 -0.3344  1.3021 -0.9973
11597TIP3    H256207   3.265   6.293  15.302  1.1896 -0.5969 -1.9079
11598TIP3   OH256208   0.943   3.133  11.719  0.2522 -0.2533 -0.0791
11598TIP3    H156209   0.887   3.161  11.791  1.7142  2.3473  0.0906
11598TIP3    H256210   1.007   3.074  11.758 -1.1736 -1.7817  0.0424
11599TIP3   OH256211   1.447   3.423  16.669  0.3812 -0.4020  0.0766
11599TIP3    H156212   1.527   3.474  16.659  0.2810 -0.4296 -0.9158
11599TIP3    H256213   1.377   3.484  16.645  0.0554 -0.2147  1.4538
11600TIP3   OH256214   3.068   4.651  16.576  0.0203 -0.2954  0.1383
11600TIP3    H156215   3.128   4.624  16.645  0.2330 -0.2381 -0.0227
11600TIP3    H256216   2.987   4.675  16.622  0.0973 -0.4406  0.3487
11601TIP3   OH256217   4.422   2.379  17.028  0.0021  0.0576  0.9387
11601TIP3    H156218   4.480   2.393  17.102  2.2520 -1.2196 -0.5304
11601TIP3    H256219   4.356   2.317  17.060  1.2517 -0.8781  1.7286
11602TIP3   OH256220   2.831   1.420  14.663  0.1158  0.3758 -0.3461
11602TIP3    H156221   2.897   1.490  14.664  1.2743 -0.6858  0.6006
11602TIP3    H256222   2.818   1.398  14.755 -2.8073  1.6593 -0.3998
11603TIP3   OH256223   0.203   0.597   4.258 -0.4105 -0.0662  0.6183
11603TIP3    H156224   0.297   0.613   4.267 -0.3906  0.2236 -0.0441
11603TIP3    H256225   0.161   0.666   4.309 -0.2980  1.2088 -0.9880
11604TIP3   OH256226   2.614   0.859  13.377  0.3541  0.6807 -0.3090
11604TIP3    H156227   2.667   0.889  13.303  1.2605  0.8936  0.4148
11604TIP3    H256228   2.549   0.928  13.389  0.5099  0.8807 -0.5999
11605TIP3   OH256229   6.239   3.799   2.310  0.4437  0.2697 -0.1066
11605TIP3    H156230   6.287   3.724   2.346 -0.3313 -0.3378 -0.3239
11605TIP3    H256231   6.157   3.802   2.361  0.9703  1.6920  0.7020
11606TIP3   OH256232   1.672   2.696  17.177 -0.3641  0.6328 -0.3653
11606TIP3    H156233   1.701   2.678  17.088 -2.1465 -2.0384 -0.4990
11606TIP3    H256234   1.752   2.698  17.229  0.4744 -1.3678 -1.5047
11607TIP3   OH256235   3.149   3.449  11.051  0.3310 -0.4538  0.0264
11607TIP3    H156236   3.101   3.526  11.021  2.5659  0.5302 -1.1457
11607TIP3    H256237   3.124   3.379  10.990 -0.3431 -0.2139  0.0236
11608TIP3   OH256238   2.879   6.725  16.965 -0.6530  0.0591  0.0057
11608TIP3    H156239   2.897   6.638  16.931  0.6436 -0.1647  1.1952
11608TIP3    H256240   2.822   6.765  16.900 -0.4892 -1.3304 -1.0236
11609TIP3   OH256241   1.508   0.281   5.144 -0.6946  0.4886 -0.5388
11609TIP3    H156242   1.417   0.297   5.169 -1.9191 -1.9438 -3.2128
11609TIP3    H256243   1.520   0.331   5.063  1.0651  2.5697  0.9376
11610TIP3   OH256244   0.605   5.519   4.833 -0.0553  0.2249  0.2346
11610TIP3    H156245   0.640   5.503   4.745 -1.1479 -0.1239 -0.1463
11610TIP3    H256246   0.528   5.575   4.817 -0.5497 -0.2621  0.9306
11611TIP3   OH256247   6.507   5.399   0.791  0.2577 -0.7392  0.0374
11611TIP3    H156248   6.498   5.482   0.743  1.0912  0.3289  1.6975
11611TIP3    H256249   6.529   5.335   0.723 -4.4695 -0.4998 -1.9257
11612TIP3   OH256250   6.186   6.692   3.831  0.5288  0.0013  0.3099
11612TIP3    H156251   6.265   6.640   3.848  1.2135  1.3436  1.3243
11612TIP3    H256252   6.215   6.761   3.772 -0.0309  0.1266  0.1852
11613TIP3   OH256253   3.077   1.547   3.062  0.2723  0.0190 -0.3150
11613TIP3    H156254   2.997   1.591   3.090  0.6401 -0.3426  1.3336
11613TIP3    H256255   3.123   1.612   3.008 -0.3459  0.7890  0.0920
11614TIP3   OH256256   6.118   3.757  16.549  0.0232 -0.4503  0.0068
11614TIP3    H156257   6.061   3.827  16.581  1.0304 -0.1808  1.2603
11614TIP3    H256258   6.169   3.799  16.479  0.2975 -0.0578  0.4371
11615TIP3   OH256259   1.889   2.551   2.781  0.3556 -0.2348  0.5183
11615TIP3    H156260   1.793   2.547   2.777  0.3716 -0.3585  0.2180
11615TIP3    H256261   1.908   2.591   2.866  0.0603 -1.1155  1.0032
11616TIP3   OH256262   0.569   2.142   3.366 -0.0741  0.3766 -0.5871
11616TIP3    H156263   0.599   2.181   3.284  0.6361  1.2996  0.0986
11616TIP3    H256264   0.519   2.212   3.408  1.4620  0.6711  0.8010
11617TIP3   OH256265   3.270   1.035  14.875 -0.2303 -0.5988  0.3836
11617TIP3    H156266   3.226   1.118  14.890 -0.6534 -0.2271 -2.6353
11617TIP3    H256267   3.203   0.969  14.894 -0.7527 -0.1646  0.0704
11618TIP3   OH256268   1.638   2.442  12.376  0.0963 -0.5135  0.2398
11618TIP3    H156269   1.676   2.513  12.324  1.2005 -0.1284  1.5551
11618TIP3    H256270   1.560   2.416  12.327 -0.0323  1.2442 -0.5410
11619TIP3   OH256271   4.048   1.869  11.964 -0.2296 -0.2730 -0.4005
11619TIP3    H156272   4.085   1.792  11.919  0.1006 -0.9353  0.9940
11619TIP3    H256273   4.076   1.859  12.055 -2.3279  0.1848  0.3143
11620TIP3   OH256274   3.042   2.012   4.761  0.5764 -0.2642 -0.4845
11620TIP3    H156275   3.057   1.981   4.672  0.1688 -0.0331 -0.6320
11620TIP3    H256276   3.119   2.065   4.782  1.0522 -0.9778 -0.4047
11621TIP3   OH256277   1.994   2.388   5.602 -0.0418  0.0357  0.2854
11621TIP3    H156278   1.953   2.417   5.521  0.7463  0.3398 -0.0144
11621TIP3    H256279   1.952   2.305   5.622  0.8602 -0.8125 -1.2792
11622TIP3   OH256280   1.334   6.169   1.453 -0.2529 -0.1709 -0.0895
11622TIP3    H156281   1.338   6.262   1.473 -0.3470 -0.0105 -0.8113
11622TIP3    H256282   1.417   6.134   1.486 -0.2666  0.1464  0.2830
11623TIP3   OH256283   2.555   2.909   1.783  0.0730  0.2477 -0.4053
11623TIP3    H156284   2.552   3.003   1.766  1.9399  0.8291  2.1316
11623TIP3    H256285   2.635   2.880   1.740 -0.0684 -0.0191 -0.4876
11624TIP3   OH256286   0.919   4.368  16.105 -0.4706  0.6631  0.0827
11624TIP3    H156287   0.939   4.275  16.089 -0.2401  0.3749  1.9026
11624TIP3    H256288   1.004   4.407  16.126 -0.4910  1.4032 -1.2087
11625TIP3   OH256289   1.268   2.963   4.363  0.8894 -0.3574  0.1208
11625TIP3    H156290   1.286   3.020   4.438  0.3792  0.1748 -0.1568
11625TIP3    H256291   1.175   2.941   4.371  0.7652 -0.0752 -0.5049
11626TIP3   OH256292   1.633   4.107  11.502 -0.5097 -0.4844  0.0360
11626TIP3    H156293   1.696   4.051  11.548 -1.5790 -0.5936  1.3874
11626TIP3    H256294   1.674   4.124  11.417  1.7395  0.1372  1.1971
11627TIP3   OH256295   1.376   5.250   5.638 -0.0219  0.2741  0.4414
11627TIP3    H156296   1.297   5.290   5.604  0.0892  0.2027  0.0980
11627TIP3    H256297   1.355   5.228   5.729  0.2403  2.0228  0.9559
11628TIP3   OH256298   0.095   3.860  14.096 -0.0060 -0.1234  0.3735
11628TIP3    H156299   0.060   3.948  14.086 -0.5689 -0.3715  0.1107
11628TIP3    H256300   0.022   3.809  14.131 -0.2781 -0.9142 -1.2889
11629TIP3   OH256301   0.951   6.089   4.349 -0.0198  0.2585 -0.0495
11629TIP3    H156302   0.908   6.040   4.420  1.0082 -1.4194 -0.5598
11629TIP3    H256303   0.979   6.171   4.391 -1.9320  0.5149  0.7728
11630TIP3   OH256304   4.801   5.029  11.630  0.1967  0.8651  0.7052
11630TIP3    H156305   4.782   5.120  11.652 -0.1886  0.9019  0.2210
11630TIP3    H256306   4.756   4.978  11.698  1.6663  1.0677  1.8691
11631TIP3   OH256307   0.310   5.126   5.517 -0.2201  0.8574 -0.2088
11631TIP3    H156308   0.342   5.093   5.433  0.5071  1.9218 -0.3604
11631TIP3    H256309   0.220   5.152   5.499  0.1338  1.6910 -0.8384
11632TIP3   OH256310   4.860   4.772   2.014 -0.1942  0.1570 -0.1883
11632TIP3    H156311   4.773   4.799   1.983 -0.8766 -0.0254  1.5068
11632TIP3    H256312   4.844   4.691   2.061  1.1657 -0.7701 -1.3006
11633TIP3   OH256313   6.784   6.724   2.318 -0.0553 -0.0367  0.6200
11633TIP3    H156314   6.866   6.709   2.271 -0.0987  0.6654  0.3168
11633TIP3    H256315   6.786   6.816   2.341 -1.9350  0.6352 -1.6947
11634TIP3   OH256316   1.591   5.039  12.652  0.1528 -0.2631 -0.1098
11634TIP3    H156317   1.538   5.092  12.592  1.9573  1.1280 -0.5261
11634TIP3    H256318   1.599   4.954  12.609 -1.1963 -0.2710 -0.3466
11635TIP3   OH256319   4.706   2.299  17.038  0.0326 -0.5314  0.0731
11635TIP3    H156320   4.702   2.360  16.964  0.7785  0.4658  0.8381
11635TIP3    H256321   4.657   2.222  17.009  0.1812 -0.0824 -1.3954
11636TIP3   OH256322   6.147   3.324   1.451 -0.3786 -0.2151 -0.2951
11636TIP3    H156323   6.085   3.392   1.479 -0.9218 -1.0439  0.5206
11636TIP3    H256324   6.099   3.242   1.460  1.1291 -0.9516  1.2216
11637TIP3   OH256325   2.684   5.793   2.899 -0.0258 -0.1856  0.6891
11637TIP3    H156326   2.740   5.722   2.931  0.4029  0.3967  1.2247
11637TIP3    H256327   2.667   5.848   2.976  0.8522  1.1099 -0.0349
11638TIP3   OH256328   0.791   3.226  13.440 -0.2289 -0.0040  0.1162
11638TIP3    H156329   0.769   3.225  13.533  1.7140 -1.4153  0.6170
11638TIP3    H256330   0.780   3.317  13.413 -2.2920  0.1362  1.3353
11639TIP3   OH256331   4.789   0.214  10.840  0.4536 -0.4133 -0.4664
11639TIP3    H156332   4.755   0.166  10.764 -1.1669 -0.7348  0.4327
11639TIP3    H256333   4.817   0.298  10.805 -0.4849 -0.4736 -1.4032
11640TIP3   OH256334   0.283   2.978  17.056 -0.3797  0.1162  0.1918
11640TIP3    H156335   0.273   2.900  17.109  1.6846 -0.9586 -0.9218
11640TIP3    H256336   0.362   3.021  17.091  0.4032 -0.0619 -1.2940
11641TIP3   OH256337   4.726   3.361   0.508 -1.0523  0.0147 -0.1395
11641TIP3    H156338   4.793   3.342   0.443 -0.9670  0.1801 -0.0988
11641TIP3    H256339   4.644   3.334   0.466 -0.7998 -1.6703  0.4118
11642TIP3   OH256340   6.531   0.246   1.562  0.0831 -0.5835  0.2576
11642TIP3    H156341   6.524   0.332   1.521 -0.6468 -1.0089 -0.5209
11642TIP3    H256342   6.509   0.261   1.654  0.6482  0.1823  0.2726
11643TIP3   OH256343   1.480   6.623  15.919 -0.4355  0.1258 -0.3381
11643TIP3    H156344   1.535   6.612  15.996 -0.5002 -1.0194 -0.4483
11643TIP3    H256345   1.541   6.627  15.845 -0.5010 -1.5511 -0.5031
11644TIP3   OH256346   5.731   3.694   5.374 -0.2654 -0.7020  0.5418
11644TIP3    H156347   5.677   3.654   5.442 -1.4112  1.1360  0.7631
11644TIP3    H256348   5.811   3.722   5.419 -0.8019  0.0434  1.0547
11645TIP3   OH256349   3.649   0.605  12.358  0.2073 -0.5566  0.2945
11645TIP3    H156350   3.611   0.662  12.424 -0.8225 -0.4226 -0.4212
11645TIP3    H256351   3.717   0.557  12.406 -0.3522 -0.2790  1.3948
11646TIP3   OH256352   4.741   1.939  11.419  0.0036  0.3235  0.2808
11646TIP3    H156353   4.717   2.018  11.467 -0.2801  0.1317  0.4517
11646TIP3    H256354   4.683   1.939  11.343 -0.0292  0.2505  0.3064
11647TIP3   OH256355   1.903   1.517  14.687  0.5331  0.0341 -0.5709
11647TIP3    H156356   1.845   1.560  14.750  0.1179 -1.8088  0.3340
11647TIP3    H256357   1.947   1.589  14.642 -0.5334  1.4104  0.5403
11648TIP3   OH256358   5.963   1.228   0.994 -0.5967  0.1756 -1.3305
11648TIP3    H156359   6.017   1.224   1.073  0.5499 -1.2311 -2.1549
11648TIP3    H256360   6.006   1.294   0.939 -1.7834  1.6527 -0.5283
11649TIP3   OH256361   3.401   1.029  13.846  0.0162 -0.5780 -0.5312
11649TIP3    H156362   3.375   1.119  13.866  1.3602 -0.0619 -1.0605
11649TIP3    H256363   3.335   0.975  13.890  0.6225  0.6055  1.9240
11650TIP3   OH256364   3.930   5.808  16.805 -0.0131  0.7288  0.2139
11650TIP3    H156365   3.878   5.732  16.778 -0.4383  0.5013  1.6369
11650TIP3    H256366   3.955   5.850  16.723 -0.5480 -0.4334 -0.5589
11651TIP3   OH256367   1.780   1.711   1.325  0.2244 -0.8774  0.3915
11651TIP3    H156368   1.801   1.621   1.299 -0.6277 -1.2589  1.0239
11651TIP3    H256369   1.685   1.711   1.337 -0.0412  0.5911 -1.4650
11652TIP3   OH256370   4.853   2.314   5.618 -0.0794 -0.7034 -0.0775
11652TIP3    H156371   4.761   2.292   5.625 -0.4124  0.4716 -0.5378
11652TIP3    H256372   4.895   2.235   5.584 -0.9851 -1.0946 -0.2880
11653TIP3   OH256373   6.109   4.749   5.553 -0.5225  0.3204 -0.3179
11653TIP3    H156374   6.162   4.735   5.632 -0.2785  0.2844 -0.4905
11653TIP3    H256375   6.152   4.821   5.508  0.0593 -0.4764 -1.0532
11654TIP3   OH256376   5.932   4.077   2.207  0.2669 -0.2623  0.5342
11654TIP3    H156377   5.851   4.026   2.213 -2.0413  3.0572 -0.6205
11654TIP3    H256378   5.974   4.047   2.127 -1.3199 -0.0081 -0.4082
11655TIP3   OH256379   4.642   2.123   2.360  0.4346  0.2988  0.1374
11655TIP3    H156380   4.591   2.043   2.343 -0.5517  0.9868 -0.1832
11655TIP3    H256381   4.732   2.093   2.365 -0.1216 -1.1451  2.0095
11656TIP3   OH256382   2.293   5.486  14.218 -0.5732  0.2126 -0.3591
11656TIP3    H156383   2.216   5.542  14.207 -0.4719  0.2032 -1.1939
11656TIP3    H256384   2.277   5.413  14.158  0.3028  0.4424 -0.8839
11657TIP3   OH256385   1.954   6.700   5.112 -0.2852 -0.6414 -0.1231
11657TIP3    H156386   1.928   6.658   5.030 -0.5079 -0.7873  0.0234
11657TIP3    H256387   1.945   6.632   5.179 -2.7472  0.2436  0.4830
11658TIP3   OH256388   4.978   5.015   4.591  0.3119  0.4699  0.1709
11658TIP3    H156389   4.929   4.957   4.532  0.9089 -0.5179  0.6467
11658TIP3    H256390   5.012   5.084   4.533 -0.9464  0.7231 -0.2954
11659TIP3   OH256391   3.045   4.703  11.585  0.2051 -0.1725 -0.0088
11659TIP3    H156392   3.020   4.764  11.516 -1.4105  0.2745  0.9309
11659TIP3    H256393   2.970   4.645  11.593 -1.1221  1.8525  3.6133
11660TIP3   OH256394   5.642   5.740  14.185 -0.0701  0.5646 -0.4522
11660TIP3    H156395   5.662   5.680  14.256  1.6800  2.4117  0.6536
11660TIP3    H256396   5.653   5.687  14.105  2.8136 -0.2582  0.4213
11661TIP3   OH256397   2.011   2.373   1.891  0.0040  0.2466 -0.3100
11661TIP3    H156398   2.104   2.390   1.878 -0.0550  0.5037 -0.3997
11661TIP3    H256399   2.004   2.348   1.983  0.7491 -3.7680 -1.2435
11662TIP3   OH256400   1.249   2.239  14.499  0.4560  0.4698  0.0765
11662TIP3    H156401   1.268   2.199  14.414  1.3540 -2.6689  1.6479
11662TIP3    H256402   1.177   2.299  14.482  0.7734  0.0867 -2.9259
11663TIP3   OH256403   6.640   0.053   6.229  0.7890 -0.4341  0.8493
11663TIP3    H156404   6.643   0.052   6.324  1.8610 -2.3187  0.8120
11663TIP3    H256405   6.721   0.010   6.201  0.9234  0.8974 -0.9345
11664TIP3   OH256406   6.746   0.005   0.008 -0.0227 -0.7523 -0.2934
11664TIP3    H156407   6.742   0.002  -0.088 -0.4380  0.7794 -0.3335
11664TIP3    H256408   6.675   0.064   0.033  0.9917 -0.0167  0.8760
11665TIP3   OH256409   2.375   2.626   2.177 -0.2921 -0.2225 -0.3973
11665TIP3    H156410   2.303   2.678   2.142 -1.3883 -1.1442  0.4323
11665TIP3    H256411   2.332   2.562   2.235  1.4186  1.1839  2.5578
11666TIP3   OH256412   2.867   0.796   1.687  0.8610  0.2638  0.3756
11666TIP3    H156413   2.932   0.732   1.717 -0.9527 -1.4685  0.7398
11666TIP3    H256414   2.870   0.789   1.591 -0.1982 -1.3464  0.4248
11667TIP3   OH256415   5.209   4.948   2.358 -0.9479 -0.0074  0.1255
11667TIP3    H156416   5.288   4.956   2.304 -1.2311  1.0342 -0.1416
11667TIP3    H256417   5.240   4.955   2.448 -0.4874 -1.6256  0.1022
11668TIP3   OH256418   4.168   1.838  16.152 -0.0606  0.4205  0.0423
11668TIP3    H156419   4.138   1.917  16.197  1.0404  1.7467 -1.4910
11668TIP3    H256420   4.262   1.850  16.141  0.0314 -0.8220 -0.7469
11669TIP3   OH256421   1.817   1.377  11.405 -0.0675  0.1571 -0.4729
11669TIP3    H156422   1.762   1.441  11.360  0.2404 -0.4816 -1.8016
11669TIP3    H256423   1.761   1.300  11.413  0.1164  0.0269 -0.4381
11670TIP3   OH256424   2.283   2.673   3.658 -0.6729 -0.7808  0.3320
11670TIP3    H156425   2.273   2.704   3.568 -0.5806 -0.6805  0.3569
11670TIP3    H256426   2.377   2.657   3.668 -0.9039 -2.5580 -0.1769
11671TIP3   OH256427   5.851   2.963  15.010  0.3867 -0.0126 -0.5194
11671TIP3    H156428   5.877   2.893  15.070 -0.1742 -0.5217 -0.8689
11671TIP3    H256429   5.756   2.953  15.002  0.1038  1.6250  0.4989
11672TIP3   OH256430   3.158   4.666   1.858  0.0577 -0.0119  0.1937
11672TIP3    H156431   3.101   4.631   1.926 -1.6443 -0.4128 -1.3876
11672TIP3    H256432   3.112   4.743   1.825  0.9856  0.3374 -0.3073
11673TIP3   OH256433   4.858   0.864   0.005  0.0029 -0.3865 -0.0984
11673TIP3    H156434   4.768   0.891   0.021 -0.1237  0.7212 -2.4862
11673TIP3    H256435   4.866   0.861  -0.090  2.0782 -1.9109  0.0941
11674TIP3   OH256436   6.041   3.776  11.024 -0.1530  0.3763 -0.0145
11674TIP3    H156437   5.948   3.754  11.020 -0.0924  0.0713  0.2240
11674TIP3    H256438   6.079   3.731  10.948  0.0100 -0.5600  0.6092
11675TIP3   OH256439   2.274   2.292   4.318  0.0430  0.2504  0.1518
11675TIP3    H156440   2.227   2.370   4.287 -2.5827 -1.8291 -1.2685
11675TIP3    H256441   2.296   2.244   4.238 -1.0826 -1.9664  1.1253
11676TIP3   OH256442   1.565   6.763  14.421 -0.1951  0.0985 -0.2177
11676TIP3    H156443   1.553   6.747  14.328 -1.8105  0.4185 -0.0804
11676TIP3    H256444   1.570   6.675  14.459  1.7652 -0.0387 -0.7364
11677TIP3   OH256445   4.105   3.751  13.013  0.5786 -0.1301  0.4396
11677TIP3    H156446   4.044   3.678  13.002 -0.1766  0.0574  2.9605
11677TIP3    H256447   4.187   3.710  13.038 -0.0064 -0.1363  2.4597
11678TIP3   OH256448   2.313   6.369   4.787 -0.3843 -0.1713  0.1719
11678TIP3    H156449   2.401   6.399   4.812 -0.0567 -1.2438  0.3534
11678TIP3    H256450   2.328   6.317   4.708 -0.8138 -0.6021  0.3718
11679TIP3   OH256451   0.998   0.212  17.112  0.2788  0.4209  0.0606
11679TIP3    H156452   1.011   0.230  17.205 -2.0073  1.3348  0.2376
11679TIP3    H256453   0.904   0.202  17.102  0.3378  1.8311 -2.4096
11680TIP3   OH256454   6.389   5.691  14.140 -0.3756  0.3602 -0.0822
11680TIP3    H156455   6.393   5.707  14.234  0.8112 -1.2469  0.1617
11680TIP3    H256456   6.424   5.770  14.100  1.1952  0.1948  0.9196
11681TIP3   OH256457   4.478   2.792  16.613 -0.2312  0.0789 -0.3497
11681TIP3    H156458   4.391   2.753  16.616 -0.6938  1.1786  1.3288
11681TIP3    H256459   4.464   2.885  16.630  1.2345  0.3328 -0.4088
11682TIP3   OH256460   4.981   4.030   4.707 -0.7342  0.1548  0.0580
11682TIP3    H156461   5.000   4.034   4.614  0.3873 -1.7343  0.1738
11682TIP3    H256462   5.026   4.106   4.744 -1.5670  1.1672 -1.0002
11683TIP3   OH256463   2.326   2.237   5.792  0.6256 -0.0480 -0.6387
11683TIP3    H156464   2.399   2.261   5.849 -0.2848  0.1489  0.4546
11683TIP3    H256465   2.248   2.268   5.838 -0.2506 -1.3761 -1.2070
11684TIP3   OH256466   2.239   1.202  16.545 -0.3317 -0.4968 -0.0680
11684TIP3    H156467   2.190   1.147  16.484 -0.9699 -1.9248  1.6847
11684TIP3    H256468   2.317   1.151  16.565  1.1405  1.0848 -1.6176
11685TIP3   OH256469   1.947   2.456  13.920 -0.2649  0.1480  0.3118
11685TIP3    H156470   2.009   2.522  13.889  1.3138 -1.1774  0.5736
11685TIP3    H256471   2.001   2.392  13.965 -1.8678 -0.9487  0.7079
11686TIP3   OH256472   4.753   1.471   1.411  0.5367 -0.5873 -0.1731
11686TIP3    H156473   4.834   1.430   1.441  1.4614  1.1525 -0.2458
11686TIP3    H256474   4.761   1.474   1.316 -0.2487 -1.6731 -0.2879
11687TIP3   OH256475   0.852   0.116   6.014  0.3066 -0.3236 -0.4221
11687TIP3    H156476   0.899   0.043   6.053 -0.2170 -1.7039 -2.2785
11687TIP3    H256477   0.914   0.154   5.951  0.0846 -0.0825 -0.5001
11688TIP3   OH256478   4.223   3.943   5.697 -0.3314  0.4260 -0.3452
11688TIP3    H156479   4.169   3.881   5.746 -0.9023  1.7444  0.7199
11688TIP3    H256480   4.249   4.009   5.762  0.3520  1.2529 -1.4372
11689TIP3   OH256481   0.522   5.231   1.808 -0.5813  0.0416  0.1060
11689TIP3    H156482   0.506   5.163   1.874 -2.5561 -0.1485 -0.5171
11689TIP3    H256483   0.438   5.276   1.801  0.4476  1.9579 -0.1730
11690TIP3   OH256484   0.661   2.562   5.129  0.0631 -0.2484 -0.2301
11690TIP3    H156485   0.730   2.626   5.115  0.6664 -0.5928  1.1271
11690TIP3    H256486   0.697   2.480   5.095 -0.4201 -0.0494 -1.2636
11691TIP3   OH256487   2.369   0.127  16.663 -0.5208  0.0664 -0.3357
11691TIP3    H156488   2.337   0.194  16.722  1.4645 -0.3432  1.2611
11691TIP3    H256489   2.463   0.120  16.682 -0.3475 -1.9426 -1.6601
11692TIP3   OH256490   6.454   3.917   4.424  0.1799  0.4171 -0.2909
11692TIP3    H156491   6.361   3.943   4.426  0.4772  1.4646  0.3579
11692TIP3    H256492   6.471   3.897   4.332 -0.4392  1.1926 -0.5917
11693TIP3   OH256493   5.424   6.572   5.380  0.3786  0.0887 -0.1946
11693TIP3    H156494   5.464   6.495   5.420 -0.2125 -0.1884 -0.1425
11693TIP3    H256495   5.344   6.587   5.430  0.2176  0.4165 -0.5480
11694TIP3   OH256496   5.725   1.088   4.270 -0.1762  0.3315 -0.0306
11694TIP3    H156497   5.783   1.070   4.344  0.8904  0.5128 -0.7913
11694TIP3    H256498   5.696   1.001   4.241 -0.2027  0.2322  0.2902
11695TIP3   OH256499   0.395   4.205   0.962 -0.0392  0.1270 -0.7318
11695TIP3    H156500   0.379   4.115   0.991  2.5769 -0.0424  0.3292
11695TIP3    H256501   0.383   4.258   1.041  1.4263  0.3456 -0.6482
11696TIP3   OH256502   0.850   3.732   5.224 -0.0160 -0.2340 -0.1458
11696TIP3    H156503   0.823   3.786   5.298 -0.8868 -0.0986 -0.5552
11696TIP3    H256504   0.896   3.658   5.264 -0.5593 -0.2081  0.5344
11697TIP3   OH256505   2.507   0.339   5.474 -0.4691  0.1941 -0.6300
11697TIP3    H156506   2.462   0.255   5.469 -1.7276  0.6561  1.8928
11697TIP3    H256507   2.441   0.403   5.450 -0.5267  0.6939  0.7821
11698TIP3   OH256508   5.187   2.640  11.273 -0.4730 -0.3187  0.1699
11698TIP3    H156509   5.166   2.592  11.193 -1.4151  0.3717 -0.0046
11698TIP3    H256510   5.168   2.578  11.344 -1.8792 -0.1446 -0.0431
11699TIP3   OH256511   5.181   3.354   5.724 -0.0736 -0.3256 -0.1859
11699TIP3    H156512   5.106   3.347   5.665 -1.1583 -1.4036  1.3156
11699TIP3    H256513   5.163   3.292   5.794  1.9756 -0.2186  0.4671
11700TIP3   OH256514   0.000   2.754  12.718 -0.2644  0.1910  0.0179
11700TIP3    H156515  -0.064   2.685  12.736  0.3141 -0.0615  1.1342
11700TIP3    H256516   0.067   2.743  12.785  0.2776  1.2973 -0.3275
11701TIP3   OH256517   3.682   1.448  11.214  0.4344 -0.0464  0.3739
11701TIP3    H156518   3.655   1.536  11.241  0.7736 -0.0579  0.7476
11701TIP3    H256519   3.613   1.419  11.153  0.7555  0.8006 -0.3936
11702TIP3   OH256520   1.934   6.635  13.462  0.5976  0.1038  0.0684
11702TIP3    H156521   1.934   6.702  13.531 -0.6519 -0.7608  0.9337
11702TIP3    H256522   1.961   6.682  13.383 -2.5709  2.2455  0.1186
11703TIP3   OH256523   1.760   2.669  11.632 -0.5315  0.8411  0.1044
11703TIP3    H156524   1.698   2.661  11.560  0.6884  1.6410 -1.0428
11703TIP3    H256525   1.714   2.632  11.707 -1.2239 -1.4888 -1.4242
11704TIP3   OH256526   1.644   4.625  16.652  0.4155  0.1523  0.0900
11704TIP3    H156527   1.636   4.714  16.685 -1.6416 -0.0309  0.1257
11704TIP3    H256528   1.600   4.627  16.567 -1.7687 -1.3723  1.1412
11705TIP3   OH256529   6.398   4.201   4.650 -0.0075 -0.6996 -0.2165
11705TIP3    H156530   6.358   4.254   4.719 -0.3334  0.1619 -1.0737
11705TIP3    H256531   6.430   4.264   4.586  3.5578 -1.2670  0.8543
11706TIP3   OH256532   0.824   5.976  11.117  0.2170  0.0561 -0.2554
11706TIP3    H156533   0.889   6.001  11.051 -0.1437  0.1451 -0.5811
11706TIP3    H256534   0.835   5.882  11.127  0.4276  0.0788 -0.2797
11707TIP3   OH256535   0.009   2.162   1.304  0.6307 -0.2279 -0.0458
11707TIP3    H156536   0.064   2.233   1.270  1.1576 -0.8373 -0.4862
11707TIP3    H256537  -0.080   2.196   1.298  0.8846  0.4234 -0.1981
11708TIP3   OH256538   3.537   0.474   6.188  0.3007  1.0532 -0.2032
11708TIP3    H156539   3.585   0.449   6.268  0.8803 -0.3686 -0.9692
11708TIP3    H256540   3.455   0.425   6.193  0.7706  0.1574 -0.9486
11709TIP3   OH256541   3.441   5.857  13.237 -0.2553 -0.4079 -0.5228
11709TIP3    H156542   3.427   5.763  13.222  1.2116 -0.3414 -2.5222
11709TIP3    H256543   3.457   5.893  13.150 -1.1005  1.7640  0.1979
11710TIP3   OH256544   4.677   4.899   1.641  0.5234 -0.0885  0.4901
11710TIP3    H156545   4.705   4.819   1.596  0.9329  0.5794 -0.4567
11710TIP3    H256546   4.749   4.960   1.630 -0.0488  0.6299  0.6538
11711TIP3   OH256547   2.443   3.835   4.608  0.3162  0.4027 -0.2195
11711TIP3    H156548   2.482   3.758   4.567 -0.4451  0.7019 -1.5085
11711TIP3    H256549   2.501   3.854   4.682 -1.0185 -3.1061  1.8871
11712TIP3   OH256550   3.845   3.753  12.335  0.1257 -0.4851  0.6369
11712TIP3    H156551   3.799   3.803  12.268 -0.2632 -2.5931 -0.7216
11712TIP3    H256552   3.860   3.815  12.406 -0.5103  1.4777 -0.9132
11713TIP3   OH256553   1.721   3.631  12.949  0.0459  0.0142  0.1060
11713TIP3    H156554   1.788   3.671  12.894 -1.4390  0.4518 -1.3938
11713TIP3    H256555   1.689   3.557  12.898 -0.4285 -0.3642  0.9366
11714TIP3   OH256556   2.255   4.876  15.780 -0.2741 -0.0908  0.1464
11714TIP3    H156557   2.287   4.966  15.780  0.4104 -0.3259  0.8762
11714TIP3    H256558   2.244   4.854  15.873  1.2932 -1.3554  0.0615
11715TIP3   OH256559   3.649   1.027   1.815 -0.4222 -0.2862 -0.0457
11715TIP3    H156560   3.741   1.024   1.840 -0.3706  0.0151 -0.1918
11715TIP3    H256561   3.649   1.015   1.720 -0.6087 -1.3075  0.0746
11716TIP3   OH256562   5.187   4.029  14.482 -0.5003 -0.5658 -0.5052
11716TIP3    H156563   5.117   3.968  14.504 -0.2925 -1.0318 -1.1101
11716TIP3    H256564   5.258   4.006  14.542 -0.4388 -0.8852 -0.7009
11717TIP3   OH256565   1.007   1.772  12.208 -0.3424 -0.5996 -0.1239
11717TIP3    H156566   0.917   1.739  12.200 -0.1214 -0.7359 -2.4036
11717TIP3    H256567   0.998   1.854  12.256 -1.8885  0.1813 -1.6776
11718TIP3   OH256568   4.497   2.359  13.893  0.3244 -0.1565 -0.0267
11718TIP3    H156569   4.443   2.285  13.868  2.0368 -0.8910 -1.7236
11718TIP3    H256570   4.487   2.422  13.822  0.6431  0.2597  0.2906
11719TIP3   OH256571   5.000   3.661   1.262  0.1713  0.6146  0.4666
11719TIP3    H156572   4.997   3.651   1.357 -0.1756  1.8236  0.6052
11719TIP3    H256573   4.911   3.690   1.239 -0.1847 -1.1068 -0.4185
11720TIP3   OH256574   5.747   0.096   1.836 -0.2893 -0.0494 -0.3621
11720TIP3    H156575   5.734   0.084   1.742 -0.5658 -1.6612 -0.1254
11720TIP3    H256576   5.769   0.009   1.869 -0.3855  0.4647  1.0997
11721TIP3   OH256577   4.959   0.952  10.841  0.0986 -0.2983 -0.2532
11721TIP3    H156578   4.955   0.857  10.835  0.7890 -0.5259  2.5100
11721TIP3    H256579   5.052   0.973  10.839  0.0799  0.0975  1.7590
11722TIP3   OH256580   5.850   0.603   1.088 -0.3136  0.1520  0.5922
11722TIP3    H156581   5.841   0.526   1.031  1.7104 -0.3516  0.9113
11722TIP3    H256582   5.882   0.568   1.171  0.8982  1.3645  0.6507
11723TIP3   OH256583   5.008   2.328   0.997 -0.1268 -0.2434  0.5584
11723TIP3    H156584   5.099   2.337   0.969 -0.1276 -1.7046  0.0421
11723TIP3    H256585   4.990   2.407   1.048  0.6205  1.3355 -1.5803
11724TIP3   OH256586   1.654   4.963   0.779  0.0870 -0.3762 -0.3697
11724TIP3    H156587   1.566   4.926   0.786 -0.4498  0.9038 -0.1750
11724TIP3    H256588   1.675   4.958   0.686  0.0227 -1.1702 -0.3440
11725TIP3   OH256589   0.423   5.475  15.304  0.2811 -0.3411 -0.2659
11725TIP3    H156590   0.476   5.549  15.273 -0.7315  0.1937 -0.7310
11725TIP3    H256591   0.432   5.409  15.235  0.0770 -0.1272 -0.4960
11726TIP3   OH256592   5.134   3.335  10.556 -0.1461 -0.1800  0.1018
11726TIP3    H156593   5.139   3.377  10.642 -2.8367  1.1272 -0.3314
11726TIP3    H256594   5.104   3.404  10.497  0.2424 -1.4466 -1.6239
11727TIP3   OH256595   4.456   6.135   3.126  0.3476 -0.2675 -0.0494
11727TIP3    H156596   4.440   6.201   3.194 -0.0578  1.5454 -1.8712
11727TIP3    H256597   4.479   6.056   3.175  0.0682  1.0008  2.2022
11728TIP3   OH256598   2.110   1.222   0.034  0.6102 -0.3536  0.0559
11728TIP3    H156599   2.122   1.290   0.100  1.3938  0.1688 -0.6116
11728TIP3    H256600   2.159   1.147   0.068  0.9352 -0.1141  0.1256
11729TIP3   OH256601   1.901   0.797   0.455 -0.3274  0.6251 -0.0798
11729TIP3    H156602   1.813   0.814   0.421 -0.4354  1.3550  0.5465
11729TIP3    H256603   1.959   0.841   0.393 -0.4370  0.5393 -0.2415
11730TIP3   OH256604   0.691   1.392  10.998  0.5785  0.1367 -0.0961
11730TIP3    H156605   0.701   1.323  10.933 -0.1660  0.9551 -1.0951
11730TIP3    H256606   0.614   1.442  10.969  1.2171  1.5049  0.4935
11731TIP3   OH256607   4.105   6.594   1.214 -0.0166 -0.4612  0.0563
11731TIP3    H156608   4.047   6.571   1.142 -1.5880  2.9970  0.1134
11731TIP3    H256609   4.070   6.547   1.290 -1.0267 -0.6236 -0.5135
11732TIP3   OH256610   0.495   3.833   3.552  0.1069  0.6838 -0.2409
11732TIP3    H156611   0.491   3.906   3.614 -1.6680 -0.1603  0.6624
11732TIP3    H256612   0.486   3.755   3.606 -1.0811 -0.0793 -1.5061
11733TIP3   OH256613   6.086   5.740   5.570  0.3146  0.0852 -0.0144
11733TIP3    H156614   6.071   5.834   5.571  1.7136  0.3302 -0.7041
11733TIP3    H256615   6.147   5.726   5.497 -0.0286 -1.3696 -0.0396
11734TIP3   OH256616   0.812   2.574  13.933  0.0618  0.1317 -0.0218
11734TIP3    H156617   0.838   2.482  13.933 -1.2371 -0.2477 -0.3750
11734TIP3    H256618   0.787   2.593  13.843  1.1016  1.0649 -0.1244
11735TIP3   OH256619   5.263   5.622  17.073 -0.3000 -0.4776 -0.4122
11735TIP3    H156620   5.319   5.642  16.998  1.3957 -0.9454  0.6965
11735TIP3    H256621   5.302   5.671  17.145 -0.8553 -1.4506  0.5595
11736TIP3   OH256622   4.578   0.569  14.648  0.2156  0.1095  0.3372
11736TIP3    H156623   4.500   0.603  14.692  0.1306  0.0488  0.2351
11736TIP3    H256624   4.587   0.622  14.569 -0.0869 -0.2965  0.0301
11737TIP3   OH256625   6.668   6.035   0.052 -0.1691 -0.0131  0.1170
11737TIP3    H156626   6.764   6.041   0.050 -0.2418  1.0808 -0.4925
11737TIP3    H256627   6.644   6.064   0.140 -0.1051  2.7468 -0.7185
11738TIP3   OH256628   3.669   4.448  14.841 -0.2192  0.5706 -0.1197
11738TIP3    H156629   3.579   4.444  14.871  0.4955 -1.0148  1.9480
11738TIP3    H256630   3.670   4.397  14.760 -0.7444 -1.3915  1.0851
11739TIP3   OH256631   6.272   2.732   2.005  0.1225  0.4181 -0.0763
11739TIP3    H156632   6.230   2.673   2.068 -1.3108  0.2526 -1.1616
11739TIP3    H256633   6.273   2.817   2.048 -1.1920  0.3858  0.0306
11740TIP3   OH256634   0.227   0.291   5.391 -0.2087 -0.3765  0.2420
11740TIP3    H156635   0.194   0.308   5.479  1.7711 -1.0054  1.1510
11740TIP3    H256636   0.156   0.245   5.346 -1.5874  0.7844  1.2040
11741TIP3   OH256637   1.669   3.784  12.505  0.4886 -0.3764  0.6534
11741TIP3    H156638   1.628   3.753  12.586 -0.3757  2.1197  1.2320
11741TIP3    H256639   1.702   3.871  12.527  0.4714  0.2280 -1.6146
11742TIP3   OH256640   5.316   1.063   2.945  0.1511  0.0443 -0.5339
11742TIP3    H156641   5.255   1.132   2.971 -0.2188 -0.9004  1.1614
11742TIP3    H256642   5.362   1.040   3.025 -0.7315 -2.6728 -0.7532
11743TIP3   OH256643   3.769   0.720   3.620  0.2431 -0.5798  0.1626
11743TIP3    H156644   3.680   0.688   3.604 -0.2260 -0.2180  1.9837
11743TIP3    H256645   3.795   0.760   3.536 -1.1828 -0.9747 -0.4790
11744TIP3   OH256646   2.782   4.281  11.992  0.1102  0.1760 -0.0423
11744TIP3    H156647   2.741   4.196  12.005 -0.5322  0.6918  1.3722
11744TIP3    H256648   2.721   4.328  11.935  0.4507 -0.2807 -0.8000
11745TIP3   OH256649   0.877   2.155  10.529 -0.4236  0.3301 -0.8672
11745TIP3    H156650   0.838   2.072  10.557  0.8534  0.0902  0.2215
11745TIP3    H256651   0.891   2.144  10.435 -0.2540 -0.6944 -0.7267
11746TIP3   OH256652   2.298   2.557  11.306  0.1464  0.0485  0.4394
11746TIP3    H156653   2.251   2.489  11.353  1.8060 -3.2503 -2.4593
11746TIP3    H256654   2.233   2.597  11.249 -0.7394  0.6499  1.8462
11747TIP3   OH256655   3.205   4.285   4.571 -0.2800  0.0559 -0.5107
11747TIP3    H156656   3.118   4.312   4.598 -0.6016  0.8902 -2.2796
11747TIP3    H256657   3.209   4.191   4.592 -1.1401  0.2802  0.6855
11748TIP3   OH256658   0.195   5.440  14.781 -0.9668 -0.3500 -0.0760
11748TIP3    H156659   0.221   5.454  14.690 -3.5113  0.9635 -0.6319
11748TIP3    H256660   0.166   5.349  14.784 -0.3288 -0.5690 -0.4208
11749TIP3   OH256661   6.163   5.441   0.017  0.4078 -0.3559  0.1212
11749TIP3    H156662   6.125   5.493  -0.054 -1.8736 -1.3635  0.5633
11749TIP3    H256663   6.125   5.479   0.097  0.0577 -1.6143  0.5569
11750TIP3   OH256664   2.361   1.214   0.690 -0.3406 -0.0674 -0.1476
11750TIP3    H156665   2.405   1.132   0.713 -0.8345  0.0899  1.3940
11750TIP3    H256666   2.269   1.189   0.682 -0.3254  0.1051 -0.8574
11751TIP3   OH256667   3.288   2.312   6.154 -0.4572 -0.1406 -0.4591
11751TIP3    H156668   3.241   2.368   6.217  0.2861  0.6030 -0.5554
11751TIP3    H256669   3.375   2.351   6.147 -0.5161 -0.2294 -1.9333
11752TIP3   OH256670   5.960   4.882  13.051  0.0682 -0.1078 -0.5843
11752TIP3    H156671   6.027   4.909  13.114 -0.4313  0.7718 -0.4277
11752TIP3    H256672   5.882   4.867  13.105 -0.5201  1.2139 -1.0730
11753TIP3   OH256673   2.960   4.423   5.087 -0.0435  0.1211 -0.4847
11753TIP3    H156674   3.043   4.419   5.134  0.4428 -1.2467 -1.4236
11753TIP3    H256675   2.952   4.515   5.060  1.8369  0.0062 -1.5504
11754TIP3   OH256676   3.943   3.056   3.653 -0.3881 -0.2098  0.3103
11754TIP3    H156677   3.896   3.003   3.589 -0.6172 -1.1408  1.2322
11754TIP3    H256678   3.967   3.136   3.606 -0.3759 -0.9670 -0.9810
11755TIP3   OH256679   2.897   5.189   3.874 -0.3733 -0.6869  0.1922
11755TIP3    H156680   2.952   5.129   3.924 -0.1954 -1.0176 -0.3880
11755TIP3    H256681   2.816   5.140   3.859 -1.5624  0.4734  2.6216
11756TIP3   OH256682   3.224   6.705  17.143  0.2424 -0.4402 -0.0795
11756TIP3    H156683   3.276   6.785  17.148  0.6146 -0.7246  0.8369
11756TIP3    H256684   3.145   6.724  17.195 -0.4090 -0.1300 -1.1747
11757TIP3   OH256685   1.676   2.295   4.467  0.5427 -0.4452  0.6049
11757TIP3    H156686   1.688   2.217   4.521  1.9563 -0.3625  0.4208
11757TIP3    H256687   1.760   2.307   4.423 -0.1545  0.3037 -0.5396
11758TIP3   OH256688   2.361   3.417  13.062 -0.4218  0.6690  0.1450
11758TIP3    H156689   2.444   3.464  13.066 -0.1685  0.1586  0.9129
11758TIP3    H256690   2.375   3.338  13.115 -0.3232 -1.0932 -2.4296
11759TIP3   OH256691   5.683   2.654  15.101 -0.2560  0.1939  0.0315
11759TIP3    H156692   5.668   2.598  15.177 -1.9186  1.9903  1.0900
11759TIP3    H256693   5.774   2.682  15.109 -0.0079 -0.7644  0.5915
11760TIP3   OH256694   4.694   4.860  11.791  0.3441 -0.2103  0.3657
11760TIP3    H156695   4.661   4.806  11.863  1.0683  0.7442  1.4416
11760TIP3    H256696   4.696   4.801  11.716 -1.0094 -1.0663  0.9727
11761TIP3   OH256697   6.402   3.902  15.352 -0.2712 -0.0561  0.1293
11761TIP3    H156698   6.402   3.817  15.396 -0.0969 -1.6474 -2.8202
11761TIP3    H256699   6.486   3.940  15.375 -0.2173 -0.8070  1.2327
11762TIP3   OH256700   3.698   1.434  12.221 -0.4242  0.1972 -0.3220
11762TIP3    H156701   3.723   1.381  12.145 -0.7333 -0.6987  0.1864
11762TIP3    H256702   3.773   1.427  12.280 -0.1257  1.0087 -0.5967
11763TIP3   OH256703   3.435   3.835  11.878  0.3001  0.0658  0.1715
11763TIP3    H156704   3.448   3.906  11.940 -0.2851 -0.1467  0.5455
11763TIP3    H256705   3.508   3.776  11.894 -0.1604 -0.2744  1.0683
11764TIP3   OH256706   5.256   3.748  15.742  0.6412  0.5668  0.2842
11764TIP3    H156707   5.175   3.703  15.764 -0.3873  1.6786 -1.1041
11764TIP3    H256708   5.247   3.834  15.782  2.3916 -0.2509  2.5331
11765TIP3   OH256709   1.980   5.506   3.822  0.0617 -0.1089 -0.8544
11765TIP3    H156710   1.988   5.446   3.897 -1.3318 -0.2844 -0.8340
11765TIP3    H256711   1.958   5.590   3.861 -2.2190 -0.5388 -1.1333
11766TIP3   OH256712   3.660   2.442   1.097  0.4797  0.2626  0.4002
11766TIP3    H156713   3.673   2.412   1.187  1.7530  0.1834  0.2041
11766TIP3    H256714   3.601   2.517   1.105  0.6573  0.3172  1.3037
11767TIP3   OH256715   1.701   3.021   4.461  0.0255  0.0193  0.2982
11767TIP3    H156716   1.749   2.996   4.382 -0.0123  2.1586 -0.4438
11767TIP3    H256717   1.609   3.009   4.437  0.0783 -1.2003  0.6910
11768TIP3   OH256718   6.476   3.963  13.036 -0.5784  0.0481 -0.4257
11768TIP3    H156719   6.486   4.055  13.059 -0.3492 -0.0687 -0.0459
11768TIP3    H256720   6.555   3.941  12.987 -0.6620  0.0687 -0.5710
11769TIP3   OH256721   6.118   4.360   4.313 -1.1591 -0.3039 -0.3663
11769TIP3    H156722   6.142   4.281   4.362 -1.4247 -0.7049 -0.8767
11769TIP3    H256723   6.122   4.430   4.378 -0.2290 -0.6226 -0.0635
11770TIP3   OH256724   2.378   3.187   5.102 -0.3450  0.7904  0.3273
11770TIP3    H156725   2.294   3.214   5.140  0.8371  1.0947  2.8390
11770TIP3    H256726   2.435   3.173   5.178  1.4971 -0.6972 -1.2928
11771TIP3   OH256727   1.358   4.250  12.156  0.1134  0.5542  0.3206
11771TIP3    H156728   1.279   4.208  12.120 -0.0978 -0.6301  2.0664
11771TIP3    H256729   1.362   4.218  12.246  1.0510  2.8200  1.1178
11772TIP3   OH256730   4.851   2.640  14.966 -0.3064  0.2264  0.2943
11772TIP3    H156731   4.911   2.611  14.897  0.9042  0.6682  1.1343
11772TIP3    H256732   4.904   2.639  15.045 -1.3872  0.7639  1.0344
11773TIP3   OH256733   3.767   5.532  14.609  0.1853  0.1949 -0.0006
11773TIP3    H156734   3.710   5.505  14.537 -0.9550  1.9993  0.2004
11773TIP3    H256735   3.834   5.585  14.567  0.0078  0.5423  0.1554
11774TIP3   OH256736   6.387   4.008   2.274  0.5762  0.0235  0.3824
11774TIP3    H156737   6.365   3.984   2.184  0.7060 -1.0863  0.6421
11774TIP3    H256738   6.360   3.932   2.326  1.6924  0.1345  1.1279
11775TIP3   OH256739   4.259   3.119   4.368 -0.2702  0.2589  0.1043
11775TIP3    H156740   4.177   3.071   4.363 -0.2752  0.2357  0.3934
11775TIP3    H256741   4.292   3.120   4.278 -1.1570  1.2782 -0.2154
11776TIP3   OH256742   3.568   4.555  11.468 -0.1645 -0.3424 -0.0661
11776TIP3    H156743   3.516   4.476  11.481 -0.1870 -0.5776 -1.5289
11776TIP3    H256744   3.586   4.557  11.374  1.9844  0.0429  0.3242
11777TIP3   OH256745   0.602   4.846   2.310  0.3544 -0.1145 -0.3490
11777TIP3    H156746   0.523   4.802   2.279  0.4824  0.7856 -2.0235
11777TIP3    H256747   0.631   4.898   2.236  2.7890 -0.7720  0.1014
11778TIP3   OH256748   3.551   1.450  14.430 -0.1504  0.6369  0.0804
11778TIP3    H156749   3.629   1.420  14.383  0.7444  0.3021  1.7267
11778TIP3    H256750   3.583   1.469  14.518 -1.9723  0.3361  0.8162
11779TIP3   OH256751   4.320   4.928   1.403 -0.2751  0.5898  0.0099
11779TIP3    H156752   4.244   4.963   1.448 -0.4254 -1.3681  1.3571
11779TIP3    H256753   4.394   4.948   1.461 -0.2760 -0.6578  0.4735
11780TIP3   OH256754   4.808   0.232  12.195  0.4835  0.2610  0.5329
11780TIP3    H156755   4.847   0.311  12.232 -2.8223  2.2338  0.0055
11780TIP3    H256756   4.825   0.239  12.101  0.0107  0.4849  0.4601
11781TIP3   OH256757   4.822   0.755  15.933 -0.2048  0.0198 -0.2661
11781TIP3    H156758   4.822   0.664  15.905  1.4110  0.0566 -0.4707
11781TIP3    H256759   4.764   0.758  16.008 -1.0416 -0.9812 -0.8751
11782TIP3   OH256760   2.221   2.016   2.904 -0.4180  0.1820 -0.1920
11782TIP3    H156761   2.171   2.086   2.947  1.0791 -0.0704  2.0212
11782TIP3    H256762   2.312   2.047   2.906  0.1721 -1.5574  0.2770
11783TIP3   OH256763   6.540   4.486  16.859 -0.2762  0.5560 -0.4786
11783TIP3    H156764   6.534   4.570  16.903  0.9370  1.4102 -1.9273
11783TIP3    H256765   6.589   4.430  16.919  0.1835  1.3041 -0.1603
11784TIP3   OH256766   5.556   0.071  13.120 -0.0885  0.2001 -0.5779
11784TIP3    H156767   5.566   0.164  13.099  1.1385  0.1129 -0.4162
11784TIP3    H256768   5.547   0.069  13.215  1.1880  0.0592 -0.4519
11785TIP3   OH256769   5.168   1.784  12.738 -0.6245  0.0411  0.5537
11785TIP3    H156770   5.154   1.842  12.663 -1.1778 -0.7680  0.0361
11785TIP3    H256771   5.155   1.696  12.704  0.1953 -0.3971  1.3556
11786TIP3   OH256772   6.678   3.141   0.463  0.4115  0.4314 -0.2440
11786TIP3    H156773   6.697   3.081   0.535 -0.9984  1.8362  1.3415
11786TIP3    H256774   6.698   3.228   0.498 -0.7994  1.1847 -1.3514
11787TIP3   OH256775   2.205   4.755   0.220 -0.0634  0.3165 -0.4724
11787TIP3    H156776   2.160   4.750   0.304  0.1019  0.9775 -0.3397
11787TIP3    H256777   2.161   4.690   0.165 -0.6861  0.4386 -0.1216
11788TIP3   OH256778   5.281   6.253  11.572  0.0982  0.0295 -0.2533
11788TIP3    H156779   5.285   6.177  11.513  2.1041 -0.5553  0.5927
11788TIP3    H256780   5.320   6.324  11.522 -2.2875  0.6947 -1.2554
11789TIP3   OH256781   5.531   5.801   0.308  0.0656 -0.4936  0.1594
11789TIP3    H156782   5.471   5.872   0.286 -1.1043 -1.6675 -0.5361
11789TIP3    H256783   5.494   5.762   0.387  0.2618 -0.8191  0.0926
11790TIP3   OH256784   2.680   0.123   0.311  0.4638 -0.4822 -0.1759
11790TIP3    H156785   2.725   0.191   0.361  0.2544 -0.2706 -0.2773
11790TIP3    H256786   2.750   0.067   0.277  0.5793 -1.1052  1.0401
11791TIP3   OH256787   5.644   2.964   2.435  0.0804 -0.9100  0.1073
11791TIP3    H156788   5.627   2.873   2.461  2.0204 -1.1105  0.6903
11791TIP3    H256789   5.718   2.958   2.375 -2.4986 -0.1660 -3.3783
11792TIP3   OH256790   1.282   2.479  11.162  0.1498 -0.0163 -0.5398
11792TIP3    H156791   1.253   2.416  11.095  0.2504 -1.0058  0.3357
11792TIP3    H256792   1.251   2.442  11.244  1.3952  0.4045  0.1241
11793TIP3   OH256793   6.574   5.991   2.415  0.0613  0.1195  0.5866
11793TIP3    H156794   6.542   6.081   2.424  0.9563  0.3699  1.3143
11793TIP3    H256795   6.569   5.955   2.504 -0.0495 -0.4699  0.3448
11794TIP3   OH256796   6.731   6.334  17.184  0.0490  0.1666 -0.8599
11794TIP3    H156797   6.642   6.308  17.206 -0.5145  1.1771 -1.9138
11794TIP3    H256798   6.769   6.363  17.267 -0.7400  0.1489 -0.4855
11795TIP3   OH256799   3.000   0.377  14.790  0.0264  0.3039  0.4621
11795TIP3    H156800   3.028   0.468  14.781  1.6615 -0.2140  0.1227
11795TIP3    H256801   2.909   0.382  14.820 -0.7130  2.0671 -1.9274
11796TIP3   OH256802   1.269   4.884  11.957  0.1157  0.1074 -0.3371
11796TIP3    H156803   1.209   4.909  11.887  0.0640 -2.2088 -1.1574
11796TIP3    H256804   1.341   4.946  11.951 -0.1510  0.2633 -2.1060
11797TIP3   OH256805   4.839   5.650  14.559  0.4602 -0.4136 -0.3972
11797TIP3    H156806   4.811   5.559  14.571  1.7797 -0.6532  0.9642
11797TIP3    H256807   4.899   5.667  14.631  1.3079  1.1115 -1.4280
11798TIP3   OH256808   1.319   1.361   5.919 -0.1863  0.2194 -0.0066
11798TIP3    H156809   1.346   1.341   5.830 -1.2588  0.5866 -0.4280
11798TIP3    H256810   1.264   1.439   5.910 -1.9853 -0.9472  0.7276
11799TIP3   OH256811   6.094   1.200   5.630  0.1136  0.3455  0.4917
11799TIP3    H156812   6.183   1.207   5.595  0.0247  0.0456  0.2007
11799TIP3    H256813   6.101   1.135   5.699  0.1980  0.5998  0.7220
11800TIP3   OH256814   0.189   2.938  10.384  0.4660 -0.1263  0.7353
11800TIP3    H156815   0.208   2.861  10.437  0.3950 -1.4638 -1.1310
11800TIP3    H256816   0.111   2.976  10.425  1.0835 -0.4500  2.2688
11801TIP3   OH256817   5.138   4.215   5.362  0.1219  0.0753 -0.1306
11801TIP3    H156818   5.190   4.294   5.375 -0.2127  0.5298 -1.4405
11801TIP3    H256819   5.048   4.247   5.356 -0.1256 -0.5199  0.3824
11802TIP3   OH256820   3.649   4.828  13.873 -0.2644  0.1705  0.3647
11802TIP3    H156821   3.689   4.915  13.867 -0.2772  0.1773  0.3812
11802TIP3    H256822   3.581   4.837  13.939 -1.8748  0.7927 -1.3291
11803TIP3   OH256823   1.382   6.022  13.329 -0.5139  0.0955 -0.0765
11803TIP3    H156824   1.342   6.102  13.363 -1.7689  0.3952 -2.2022
11803TIP3    H256825   1.387   6.035  13.235  3.2853 -0.5697 -0.0364
11804TIP3   OH256826   5.760   0.938   5.254 -0.3776  0.6116  0.3381
11804TIP3    H156827   5.831   0.989   5.293  1.7293 -2.4385  0.7255
11804TIP3    H256828   5.721   0.890   5.328  0.3841 -1.4147 -0.5308
11805TIP3   OH256829   3.009   6.585   3.903 -0.0978  0.1198 -0.3774
11805TIP3    H156830   3.075   6.543   3.847  1.6338 -0.7038  2.1758
11805TIP3    H256831   2.960   6.511   3.941 -0.3440  0.5964  0.2406
11806TIP3   OH256832   1.580   2.392   1.259  0.3378  0.2798  0.1763
11806TIP3    H156833   1.487   2.377   1.279  0.5714 -1.2943  0.0811
11806TIP3    H256834   1.579   2.431   1.172 -0.2413  0.3727  0.2210
11807TIP3   OH256835   3.980   2.061  16.466  0.1957  0.0912  0.1581
11807TIP3    H156836   4.057   2.107  16.434 -0.7610  2.7101  1.3855
11807TIP3    H256837   3.915   2.130  16.479 -3.0574 -2.2446 -2.7047
11808TIP3   OH256838   3.202   5.610   4.863 -0.4701 -0.1654  0.2348
11808TIP3    H156839   3.288   5.650   4.851 -0.7057  0.4920  0.7218
11808TIP3    H256840   3.173   5.587   4.775 -0.3770  0.8301 -0.0575
11809TIP3   OH256841   0.274   6.646   5.468 -0.2801 -0.0588  0.5681
11809TIP3    H156842   0.267   6.555   5.495 -1.4029  0.5944  2.5275
11809TIP3    H256843   0.187   6.683   5.482 -0.5168  0.7185 -2.5348
11810TIP3   OH256844   1.341   1.578  10.604  0.4470 -0.5396  0.1630
11810TIP3    H156845   1.374   1.597  10.692  0.7213 -0.4372  0.0383
11810TIP3    H256846   1.276   1.509  10.618  1.5205 -1.5448  0.2827
11811TIP3   OH256847   2.614   3.086  14.152 -0.2927 -0.4921 -0.1782
11811TIP3    H156848   2.590   2.999  14.184 -1.5355  0.6818  2.2353
11811TIP3    H256849   2.530   3.133  14.147  0.6195  1.3511  1.0862
11812TIP3   OH256850   5.614   1.776   3.791  0.6327  0.2233  0.7667
11812TIP3    H156851   5.588   1.858   3.833  1.6185  1.0195 -0.1274
11812TIP3    H256852   5.540   1.753   3.735 -0.0384 -0.0038  1.7427
11813TIP3   OH256853   3.650   3.952   2.888  0.5027 -0.4871  0.1027
11813TIP3    H156854   3.564   3.993   2.896  0.7380 -0.2336  1.4060
11813TIP3    H256855   3.701   4.012   2.835 -0.1780 -0.7233 -0.8253
11814TIP3   OH256856   3.873   4.693  15.808 -0.2466  0.5151  0.1701
11814TIP3    H156857   3.916   4.627  15.754 -0.8114  0.7087 -0.5283
11814TIP3    H256858   3.786   4.703  15.770 -0.3508  1.2853  0.5869
11815TIP3   OH256859   4.764   6.377   4.527  0.3459 -0.2063 -0.4574
11815TIP3    H156860   4.678   6.336   4.518 -0.7716  2.0300 -0.3659
11815TIP3    H256861   4.782   6.373   4.620 -1.2829  2.4187  0.0148
11816TIP3   OH256862   3.854   2.731  14.856  0.2676 -0.1680  0.2670
11816TIP3    H156863   3.817   2.642  14.859  0.8254 -0.4251 -0.4542
11816TIP3    H256864   3.880   2.749  14.946 -1.5238 -0.0221  0.7856
11817TIP3   OH256865   6.762   0.458  16.284  0.4212 -0.4939 -0.2916
11817TIP3    H156866   6.781   0.488  16.196 -0.6920 -2.9424 -1.4232
11817TIP3    H256867   6.844   0.418  16.314  0.9131  0.6771 -0.0478
11818TIP3   OH256868   5.732   0.358   1.713  0.1432  0.1495  0.3168
11818TIP3    H156869   5.643   0.327   1.729 -0.1176  0.6505 -0.1602
11818TIP3    H256870   5.787   0.301   1.768 -0.2122 -1.7973 -1.2844
11819TIP3   OH256871   3.842   0.589  11.990  0.0692 -0.2369 -0.2606
11819TIP3    H156872   3.752   0.611  11.967 -0.5426  0.3289  2.4389
11819TIP3    H256873   3.836   0.502  12.029  0.4750  0.3048  1.0498
11820TIP3   OH256874   0.370   6.481   2.891 -0.6811  0.5516 -0.2240
11820TIP3    H156875   0.321   6.461   2.811  0.4787  1.6752 -1.2510
11820TIP3    H256876   0.303   6.499   2.957 -1.6723  1.5051 -1.4564
11821TIP3   OH256877   2.579   2.759   4.051 -0.4150  0.6365  0.1744
11821TIP3    H156878   2.612   2.825   4.111  1.0386 -2.1664  2.5805
11821TIP3    H256879   2.651   2.696   4.043 -1.3829 -0.1789 -2.8407
11822TIP3   OH256880   2.292   5.957  15.309 -0.0421  0.1913 -0.4427
11822TIP3    H156881   2.289   5.968  15.214  0.9644 -0.5129 -0.5525
11822TIP3    H256882   2.268   5.865  15.324  0.5071  0.1073 -0.0597
11823TIP3   OH256883   2.694   5.186  15.596 -0.8373 -0.6078 -0.1568
11823TIP3    H156884   2.711   5.243  15.671  2.1543 -2.1252  0.3951
11823TIP3    H256885   2.637   5.118  15.631 -1.9878  0.3950 -0.0602
11824TIP3   OH256886   3.229   2.180   1.305  0.4577 -0.0763  0.6755
11824TIP3    H156887   3.274   2.264   1.295  0.0633 -0.0126 -0.6316
11824TIP3    H256888   3.193   2.183   1.393  0.4730  1.1125  0.6566
11825TIP3   OH256889   6.144   4.871   3.210  0.2467  0.4330 -0.1018
11825TIP3    H156890   6.205   4.938   3.240 -0.0741  0.5412  0.3151
11825TIP3    H256891   6.199   4.804   3.170  0.6323  0.5688  0.1983
11826TIP3   OH256892   2.867   5.935   6.645  0.2129 -0.4047 -0.4522
11826TIP3    H156893   2.904   5.860   6.692  1.0460 -1.1973 -2.3012
11826TIP3    H256894   2.773   5.919   6.643 -0.1197  0.7724  2.8413
11827TIP3   OH256895   2.880   0.489   1.008  0.4019  0.4114 -0.1909
11827TIP3    H156896   2.818   0.526   0.945  0.4221  0.7597 -0.0139
11827TIP3    H256897   2.852   0.399   1.020  1.5075 -0.2156 -2.0780
11828TIP3   OH256898   3.975   0.541  14.439  0.7162  0.6819 -0.1392
11828TIP3    H156899   3.939   0.496  14.516 -0.3747  0.3212 -0.8537
11828TIP3    H256900   4.065   0.562  14.464  0.7550 -0.5138  0.7863
11829TIP3   OH256901   0.186   2.224  13.305  0.6022 -0.1429  0.1468
11829TIP3    H156902   0.220   2.164  13.371 -0.8954 -0.0991  0.9818
11829TIP3    H256903   0.166   2.304  13.354 -1.2220 -0.3668 -0.2061
11830TIP3   OH256904   0.929   1.325   0.547  0.1434 -0.0282  0.3442
11830TIP3    H156905   0.901   1.416   0.555 -0.2265 -0.0640 -0.4880
11830TIP3    H256906   0.982   1.309   0.626  0.5313  1.0149  0.3061
11831TIP3   OH256907   1.000   1.137  11.666  0.3082 -0.0225 -0.3058
11831TIP3    H156908   0.986   1.226  11.633  2.9985  0.5395 -0.0721
11831TIP3    H256909   1.014   1.149  11.760 -0.7702 -0.8769 -0.0263
11832TIP3   OH256910   1.603   0.133  14.136 -0.2908 -0.1378 -0.0528
11832TIP3    H156911   1.587   0.121  14.043  1.3487  1.5041 -0.5728
11832TIP3    H256912   1.591   0.227  14.150  1.8105  0.0029  0.9060
11833TIP3   OH256913   6.659   2.317   1.765 -0.2701 -0.0760  0.4585
11833TIP3    H156914   6.641   2.373   1.840 -1.4610 -0.3576  0.3844
11833TIP3    H256915   6.697   2.376   1.700  3.5235 -0.3369  2.2794
11834TIP3   OH256916   4.776   3.384   4.849  0.1328  0.0674  0.4543
11834TIP3    H156917   4.754   3.477   4.857 -0.0699  0.0252  0.3951
11834TIP3    H256918   4.870   3.381   4.864  0.4294  0.4872 -1.1480
11835TIP3   OH256919   5.476   0.407   4.226  0.4532 -0.6389 -0.3203
11835TIP3    H156920   5.412   0.477   4.241  0.6219 -0.8380  1.3820
11835TIP3    H256921   5.429   0.343   4.173 -1.0913 -1.1972  1.6437
11836TIP3   OH256922   0.850   0.998  17.051 -0.6966 -0.2067 -0.7502
11836TIP3    H156923   0.796   1.069  17.016 -0.4416  0.4002  0.0892
11836TIP3    H256924   0.897   1.037  17.125  1.1018 -0.6426 -1.6293
11837TIP3   OH256925   5.993   5.237   3.756 -0.2573 -0.7334  0.4822
11837TIP3    H156926   6.083   5.240   3.726 -0.0475  0.8556  1.1702
11837TIP3    H256927   5.981   5.148   3.789  0.7996 -1.1992 -0.3829
11838TIP3   OH256928   1.434   3.727  16.668 -0.0397 -0.0078  0.0432
11838TIP3    H156929   1.483   3.810  16.672  0.0644 -0.1084  0.8854
11838TIP3    H256930   1.378   3.728  16.746 -0.4155 -0.4985 -0.2211
11839TIP3   OH256931   4.452   5.669   5.984 -0.2358  0.3021  0.3355
11839TIP3    H156932   4.452   5.657   6.078 -1.0186 -4.0523 -0.1354
11839TIP3    H256933   4.516   5.606   5.951 -0.5251  1.2190 -2.1114
11840TIP3   OH256934   0.439   6.330  11.755 -0.2252  0.0019  0.2709
11840TIP3    H156935   0.386   6.333  11.675 -0.5076 -1.3373  0.3833
11840TIP3    H256936   0.376   6.310  11.824  0.5396 -2.6034  0.2673
11841TIP3   OH256937   0.221   4.114  13.523  0.1109  0.2754 -0.2119
11841TIP3    H156938   0.187   4.032  13.488 -2.2691  0.8695  0.6451
11841TIP3    H256939   0.252   4.162  13.446  0.5136 -0.9599 -0.8214
11842TIP3   OH256940   0.441   4.606   1.974 -0.5346  0.9306  0.1642
11842TIP3    H156941   0.418   4.558   1.894  0.8301  0.1142  0.2470
11842TIP3    H256942   0.392   4.688   1.968 -1.2645  0.4197 -0.9957
11843TIP3   OH256943   4.036   2.801   3.281  0.7458 -0.0823 -0.7486
11843TIP3    H156944   4.051   2.818   3.188  0.1493  0.6125 -0.7280
11843TIP3    H256945   4.107   2.743   3.307  1.4233  0.4307 -1.4302
11844TIP3   OH256946   2.469   2.727   3.228 -0.2822  0.3630  0.4615
11844TIP3    H156947   2.497   2.657   3.288  0.3837 -0.2333 -0.5427
11844TIP3    H256948   2.529   2.799   3.245  0.9703 -0.4048 -0.6777
11845TIP3   OH256949   4.159   3.992   0.508  0.1031  0.4575 -0.1258
11845TIP3    H156950   4.083   3.975   0.564 -0.0341 -1.6796 -0.8987
11845TIP3    H256951   4.234   3.993   0.567 -0.3531  0.9290  0.4372
11846TIP3   OH256952   4.286   4.890  15.505  0.5096 -0.2125  0.2783
11846TIP3    H156953   4.326   4.873  15.590 -1.1176  0.5451  1.2248
11846TIP3    H256954   4.359   4.896  15.444  1.7043 -0.5320  1.6685
11847TIP3   OH256955   1.973   2.298  13.188 -0.3250 -0.4239  0.5971
11847TIP3    H156956   1.925   2.359  13.133 -0.3122 -1.6285 -0.7859
11847TIP3    H256957   2.056   2.285  13.142 -0.3426 -1.4827  0.8442
11848TIP3   OH256958   0.797   6.076  12.134 -0.7370  0.3418  0.3390
11848TIP3    H156959   0.805   6.099  12.042  2.6788 -1.9998 -0.0115
11848TIP3    H256960   0.822   6.156  12.180  0.0631  0.7409 -0.7725
11849TIP3   OH256961   1.165   4.556   2.478 -0.0564 -0.2297  0.7528
11849TIP3    H156962   1.209   4.477   2.510  2.2470  0.1764 -1.3184
11849TIP3    H256963   1.083   4.523   2.441  1.2015 -1.7874 -0.7395
11850TIP3   OH256964   3.717   2.931   1.817  0.2148  0.4525 -0.0387
11850TIP3    H156965   3.696   2.964   1.730 -0.1023 -0.1703 -0.2021
11850TIP3    H256966   3.749   2.842   1.802  0.1423  0.3371  0.4809
11851TIP3   OH256967   5.132   3.079   5.696  0.3266  0.3971 -0.4284
11851TIP3    H156968   5.148   3.112   5.608  1.9031 -0.7175 -0.5806
11851TIP3    H256969   5.047   3.036   5.691 -0.5702  2.2023 -0.8631
11852TIP3   OH256970   2.057   1.798  14.962  0.4752 -0.2310  0.1670
11852TIP3    H156971   2.112   1.776  14.887 -0.8380 -1.1101 -0.5639
11852TIP3    H256972   2.069   1.726  15.023  1.2860  0.3202  0.6675
11853TIP3   OH256973   2.257   6.090   3.880  0.7656 -0.1079  0.3546
11853TIP3    H156974   2.346   6.075   3.849  0.7438 -0.6246  0.5293
11853TIP3    H256975   2.208   6.014   3.849  0.4700 -0.0140  0.5866
11854TIP3   OH256976   1.624   0.689  17.053 -0.6726  0.0032 -0.2798
11854TIP3    H156977   1.710   0.658  17.079  0.5592  3.4135 -0.1530
11854TIP3    H256978   1.617   0.665  16.960 -0.2516 -1.6325  0.0997
11855TIP3   OH256979   1.362   1.093   4.248 -0.1251  0.2342 -0.2911
11855TIP3    H156980   1.414   1.055   4.320  0.1608 -1.1177 -1.1879
11855TIP3    H256981   1.398   1.181   4.236  1.1688 -0.2538 -0.0993
11856TIP3   OH256982   0.067   3.759   4.039  0.5234  0.4704  0.4058
11856TIP3    H156983   0.071   3.798   4.126 -0.5242  0.5628  0.4169
11856TIP3    H256984   0.094   3.829   3.980  1.7779  0.2437  0.6931
11857TIP3   OH256985   5.201   0.078   3.425  0.1476 -0.5194 -0.3496
11857TIP3    H156986   5.196   0.102   3.517  2.1783 -0.2395 -0.2907
11857TIP3    H256987   5.200   0.161   3.378  0.3762 -0.6090 -0.5132
11858TIP3   OH256988   6.363   2.581   5.906 -0.0654 -0.7214 -0.1172
11858TIP3    H156989   6.292   2.624   5.954 -0.5538 -0.4159 -1.0894
11858TIP3    H256990   6.328   2.568   5.818  1.5393  0.6440 -0.9922
11859TIP3   OH256991   2.138   3.244  11.136  0.7128 -0.0010 -0.1273
11859TIP3    H156992   2.122   3.221  11.227  0.2465  0.3157 -0.1238
11859TIP3    H256993   2.172   3.334  11.139 -1.6152  0.9191 -0.4132
11860TIP3   OH256994   2.666   3.384  11.832  0.0342 -0.5032 -0.1285
11860TIP3    H156995   2.737   3.390  11.769  0.1696  2.3435  0.2193
11860TIP3    H256996   2.707   3.351  11.912  1.0023  1.1847  0.0858
11861TIP3   OH256997   1.219   0.566  14.106 -0.5727 -0.1711  0.1051
11861TIP3    H156998   1.155   0.509  14.148 -0.2496  0.3018  1.2608
11861TIP3    H256999   1.274   0.597  14.177 -0.4008  1.1446 -0.5827
11862TIP3   OH257000   3.163   0.059   1.465  0.6859 -0.4892 -0.3415
11862TIP3    H157001   3.144   0.009   1.544 -0.4696 -0.9508 -0.9078
11862TIP3    H257002   3.080   0.062   1.417  1.1146  0.6545 -1.0538
11863TIP3   OH257003   4.370   4.625   6.163  0.5370  0.0438  0.3011
11863TIP3    H157004   4.297   4.635   6.224 -0.3300  0.5399 -0.7834
11863TIP3    H257005   4.393   4.715   6.138  0.7634 -0.1626 -0.2328
11864TIP3   OH257006   5.399   1.164  17.034 -0.4350  0.8088 -0.0454
11864TIP3    H157007   5.314   1.120  17.045  0.4551 -1.5830 -2.2061
11864TIP3    H257008   5.453   1.129  17.105  0.4592 -2.2068 -2.1243
11865TIP3   OH257009   4.932   2.781   3.043 -0.1511 -0.2430 -0.0669
11865TIP3    H157010   4.919   2.827   2.960 -0.5428 -0.8779 -0.3636
11865TIP3    H257011   4.958   2.692   3.017  2.1561  0.2147  0.4861
11866TIP3   OH257012   2.204   1.773   1.700  0.8998 -0.0409 -0.3925
11866TIP3    H157013   2.156   1.690   1.701  1.2205 -0.2256 -0.2578
11866TIP3    H257014   2.217   1.794   1.792 -0.3118  0.8206 -0.4014
11867TIP3   OH257015   6.416   4.692  14.259  0.0646  0.3763  0.1415
11867TIP3    H157016   6.389   4.619  14.314 -0.4139  0.8456  0.5242
11867TIP3    H257017   6.406   4.659  14.169  2.0671 -0.8321  0.3226
11868TIP3   OH257018   1.278   4.776   2.363  0.0797  0.2691 -0.5430
11868TIP3    H157019   1.364   4.771   2.404 -0.7989  0.6576  1.4599
11868TIP3    H257020   1.230   4.701   2.399 -0.7802  0.7359 -0.6930
11869TIP3   OH257021   3.293   2.254  15.323 -0.6369  0.4606  0.1216
11869TIP3    H157022   3.202   2.232  15.343 -0.6444 -0.3282 -0.7880
11869TIP3    H257023   3.328   2.177  15.280  0.5829  0.6134  0.8065
11870TIP3   OH257024   5.010   3.683   0.202  0.3912 -0.3729 -0.2432
11870TIP3    H157025   5.096   3.725   0.191  0.5700 -0.7388 -0.2326
11870TIP3    H257026   4.956   3.721   0.133  1.1469 -1.6916 -1.5810
11871TIP3   OH257027   4.307   5.319   0.517 -0.2044  0.8259 -0.4558
11871TIP3    H157028   4.244   5.383   0.550  1.2101  2.1835 -0.3067
11871TIP3    H257029   4.340   5.275   0.595 -1.1063 -0.0369 -0.5507
11872TIP3   OH257030   2.584   5.603   6.471  0.3029  0.1351 -0.4396
11872TIP3    H157031   2.525   5.590   6.397 -1.0541  3.7748 -0.1078
11872TIP3    H257032   2.653   5.537   6.459 -2.7037 -2.8528 -1.9431
11873TIP3   OH257033   3.690   0.813   2.299  0.5241 -1.1841  0.2565
11873TIP3    H157034   3.767   0.825   2.243  0.4513  0.8070  0.5602
11873TIP3    H257035   3.617   0.804   2.238  0.7121 -0.9538 -0.0027
11874TIP3   OH257036   4.416   0.782  16.201 -0.1474  0.3188 -0.4129
11874TIP3    H157037   4.420   0.795  16.296 -3.3167  0.7298 -0.3104
11874TIP3    H257038   4.406   0.870  16.165  0.3830  0.0980 -1.1082
11875TIP3   OH257039   3.577   3.882  11.219 -0.1318  0.5967 -0.7387
11875TIP3    H157040   3.505   3.945  11.226 -2.2846 -1.9091  0.6162
11875TIP3    H257041   3.637   3.906  11.290 -0.8619  1.2106 -0.3193
11876TIP3   OH257042   6.605   4.761  14.859  0.0313 -0.5881  0.1834
11876TIP3    H157043   6.539   4.830  14.855 -0.8304 -1.3827  0.4498
11876TIP3    H257044   6.641   4.756  14.770 -1.0954 -0.9456 -0.2570
11877TIP3   OH257045   0.077   0.560   5.403 -0.8883  0.2331 -0.2332
11877TIP3    H157046   0.133   0.485   5.416  0.3719  1.1898 -0.0788
11877TIP3    H257047   0.036   0.545   5.317 -2.8059 -1.9610  0.9932
11878TIP3   OH257048   6.137   2.980   2.702  0.1220  0.6454  0.5643
11878TIP3    H157049   6.209   2.917   2.694 -0.2627  0.4458 -1.5480
11878TIP3    H257050   6.075   2.954   2.635 -1.1747  1.8300  1.2812
11879TIP3   OH257051   1.052   5.838  12.600 -0.1439  0.2144 -0.0132
11879TIP3    H157052   0.983   5.785  12.639 -0.5953  1.0182  0.2927
11879TIP3    H257053   1.093   5.781  12.535 -0.9548 -0.3386 -0.0399
11880TIP3   OH257054   6.745   2.727  13.223  0.3134 -0.7693  0.1597
11880TIP3    H157055   6.688   2.720  13.300 -1.4396 -0.2908 -1.0711
11880TIP3    H257056   6.710   2.801  13.174  2.7491  0.2950 -0.0334
11881TIP3   OH257057   5.523   0.049   5.439  0.1086 -0.0579  0.0126
11881TIP3    H157058   5.592   0.084   5.382  0.0721 -0.6813 -0.4243
11881TIP3    H257059   5.526  -0.046   5.424 -3.1677  0.1695 -2.6855
11882TIP3   OH257060   4.383   6.778  15.627  0.2218 -0.6693 -0.9072
11882TIP3    H157061   4.317   6.708  15.627  1.5673 -1.9565 -0.6249
11882TIP3    H257062   4.466   6.733  15.642  0.6778  1.3884  3.4146
11883TIP3   OH257063   4.847   2.926   0.658 -0.1865 -0.0593  0.0875
11883TIP3    H157064   4.764   2.879   0.669  0.1092 -0.4657  0.5761
11883TIP3    H257065   4.901   2.898   0.732 -0.1703  1.3933  0.6465
11884TIP3   OH257066   2.996   2.468  16.659  0.2240 -0.4356  0.0861
11884TIP3    H157067   3.004   2.539  16.595 -0.2275 -0.6562 -0.2146
11884TIP3    H257068   3.080   2.469  16.705  0.8005 -0.6710 -0.9320
11885TIP3   OH257069   0.657   3.886   5.028  0.3079  0.8807 -0.9563
11885TIP3    H157070   0.601   3.948   5.075 -2.4136 -2.0719 -0.1378
11885TIP3    H257071   0.708   3.844   5.097  0.4360  0.5456 -1.2555
11886TIP3   OH257072   4.523   0.341   5.349 -0.3625  0.1717  0.6584
11886TIP3    H157073   4.533   0.436   5.336 -0.6170  0.2483  1.0152
11886TIP3    H257074   4.575   0.302   5.279  2.2048  0.5633  2.2848
11887TIP3   OH257075   4.632   4.403   1.823 -0.1967  0.3707  0.2476
11887TIP3    H157076   4.546   4.440   1.804  0.6499  3.0799  1.4164
11887TIP3    H257077   4.680   4.474   1.866  1.5152 -2.1315  2.6693
11888TIP3   OH257078   3.198   5.955  14.417  0.4550 -0.0601 -0.1509
11888TIP3    H157079   3.147   5.940  14.497  0.3836  1.0492  0.0192
11888TIP3    H257080   3.288   5.937  14.443  0.3288 -0.5880 -0.0650
11889TIP3   OH257081   6.157   5.363   4.786 -0.2511  0.3235 -0.4908
11889TIP3    H157082   6.135   5.272   4.769 -0.5697  0.2929  0.1050
11889TIP3    H257083   6.204   5.362   4.869  1.5361  0.4491 -1.4681
11890TIP3   OH257084   6.140   0.279   4.377  0.5473  0.7751 -0.1019
11890TIP3    H157085   6.180   0.355   4.420 -3.4173  1.7967  2.0389
11890TIP3    H257086   6.122   0.218   4.449 -0.7622 -0.0722 -1.1278
11891TIP3   OH257087   4.419   6.202   5.911  0.4707 -0.3991  0.0411
11891TIP3    H157088   4.374   6.274   5.955  0.1952  0.5824 -1.8124
11891TIP3    H257089   4.512   6.217   5.927  0.4194  0.4291 -0.4210
11892TIP3   OH257090   1.963   2.075   0.579 -0.3310 -0.1742  0.5844
11892TIP3    H157091   1.874   2.061   0.546  0.0053 -0.0028 -0.4222
11892TIP3    H257092   1.957   2.154   0.632 -0.8486 -0.3508  0.7930
11893TIP3   OH257093   3.753   6.198   4.570  0.1710 -0.4977 -0.1427
11893TIP3    H157094   3.721   6.139   4.639  1.6475 -0.2141  0.8056
11893TIP3    H257095   3.778   6.139   4.498  0.5644 -0.9489  0.3578
11894TIP3   OH257096   4.702   5.617   3.107 -0.2354  0.2836 -0.0629
11894TIP3    H157097   4.788   5.575   3.113 -0.3172 -0.2323 -2.2941
11894TIP3    H257098   4.674   5.625   3.199  1.3772 -1.2080  0.6068
11895TIP3   OH257099   2.768   4.867  14.126 -0.4006  0.8891  0.1356
11895TIP3    H157100   2.677   4.855  14.153 -0.6688  0.8534 -0.7533
11895TIP3    H257101   2.817   4.803  14.176 -1.1895 -0.7631 -1.1433
11896TIP3   OH257102   3.066   6.222  16.582  0.4503 -0.7928 -0.2453
11896TIP3    H157103   2.996   6.288  16.583  1.0564 -0.1346 -0.1216
11896TIP3    H257104   3.118   6.245  16.505  1.1687 -0.5789  0.2982
11897TIP3   OH257105   1.960   3.000   0.143 -0.1378 -0.4056  0.6583
11897TIP3    H157106   2.049   3.035   0.146  0.4865 -2.0323  1.6969
11897TIP3    H257107   1.918   3.038   0.220 -0.4051  0.4906  0.0794
11898TIP3   OH257108   1.096   5.984  15.795  0.5407 -0.5835  0.6125
11898TIP3    H157109   1.046   5.905  15.775  0.9735 -0.6770 -0.1374
11898TIP3    H257110   1.041   6.056  15.763  1.2284 -0.7327 -0.9506
11899TIP3   OH257111   4.645   2.300   1.009 -0.4895 -0.2406 -0.1880
11899TIP3    H157112   4.591   2.282   1.085 -1.3248  0.1364 -0.6841
11899TIP3    H257113   4.729   2.330   1.045 -1.0379  0.3853  0.5741
11900TIP3   OH257114   5.323   4.299  16.183  0.1749  0.1803 -0.2059
11900TIP3    H157115   5.410   4.302  16.223  0.6105 -0.3107 -1.0976
11900TIP3    H257116   5.294   4.208  16.197  1.0431 -0.4644 -2.4785
11901TIP3   OH257117   1.141   6.169   0.847 -0.0822  0.4166 -0.1140
11901TIP3    H157118   1.145   6.109   0.922  0.7552 -0.6957 -1.0410
11901TIP3    H257119   1.194   6.127   0.780 -0.2079  1.7829 -1.0822
11902TIP3   OH257120   2.400   6.558  16.154 -0.1161 -0.3788  0.1193
11902TIP3    H157121   2.393   6.652  16.169 -2.5983 -0.6365  0.7566
11902TIP3    H257122   2.426   6.522  16.240 -0.1687 -0.3940  0.1273
11903TIP3   OH257123   5.268   6.729   0.525  0.2022 -0.7310  0.2464
11903TIP3    H157124   5.361   6.730   0.551  0.1466 -1.4558  0.4904
11903TIP3    H257125   5.238   6.641   0.547 -0.5012 -0.5588 -0.0075
11904TIP3   OH257126   4.426   5.681   5.195 -0.2500 -0.1832 -0.0894
11904TIP3    H157127   4.374   5.620   5.247 -2.2054 -1.6118 -3.5377
11904TIP3    H257128   4.364   5.750   5.170  1.0175  1.2404  0.6406
11905TIP3   OH257129   1.590   6.743  13.375 -0.0520 -0.1986 -0.3667
11905TIP3    H157130   1.669   6.796  13.365 -0.2315  0.2114  0.3792
11905TIP3    H257131   1.527   6.782  13.313 -1.3717  2.7432  2.7051
11906TIP3   OH257132   5.274   3.370  12.007 -0.5724 -0.5796 -0.0456
11906TIP3    H157133   5.260   3.437  11.940 -0.8004 -0.2407  0.3386
11906TIP3    H257134   5.296   3.291  11.958 -1.3808 -0.4952 -0.5374
11907TIP3   OH257135   1.665   4.981   1.056 -0.2034 -0.0773 -0.6548
11907TIP3    H157136   1.691   4.891   1.077 -1.0225 -0.1160  0.2096
11907TIP3    H257137   1.642   4.978   0.963  0.5255 -0.5842 -0.8248
11908TIP3   OH257138   4.245   5.865   2.171 -0.1242 -1.0799 -0.0560
11908TIP3    H157139   4.303   5.832   2.240  1.0975  1.4517  0.1865
11908TIP3    H257140   4.228   5.956   2.196 -2.3422 -1.0958 -1.3753
11909TIP3   OH257141   6.498   2.859   0.363  0.9407  0.2659  0.1590
11909TIP3    H157142   6.407   2.887   0.355  1.1391  0.8071 -0.2825
11909TIP3    H257143   6.546   2.918   0.305  1.2989 -1.4424 -1.3074
11910TIP3   OH257144   2.870   1.831  12.515 -0.5789  0.2104  0.1321
11910TIP3    H157145   2.914   1.772  12.453 -0.4965  0.3139  0.0904
11910TIP3    H257146   2.780   1.801  12.517 -0.4671 -0.1135  0.3492
11911TIP3   OH257147   6.270   6.067   1.729  0.4860 -0.7247 -0.0085
11911TIP3    H157148   6.258   6.012   1.806  1.2484 -0.8611  0.0224
11911TIP3    H257149   6.334   6.020   1.676 -0.3467 -0.8308 -0.9268
11912TIP3   OH257150   6.739   2.035   0.987 -0.0567  0.5215 -1.5206
11912TIP3    H157151   6.799   2.016   1.059  0.4175  1.6926 -1.5929
11912TIP3    H257152   6.743   2.130   0.977 -1.8114  0.5914 -1.6423
11913TIP3   OH257153   5.694   4.069   4.389  0.3099 -0.0184 -0.0528
11913TIP3    H157154   5.747   3.992   4.368 -1.4023 -0.3799 -3.5116
11913TIP3    H257155   5.742   4.142   4.348  1.3511  0.6406  2.2621
11914TIP3   OH257156   3.818   6.068  12.811 -0.2133 -0.0682  0.3256
11914TIP3    H157157   3.804   5.974  12.799 -0.3979  0.0238 -0.2117
11914TIP3    H257158   3.827   6.080  12.905 -1.0827 -0.4954  0.4652
11915TIP3   OH257159   2.494   0.985   6.300 -0.1588  0.1256  0.0747
11915TIP3    H157160   2.431   0.974   6.371 -0.3887  1.1818  0.0375
11915TIP3    H257161   2.574   1.016   6.343 -0.3126  0.8129 -0.1270
11916TIP3   OH257162   0.686   4.344  14.222 -0.5951 -0.0323  0.2528
11916TIP3    H157163   0.709   4.380  14.308  0.3039 -0.2631  0.1129
11916TIP3    H257164   0.760   4.289  14.198 -1.0901 -0.4193 -0.4269
11917TIP3   OH257165   4.270   3.842   4.391 -0.5011  0.1192 -0.4502
11917TIP3    H157166   4.193   3.821   4.443 -0.2167 -1.8913 -0.8323
11917TIP3    H257167   4.331   3.882   4.454 -0.9834 -0.3184  0.2980
11918TIP3   OH257168   5.481   4.794  13.424 -0.2319  0.2044  0.6605
11918TIP3    H157169   5.556   4.735  13.427  0.7978  1.4588  0.1235
11918TIP3    H257170   5.436   4.782  13.507 -0.7509 -2.2423  0.0664
11919TIP3   OH257171   3.534   6.704   4.735 -0.5374 -0.8525  0.7803
11919TIP3    H157172   3.534   6.796   4.760  0.4443 -0.5608 -0.2612
11919TIP3    H257173   3.466   6.697   4.668 -2.2747 -1.3829  2.5316
11920TIP3   OH257174   0.511   1.350  17.045  0.1398  0.3958 -1.0340
11920TIP3    H157175   0.425   1.314  17.066  0.0514  2.8145  3.3012
11920TIP3    H257176   0.571   1.307  17.105  1.4147  1.0407 -1.8289
11921TIP3   OH257177   4.704   0.294   5.122  0.2164  0.6374  0.6412
11921TIP3    H157178   4.784   0.336   5.090  0.6288  0.6633  1.6834
11921TIP3    H257179   4.733   0.210   5.157 -0.3830  0.1506 -0.0068
11922TIP3   OH257180   3.860   0.103   1.058  0.4881  0.1318 -0.3041
11922TIP3    H157181   3.793   0.092   1.125  0.7375 -0.1619 -0.0995
11922TIP3    H257182   3.829   0.050   0.985 -0.5004  1.5960 -0.9643
11923TIP3   OH257183   6.216   1.776  15.423  0.4438  0.0981  0.6306
11923TIP3    H157184   6.280   1.806  15.357  0.5752 -0.9191  0.2804
11923TIP3    H257185   6.251   1.807  15.506  1.2222 -0.1500  0.4021
11924TIP3   OH257186   6.321   0.412   0.887  0.1126 -0.0128  0.1881
11924TIP3    H157187   6.274   0.345   0.839 -1.1963  1.4401 -0.6223
11924TIP3    H257188   6.271   0.425   0.967 -2.3483  3.1731 -1.7080
11925TIP3   OH257189   3.145   6.745   3.213 -0.1516  0.1301  0.7146
11925TIP3    H157190   3.240   6.751   3.215 -0.1031 -0.1061 -0.3138
11925TIP3    H257191   3.121   6.771   3.124 -0.7185 -3.7347 -0.3695
11926TIP3   OH257192   0.191   2.016  12.848 -0.4395 -0.4575  0.4203
11926TIP3    H157193   0.201   2.108  12.873  0.5862 -0.9433  1.8413
11926TIP3    H257194   0.096   2.001  12.849 -0.6958  0.9187 -1.1134
11927TIP3   OH257195   2.802   1.303  16.993 -0.1976  0.3775 -0.1230
11927TIP3    H157196   2.764   1.362  17.058  0.0117 -2.3488  2.5597
11927TIP3    H257197   2.896   1.304  17.012  0.0844  0.8755 -1.5047
11928TIP3   OH257198   3.206   1.314   5.630  0.0561 -0.0257  0.1992
11928TIP3    H157199   3.275   1.248   5.622 -0.3504 -0.3460 -0.6847
11928TIP3    H257200   3.219   1.351   5.718  1.7396  0.3468 -0.1868
11929TIP3   OH257201   1.171   3.008  10.454 -0.2425 -0.1446  0.1999
11929TIP3    H157202   1.098   2.954  10.423 -0.7977  1.7970 -1.9655
11929TIP3    H257203   1.130   3.073  10.512 -0.2607  1.0092 -1.0944
11930TIP3   OH257204   5.042   5.362   4.944 -0.0391 -0.1656 -0.8802
11930TIP3    H157205   5.129   5.366   4.903 -0.6573 -0.2744 -2.2315
11930TIP3    H257206   5.008   5.451   4.936  0.5391  0.2482  1.0062
11931TIP3   OH257207   1.681   1.117   5.570  0.2530  0.7746  0.3287
11931TIP3    H157208   1.726   1.155   5.645 -4.6864  2.1287  2.8547
11931TIP3    H257209   1.660   1.028   5.596 -0.9827  1.0670  0.3684
11932TIP3   OH257210   3.001   3.642  15.807  0.1514  0.3797  0.3039
11932TIP3    H157211   3.045   3.634  15.723 -0.2326 -1.4868  0.2567
11932TIP3    H257212   2.933   3.576  15.805 -0.1262  0.5847  1.9310
11933TIP3   OH257213   0.261   0.436   3.436 -0.9675 -0.2939  0.4042
11933TIP3    H157214   0.183   0.465   3.388  0.7586  0.4504 -2.0349
11933TIP3    H257215   0.240   0.347   3.465 -3.3569  0.5044  1.2890
11934TIP3   OH257216   5.292   0.526   4.716 -0.1224  0.7556 -0.1012
11934TIP3    H157217   5.250   0.610   4.694  0.9667  1.3856  0.1768
11934TIP3    H257218   5.354   0.512   4.645 -0.7878 -0.1658 -0.5019
11935TIP3   OH257219   4.526   4.929  14.279 -0.3735 -0.0584 -0.3092
11935TIP3    H157220   4.457   4.926  14.214 -1.1160 -1.0703  0.5092
11935TIP3    H257221   4.607   4.934  14.228 -1.0349  1.2345 -1.2679
11936TIP3   OH257222   0.760   1.107  14.393 -0.0099 -0.2720  0.0159
11936TIP3    H157223   0.854   1.091  14.400 -0.0321 -0.0167  1.1143
11936TIP3    H257224   0.722   1.051  14.460 -0.7428 -1.2074 -1.1781
11937TIP3   OH257225   4.187   4.458  12.461 -0.7600  0.2511  0.0090
11937TIP3    H157226   4.270   4.482  12.422  0.8885  0.8734  3.6681
11937TIP3    H257227   4.126   4.525  12.431  0.6633  1.2807 -0.6297
11938TIP3   OH257228   6.149   5.414  15.757 -0.1942 -0.0108 -0.1228
11938TIP3    H157229   6.173   5.504  15.739  1.9732 -0.3567  0.8720
11938TIP3    H257230   6.141   5.410  15.852 -1.3770 -0.6128 -0.2368
11939TIP3   OH257231   1.229   2.389  15.083 -0.1719 -0.2213 -0.0529
11939TIP3    H157232   1.308   2.408  15.133  0.2986 -1.3666 -0.3253
11939TIP3    H257233   1.250   2.415  14.993 -0.8077  1.2953  0.2357
11940TIP3   OH257234   4.987   4.892   6.017  0.5183  0.1970  0.3572
11940TIP3    H157235   4.906   4.893   6.068  0.5417 -0.0429  0.3988
11940TIP3    H257236   5.008   4.984   6.004  1.0877  0.2684  1.6993
11941TIP3   OH257237   6.689   0.499   4.888 -0.4858  0.3957 -0.2932
11941TIP3    H157238   6.669   0.452   4.807  0.2052 -0.3159 -0.0554
11941TIP3    H257239   6.780   0.478   4.907 -0.4804  0.9850  0.3899
11942TIP3   OH257240   4.328   6.509   5.725  0.3840 -0.3392  0.0729
11942TIP3    H157241   4.267   6.537   5.793  0.2960  1.1244 -0.5735
11942TIP3    H257242   4.315   6.415   5.717 -1.1040 -0.1899  0.6133
11943TIP3   OH257243   4.374   0.241  16.565  0.1654  0.2750  0.1962
11943TIP3    H157244   4.415   0.155  16.556 -0.1903  0.1519 -0.3022
11943TIP3    H257245   4.338   0.241  16.654  1.8229  0.6546  0.8915
11944TIP3   OH257246   1.074   0.889  16.849  0.8032 -0.3351  0.4462
11944TIP3    H157247   1.125   0.828  16.902  0.2837 -2.0531 -0.9620
11944TIP3    H257248   0.996   0.908  16.902  0.5609 -1.5733  0.5406
11945TIP3   OH257249   0.486   2.811  10.759 -0.1501  0.0211 -0.7296
11945TIP3    H157250   0.575   2.786  10.781 -1.0105 -1.3132  1.3882
11945TIP3    H257251   0.455   2.742  10.700  0.1149  0.3364 -1.2412
11946TIP3   OH257252   2.903   4.740   3.136  0.4844  0.5138 -0.4242
11946TIP3    H157253   2.882   4.740   3.229 -0.0988 -0.8988 -0.5449
11946TIP3    H257254   2.840   4.801   3.097 -1.9121 -1.8916 -0.4366
11947TIP3   OH257255   1.079   3.583  12.597 -0.5652 -0.7170  0.0915
11947TIP3    H157256   1.085   3.565  12.691 -0.8735  0.2944  0.3073
11947TIP3    H257257   1.038   3.669  12.592 -1.0246 -0.9974 -0.9879
11948TIP3   OH257258   1.747   4.940   4.553  0.1892 -0.2143 -0.0813
11948TIP3    H157259   1.688   5.015   4.562  0.9329  0.3402  0.2178
11948TIP3    H257260   1.720   4.880   4.623  0.8333  0.6269  0.8992
11949TIP3   OH257261   2.503   2.902  10.726 -0.3700  0.1198  0.0264
11949TIP3    H157262   2.552   2.846  10.786 -0.6051  0.8758  0.9367
11949TIP3    H257263   2.555   2.904  10.646  0.4166 -0.1446  0.5289
11950TIP3   OH257264   6.221   6.625   1.708 -0.5096  0.4813  0.4452
11950TIP3    H157265   6.276   6.651   1.634 -2.6655  0.6386 -1.1518
11950TIP3    H257266   6.281   6.618   1.782  1.4972  1.5143 -1.0540
11951TIP3   OH257267   2.625   0.585   1.913 -0.1230  0.7517 -0.0819
11951TIP3    H157268   2.616   0.568   1.819 -0.2069  0.8492 -0.0916
11951TIP3    H257269   2.687   0.658   1.919  1.1896 -0.3345  0.0119
11952TIP3   OH257270   1.496   3.672  11.677 -0.0522 -0.3130  0.0521
11952TIP3    H157271   1.488   3.746  11.736  1.0600 -0.1873  0.0575
11952TIP3    H257272   1.492   3.595  11.734  0.8052 -0.1973  0.2848
11953TIP3   OH257273   3.035   5.609  11.273 -0.0621 -0.0044 -0.0875
11953TIP3    H157274   2.970   5.541  11.257  0.3274  0.0454 -1.9410
11953TIP3    H257275   3.098   5.599  11.202  1.2143  0.8476  0.9022
11954TIP3   OH257276   0.075   4.770   0.751  0.4038 -0.9354 -0.3189
11954TIP3    H157277   0.012   4.705   0.721  0.6572 -1.3153 -0.0435
11954TIP3    H257278   0.022   4.843   0.783  0.0987 -1.3073  0.0334
11955TIP3   OH257279   0.201   3.036  14.587 -0.1279 -0.1358 -0.4981
11955TIP3    H157280   0.172   3.066  14.673  2.3115  0.9485 -0.0170
11955TIP3    H257281   0.131   3.060  14.527 -0.3495  2.1637  0.6616
11956TIP3   OH257282   2.205   6.070  14.556  0.1863  0.0176  0.0344
11956TIP3    H157283   2.237   6.127  14.626 -0.8197  0.5290  0.0929
11956TIP3    H257284   2.277   6.068  14.492  0.6003  0.5932  0.4759
11957TIP3   OH257285   3.071   6.753   0.650 -0.0843  0.2574  0.1158
11957TIP3    H157286   3.045   6.732   0.739  2.8956  0.2259  1.0404
11957TIP3    H257287   3.029   6.837   0.632 -0.1081  0.6403  1.8444
11958TIP3   OH257288   6.263   3.335  16.915  0.2968  0.1102 -0.0025
11958TIP3    H157289   6.286   3.250  16.878  0.6242 -0.2756  1.0770
11958TIP3    H257290   6.343   3.386  16.910  0.7067 -0.3661  1.3238
11959TIP3   OH257291   1.265   5.025   2.263 -0.4769 -0.1223  0.0058
11959TIP3    H157292   1.179   5.034   2.220 -0.8982 -1.6121  0.5176
11959TIP3    H257293   1.267   4.934   2.294  0.5761  0.4141  1.5432
11960TIP3   OH257294   3.722   5.268   3.046  0.3496 -0.1358 -0.7798
11960TIP3    H157295   3.644   5.315   3.017 -1.1014 -1.3302  1.0930
11960TIP3    H257296   3.789   5.336   3.053 -1.0792  1.2629 -0.3866
11961TIP3   OH257297   5.644   1.161  13.467 -0.2105 -0.8449  0.5912
11961TIP3    H157298   5.577   1.203  13.521  0.5196 -0.6683  1.3648
11961TIP3    H257299   5.634   1.202  13.381  1.2558  1.8300  1.6185
11962TIP3   OH257300   5.025   0.557   1.629 -0.2906 -0.0572  0.0459
11962TIP3    H157301   4.978   0.637   1.654 -1.0135 -0.8405  1.2314
11962TIP3    H257302   4.973   0.486   1.667  0.3067 -1.1071 -1.0557
11963TIP3   OH257303   5.586   3.070  13.650  0.5144 -0.6841  0.1055
11963TIP3    H157304   5.600   2.996  13.590 -1.2450 -0.9597  0.0247
11963TIP3    H257305   5.626   3.041  13.733 -0.4351 -1.8626  0.1639
11964TIP3   OH257306   4.206   4.204   0.739  0.1009  0.1644 -0.5353
11964TIP3    H157307   4.122   4.185   0.782  1.2353 -0.6920  1.3970
11964TIP3    H257308   4.241   4.278   0.788 -0.0509  1.2935 -2.1101
11965TIP3   OH257309   4.430   6.252   1.106 -0.6753 -0.2880  0.3408
11965TIP3    H157310   4.405   6.178   1.050  0.1024 -1.0280  0.9602
11965TIP3    H257311   4.347   6.286   1.138 -1.0781 -0.4872 -0.4595
11966TIP3   OH257312   0.660   4.899   6.342  0.2774 -0.7815 -0.6332
11966TIP3    H157313   0.579   4.851   6.358  0.7838 -1.5142 -0.2311
11966TIP3    H257314   0.635   4.971   6.285 -0.4882 -1.5635 -1.2910
11967TIP3   OH257315   0.346   3.165   5.243 -0.1660 -0.1201 -0.7613
11967TIP3    H157316   0.327   3.205   5.328 -2.7061  1.4143 -1.9907
11967TIP3    H257317   0.311   3.076   5.250 -1.5808  0.4420 -0.6375
11968TIP3   OH257318   4.336   4.153   4.045  0.9096 -0.0265 -0.8741
11968TIP3    H157319   4.370   4.173   3.957 -0.4960  0.7179 -1.2556
11968TIP3    H257320   4.387   4.209   4.103  1.3344  0.0213 -1.2874
11969TIP3   OH257321   1.430   2.615  13.737  0.2743  0.0190 -0.0381
11969TIP3    H157322   1.336   2.634  13.748 -0.1452 -1.1970 -1.3968
11969TIP3    H257323   1.459   2.678  13.672  0.0702 -0.5466 -0.6793
11970TIP3   OH257324   3.235   4.649   3.829 -0.2141 -0.0781 -0.1361
11970TIP3    H157325   3.270   4.691   3.751  1.4366  1.1646  1.2478
11970TIP3    H257326   3.309   4.642   3.889 -1.5043 -0.7678  1.4387
11971TIP3   OH257327   1.519   2.355  13.774  0.2238 -0.3375  0.2296
11971TIP3    H157328   1.515   2.450  13.773  0.0102 -0.3501 -0.9421
11971TIP3    H257329   1.595   2.334  13.720 -0.1314 -0.8411 -0.0809
11972TIP3   OH257330   1.930   0.425   4.614 -0.7681  0.1182 -0.0994
11972TIP3    H157331   1.988   0.501   4.605 -0.6464 -0.1263 -1.5795
11972TIP3    H257332   1.988   0.350   4.604 -1.5380 -0.1328 -3.4965
11973TIP3   OH257333   6.268   3.066  10.871 -0.3160  0.3023 -0.1301
11973TIP3    H157334   6.292   3.051  10.779 -1.0550  0.7840 -0.4131
11973TIP3    H257335   6.180   3.028  10.879  0.3635 -1.0921  0.7797
11974TIP3   OH257336   5.039   3.114   4.275 -0.7900  0.3957  0.2982
11974TIP3    H157337   5.104   3.071   4.220 -1.5232  1.3108 -1.3142
11974TIP3    H257338   5.028   3.056   4.350 -1.6240 -2.1394 -1.7219
11975TIP3   OH257339   6.207   2.904  14.576  0.0601 -0.0103  0.2379
11975TIP3    H157340   6.278   2.895  14.512 -0.4329 -1.6716 -0.1099
11975TIP3    H257341   6.231   2.981  14.627  1.5129  0.1489 -0.6295
11976TIP3   OH257342   3.739   0.663  16.277 -0.1503 -0.2454 -0.6660
11976TIP3    H157343   3.745   0.589  16.337 -0.7653  0.5189  0.3568
11976TIP3    H257344   3.651   0.698  16.290  0.5479  1.4257 -0.2163
11977TIP3   OH257345   6.440   5.370   4.261 -0.3485  0.6025 -0.3332
11977TIP3    H157346   6.365   5.381   4.319  0.5837  0.0638  0.9960
11977TIP3    H257347   6.515   5.357   4.320  0.4053 -1.2797 -1.6339
11978TIP3   OH257348   2.484   4.890  11.191 -0.5912  0.5733 -0.1746
11978TIP3    H157349   2.426   4.895  11.115 -0.3211  1.3694 -0.3336
11978TIP3    H257350   2.564   4.936  11.164  0.6046 -1.5467 -0.3807
11979TIP3   OH257351   5.438   6.551  10.688  0.0804  0.1867 -0.2998
11979TIP3    H157352   5.408   6.641  10.696  0.5109  0.2082  1.3390
11979TIP3    H257353   5.435   6.532  10.594 -0.4292  1.7518 -0.6058
11980TIP3   OH257354   0.280   2.104  11.945  0.1433 -0.2333  0.1509
11980TIP3    H157355   0.252   2.058  12.025 -0.5998 -0.6371 -0.3350
11980TIP3    H257356   0.326   2.182  11.977 -1.4518  0.3871  0.9764
11981TIP3   OH257357   4.673   0.326   4.727  0.2793 -0.2119 -0.2186
11981TIP3    H157358   4.617   0.399   4.700  0.3871  0.0642  0.3060
11981TIP3    H257359   4.633   0.292   4.806 -0.5829 -1.6474 -1.2476
11982TIP3   OH257360   0.956   1.363  13.695 -0.5165  0.4768  0.0548
11982TIP3    H157361   0.920   1.443  13.656 -0.2523  0.9140  0.7024
11982TIP3    H257362   1.023   1.335  13.633  0.5253  1.6632  0.6130
11983TIP3   OH257363   2.879   0.249  16.588  0.3700 -0.0471  0.5659
11983TIP3    H157364   2.808   0.256  16.524  0.8952  1.6968  0.1357
11983TIP3    H257365   2.878   0.158  16.616 -0.6248 -0.5556 -1.0771
11984TIP3   OH257366   5.619   1.675   5.988  0.3528 -0.4411 -0.0323
11984TIP3    H157367   5.612   1.756   6.039 -0.5287 -0.6240  0.1562
11984TIP3    H257368   5.697   1.631   6.023  0.8272  0.3158 -0.1279
11985TIP3   OH257369   4.438   3.797   2.541 -0.4910 -0.5542  0.0243
11985TIP3    H157370   4.459   3.877   2.493 -0.1324  0.1159  1.2782
11985TIP3    H257371   4.446   3.727   2.476  2.1784  0.0913 -0.3925
11986TIP3   OH257372   4.803   5.372   2.534 -0.2122 -0.3971  0.2050
11986TIP3    H157373   4.881   5.333   2.494  1.5303  1.7475  1.3904
11986TIP3    H257374   4.834   5.411   2.615 -2.2618  1.6732  0.0549
11987TIP3   OH257375   0.444   3.355   6.547 -0.1532  0.1698 -0.0171
11987TIP3    H157376   0.359   3.343   6.591 -0.2479 -0.3661 -0.3414
11987TIP3    H257377   0.469   3.267   6.520  0.5746  0.3089  0.1920
11988TIP3   OH257378   6.494   1.117  10.420 -0.0495  0.2489 -0.2916
11988TIP3    H157379   6.490   1.188  10.355  0.3012 -0.8654 -1.5530
11988TIP3    H257380   6.448   1.044  10.378 -2.1447  0.3381  1.8018
11989TIP3   OH257381   5.337   3.007   1.400 -0.3695  0.0261 -0.2103
11989TIP3    H157382   5.278   3.079   1.377  1.2888  1.7739  0.9019
11989TIP3    H257383   5.363   3.025   1.490  1.9473 -0.6291 -0.7161
11990TIP3   OH257384   5.011   1.602  15.084 -0.2683 -0.2408  0.0899
11990TIP3    H157385   5.099   1.609  15.120  0.6895 -2.1350 -1.7742
11990TIP3    H257386   4.991   1.690  15.052  0.8273  0.2659  0.7755
11991TIP3   OH257387   1.115   1.637  15.783  0.2572  0.4558 -0.7066
11991TIP3    H157388   1.155   1.724  15.791  0.5265  0.1409  1.6822
11991TIP3    H257389   1.188   1.579  15.760  0.6256  0.3809  0.6394
11992TIP3   OH257390   1.143   1.379  13.502  0.8006  0.2296 -0.0283
11992TIP3    H157391   1.203   1.453  13.510 -0.9787  1.8679 -1.4811
11992TIP3    H257392   1.093   1.397  13.422 -0.3548 -2.0271  0.1519
11993TIP3   OH257393   0.071   6.557   0.062 -0.1957 -0.2526 -0.1257
11993TIP3    H157394   0.021   6.639   0.057 -0.5266 -0.4217  0.4183
11993TIP3    H257395   0.094   6.538  -0.029 -3.1488 -1.4330 -0.6645
11994TIP3   OH257396   1.127   0.652  12.563  0.7407 -0.5475 -0.2827
11994TIP3    H157397   1.048   0.704  12.576  0.4207 -0.9019 -0.7831
11994TIP3    H257398   1.165   0.685  12.482  0.5589 -1.0526 -0.5802
11995TIP3   OH257399   2.111   6.283   1.787 -0.0943  0.4287 -0.6251
11995TIP3    H157400   2.056   6.208   1.764  0.5313 -0.3590  0.3944
11995TIP3    H257401   2.155   6.305   1.705 -0.9476  0.2511 -1.1447
11996TIP3   OH257402   2.282   4.840  11.399 -0.0822  0.2065 -0.5013
11996TIP3    H157403   2.229   4.873  11.327  0.8467 -3.4995 -3.0447
11996TIP3    H257404   2.371   4.869  11.378  0.2110 -0.9967 -0.9804
11997TIP3   OH257405   0.178   1.711   4.105 -0.2997 -0.3319  0.0676
11997TIP3    H157406   0.173   1.715   4.009 -1.4911 -0.7992  0.1156
11997TIP3    H257407   0.102   1.660   4.132  0.2162 -0.4940  1.2505
11998TIP3   OH257408   3.387   2.743  11.057 -0.0674 -0.5762 -1.2415
11998TIP3    H157409   3.431   2.813  11.009  2.1204 -0.8182  0.3119
11998TIP3    H257410   3.458   2.694  11.099 -1.7491 -1.7348  0.3621
11999TIP3   OH257411   1.904   2.160  12.790  0.5268 -0.2016  0.5384
11999TIP3    H157412   1.853   2.190  12.715  0.3027  0.8856  1.1107
11999TIP3    H257413   1.840   2.152  12.861  0.8556 -0.5240  0.8000
12000TIP3   OH257414   1.618   5.680   5.065 -0.4029  0.3808 -0.1642
12000TIP3    H157415   1.625   5.769   5.028  0.6889 -0.0312 -0.9693
12000TIP3    H257416   1.601   5.695   5.158  2.0349  1.4691  0.1489
12001TIP3   OH257417   3.543   3.571   4.865  0.1210 -0.0421 -0.2656
12001TIP3    H157418   3.611   3.587   4.799 -0.3639  1.0442 -0.5138
12001TIP3    H257419   3.591   3.537   4.941  0.9749  0.9062 -0.3644
12002TIP3   OH257420   2.649   2.396   2.724 -0.1607 -0.0630 -0.4590
12002TIP3    H157421   2.572   2.395   2.668  0.6620 -0.8703 -1.5995
12002TIP3    H257422   2.701   2.471   2.694 -1.4802  1.7952  1.7103
12003TIP3   OH257423   0.524   2.964  12.865  0.2449  0.3950  0.0384
12003TIP3    H157424   0.515   3.055  12.839 -2.0339 -0.2018 -1.3484
12003TIP3    H257425   0.451   2.948  12.925  0.8872 -0.3960  0.6277
12004TIP3   OH257426   3.709   3.361   0.889  0.4803 -0.3553 -0.2313
12004TIP3    H157427   3.747   3.274   0.903  0.1807 -0.4550 -0.0158
12004TIP3    H257428   3.687   3.392   0.977  0.1498 -0.2660 -0.3424
12005TIP3   OH257429   0.008   6.581   4.121 -0.0271  0.3896 -0.3732
12005TIP3    H157430  -0.029   6.573   4.209 -1.5619  0.6342 -0.9939
12005TIP3    H257431   0.001   6.674   4.101  1.0746  0.4661 -0.4437
12006TIP3   OH257432   3.414   2.090   0.227 -0.2780 -0.2034 -0.5680
12006TIP3    H157433   3.489   2.050   0.272  1.0357  0.7151 -1.8931
12006TIP3    H257434   3.368   2.016   0.188  0.0233 -0.7661  0.1333
12007TIP3   OH257435   5.045   1.932   0.850  0.3970 -0.2803 -0.1249
12007TIP3    H157436   5.042   2.009   0.793  2.2063  0.3578  0.5868
12007TIP3    H257437   5.132   1.894   0.834  0.7137 -0.4077  1.7886
12008TIP3   OH257438   5.632   5.095   2.524 -0.2510 -0.4550  0.6375
12008TIP3    H157439   5.701   5.100   2.458 -0.3986 -0.9172  0.4479
12008TIP3    H257440   5.672   5.049   2.598  0.1180  0.6431  1.1324
12009TIP3   OH257441   6.636   6.726   6.468 -0.7080  0.4281 -0.2363
12009TIP3    H157442   6.701   6.666   6.431  0.6088  0.0933  2.4716
12009TIP3    H257443   6.564   6.669   6.496  0.1732  0.1762  1.5667
12010TIP3   OH257444   2.974   3.283  12.974 -0.6007 -0.1391  0.2197
12010TIP3    H157445   2.910   3.352  12.957 -0.0704 -0.4050 -3.2622
12010TIP3    H257446   3.055   3.330  12.995 -0.6589  0.2981 -0.4954
12011TIP3   OH257447   2.800   2.744   6.413  0.8825 -0.0474 -0.2673
12011TIP3    H157448   2.779   2.819   6.357 -1.5311 -0.3514  0.1736
12011TIP3    H257449   2.758   2.765   6.497  1.1896 -1.3558  0.2135
12012TIP3   OH257450   4.588   3.418  14.095  0.4013  0.2399 -0.0517
12012TIP3    H157451   4.619   3.444  14.182 -0.3976  0.0371  0.3018
12012TIP3    H257452   4.516   3.480  14.077  0.1434 -0.1291 -0.2862
12013TIP3   OH257453   4.276   0.451   4.121  0.2128  0.1580 -0.0571
12013TIP3    H157454   4.232   0.399   4.054  0.5763  0.2857 -0.3944
12013TIP3    H257455   4.209   0.467   4.188 -0.4448  0.9379 -0.8923
12014TIP3   OH257456   4.563   0.772  12.478  0.6255  0.4949  0.1105
12014TIP3    H157457   4.625   0.842  12.497  1.4567 -0.0376 -0.5802
12014TIP3    H257458   4.552   0.726  12.561  2.0808 -0.1307 -0.0356
12015TIP3   OH257459   5.842   5.257  14.517 -0.2574  0.3254  0.4012
12015TIP3    H157460   5.757   5.223  14.491  0.6175 -0.6283 -1.3296
12015TIP3    H257461   5.852   5.233  14.609 -2.5099  1.8264  1.0678
12016TIP3   OH257462   3.521   6.155   5.427 -0.1612 -0.2556 -0.2038
12016TIP3    H157463   3.503   6.071   5.469 -0.8361 -0.4238 -0.8231
12016TIP3    H257464   3.476   6.219   5.482  1.8849 -0.0832  1.3181
12017TIP3   OH257465   4.462   3.344  13.573  0.2725  0.6485 -0.1284
12017TIP3    H157466   4.449   3.347  13.667  2.3548  3.3988  0.1261
12017TIP3    H257467   4.375   3.358  13.536 -0.2065  1.8821  1.4063
12018TIP3   OH257468   0.456   0.734   1.114 -0.4744 -0.5247 -0.3034
12018TIP3    H157469   0.420   0.749   1.026 -0.8853 -1.5034 -0.3037
12018TIP3    H257470   0.416   0.803   1.168 -0.7203 -0.3149 -0.7467
12019TIP3   OH257471   1.142   1.105   4.446  0.1219  0.1107  0.1437
12019TIP3    H157472   1.170   1.193   4.473  1.8349 -1.0227  2.1631
12019TIP3    H257473   1.207   1.079   4.381 -0.4484  0.3657 -0.5338
12020TIP3   OH257474   4.399   2.668   3.588 -0.3098 -0.2657 -0.3903
12020TIP3    H157475   4.468   2.732   3.568 -0.0029 -0.9455 -1.5543
12020TIP3    H257476   4.334   2.718   3.638  0.1202  0.8513 -0.9151
12021TIP3   OH257477   4.064   0.443   3.930 -0.0523 -0.1635  0.3465
12021TIP3    H157478   4.014   0.479   3.857  0.3174 -0.2592  0.0448
12021TIP3    H257479   3.998   0.410   3.991 -0.3468 -0.5815 -0.2023
12022TIP3   OH257480   6.757   2.306  11.324  0.7446 -0.6376 -0.3496
12022TIP3    H157481   6.772   2.364  11.399  1.7349 -1.7313  0.3040
12022TIP3    H257482   6.704   2.234  11.359 -1.7158  0.5374 -1.4747
12023TIP3   OH257483   6.419   3.262   4.567 -0.0299  0.0386 -0.3710
12023TIP3    H157484   6.411   3.310   4.650 -0.5001  0.0439 -0.4227
12023TIP3    H257485   6.506   3.286   4.535  0.3898 -0.4081  0.4037
12024TIP3   OH257486   0.267   3.273   5.493  0.1193  0.4769 -0.5831
12024TIP3    H157487   0.173   3.282   5.509  0.3928  0.7928  0.9484
12024TIP3    H257488   0.300   3.362   5.495  0.1474  0.5461 -3.2183
12025TIP3   OH257489   5.501   2.139  15.545 -0.0902 -0.4271 -0.5575
12025TIP3    H157490   5.442   2.088  15.601 -0.6575 -0.4052 -1.1320
12025TIP3    H257491   5.561   2.075  15.509 -0.2585 -0.5628 -0.5961
12026TIP3   OH257492   1.982   4.970  13.246 -0.4204  0.1174  0.2935
12026TIP3    H157493   1.990   5.063  13.267  0.4202 -0.0483  0.7373
12026TIP3    H257494   2.070   4.944  13.218 -0.0646 -1.0750  2.3671
12027TIP3   OH257495   2.283   4.091   1.501 -0.5679 -0.2214 -0.3550
12027TIP3    H157496   2.321   4.091   1.413 -1.4374 -2.2385 -0.7602
12027TIP3    H257497   2.207   4.148   1.494  0.7204  1.5606 -0.2621
12028TIP3   OH257498   2.801   3.890   2.919 -0.1707 -0.4691 -0.0659
12028TIP3    H157499   2.821   3.867   2.828 -1.7994 -0.6494 -0.4020
12028TIP3    H257500   2.822   3.810   2.969  1.4010 -0.1329 -0.1731
12029TIP3   OH257501   0.006   0.817   1.218 -0.3946 -0.0253  0.3257
12029TIP3    H157502  -0.075   0.780   1.255 -0.7336  1.8920  1.5801
12029TIP3    H257503   0.049   0.860   1.293  1.7776 -1.0002 -0.3394
12030TIP3   OH257504   1.971   5.461  15.641  0.1982  0.2573 -0.2302
12030TIP3    H157505   1.965   5.551  15.610  0.2038  0.3618  0.0735
12030TIP3    H257506   2.030   5.418  15.579 -0.4510  0.2543 -0.8515
12031TIP3   OH257507   0.325   2.553  16.829 -0.8911 -0.6105  0.3075
12031TIP3    H157508   0.262   2.624  16.814 -1.0105 -0.7159  0.3121
12031TIP3    H257509   0.385   2.589  16.895 -0.9987 -0.5453  0.3698
12032TIP3   OH257510   1.168   1.337   2.503 -0.6920 -0.5792 -0.1647
12032TIP3    H157511   1.080   1.300   2.511 -0.4666 -1.2461 -0.7135
12032TIP3    H257512   1.185   1.336   2.409 -0.6275  0.8121 -0.1847
12033TIP3   OH257513   5.019   5.194  16.900  0.3435  0.0907 -0.6146
12033TIP3    H157514   5.105   5.162  16.874 -0.4271  0.6886 -4.0789
12033TIP3    H257515   4.964   5.181  16.823 -2.2282  1.3570  0.9539
12034TIP3   OH257516   3.729   0.987  13.242 -0.0168  0.3184 -0.0744
12034TIP3    H157517   3.654   0.929  13.260  0.3941 -1.2902 -3.1740
12034TIP3    H257518   3.802   0.946  13.288 -0.7764  1.2903  2.0561
12035TIP3   OH257519   4.153   1.464   1.020 -1.0505  0.0741 -0.3993
12035TIP3    H157520   4.234   1.414   1.034 -0.3221  1.4515  0.3772
12035TIP3    H257521   4.087   1.416   1.070 -0.1922  0.3072  0.9917
12036TIP3   OH257522   5.129   6.773  16.400 -0.5972 -0.4059  0.1043
12036TIP3    H157523   5.144   6.862  16.366 -3.6557  0.9755  2.2194
12036TIP3    H257524   5.199   6.761  16.464  0.0305  0.3337 -0.4208
12037TIP3   OH257525   0.031   3.691   1.236  0.5241 -0.2568  0.0265
12037TIP3    H157526  -0.047   3.745   1.246  0.8101  0.5097 -1.7236
12037TIP3    H257527   0.073   3.692   1.323 -1.3667 -0.6379  0.9603
12038TIP3   OH257528   4.058   4.518   1.600  0.2037 -0.0214  0.4168
12038TIP3    H157529   3.993   4.576   1.640  0.3536  0.7349 -0.4315
12038TIP3    H257530   4.104   4.573   1.537  0.6641 -0.9456 -0.0624
12039TIP3   OH257531   6.241   0.813   3.120 -0.3739 -0.1719  0.1887
12039TIP3    H157532   6.323   0.848   3.156  0.9154 -0.6831 -2.1695
12039TIP3    H257533   6.186   0.890   3.109  0.8660  0.5811 -0.9201
12040TIP3   OH257534   0.884   0.810  15.505  0.5658 -0.0960  0.3775
12040TIP3    H157535   0.944   0.884  15.496 -0.8635  0.7831 -2.3906
12040TIP3    H257536   0.808   0.845  15.549  0.2964 -0.1527 -0.0399
12041TIP3   OH257537   5.225   3.986  16.558  0.1598  0.3289  0.1502
12041TIP3    H157538   5.194   3.950  16.641  0.1761  0.7371  0.3329
12041TIP3    H257539   5.300   3.930  16.534 -0.7460 -0.6920 -0.3327
12042TIP3   OH257540   6.323   3.108  15.872 -0.1797  0.1412  1.0727
12042TIP3    H157541   6.415   3.118  15.848 -0.5945  1.5785  0.0629
12042TIP3    H257542   6.292   3.197  15.887 -1.6391 -0.2650  0.5616
12043TIP3   OH257543   0.896   5.784  11.704  0.3920 -0.0465  0.1703
12043TIP3    H157544   0.884   5.724  11.631 -1.8467 -0.9669  1.2339
12043TIP3    H257545   0.938   5.733  11.772 -1.4260 -0.4398  1.0410
12044TIP3   OH257546   0.487   4.745  10.967  0.1141 -0.2161 -0.1194
12044TIP3    H157547   0.478   4.821  10.910  1.6041 -0.8610 -1.2539
12044TIP3    H257548   0.432   4.678  10.928  0.8989 -0.5605 -0.6599
12045TIP3   OH257549   3.626   6.758   2.222  0.0606  0.0037  0.0071
12045TIP3    H157550   3.704   6.796   2.262  0.9441 -1.8421  0.0800
12045TIP3    H257551   3.579   6.833   2.186  2.5285  1.0115 -1.2402
12046TIP3   OH257552   3.200   0.581  16.358 -0.7347  0.0733  0.1231
12046TIP3    H157553   3.191   0.603  16.265  0.1371  0.3734  0.1048
12046TIP3    H257554   3.135   0.512  16.372  0.1080 -0.9898 -1.0459
12047TIP3   OH257555   0.546   1.950  11.700 -0.4532 -0.5523 -0.4626
12047TIP3    H157556   0.621   1.938  11.641 -1.7974  0.5699 -2.4578
12047TIP3    H257557   0.512   1.862  11.714  2.8800 -1.4590  2.7792
12048TIP3   OH257558   1.509   3.655  13.529  0.5071  0.1844 -0.6832
12048TIP3    H157559   1.511   3.746  13.556 -0.8327  0.2663 -0.8212
12048TIP3    H257560   1.435   3.617  13.576  0.8423 -0.7486 -0.8814
12049TIP3   OH257561   5.633   4.204  11.510 -0.2442 -0.1379  0.4248
12049TIP3    H157562   5.542   4.193  11.538 -0.4895 -0.7088 -0.5883
12049TIP3    H257563   5.654   4.122  11.465  0.7243  0.0533  0.5276
12050TIP3   OH257564   5.223   5.651  13.418  0.2314  0.5656  0.3843
12050TIP3    H157565   5.250   5.638  13.509 -0.4241  2.0538  0.8095
12050TIP3    H257566   5.300   5.625  13.367  1.0888  0.9702  1.4286
12051TIP3   OH257567   3.368   0.643  12.828  0.1871  0.3870 -0.0685
12051TIP3    H157568   3.387   0.636  12.922  0.2800 -0.2049 -0.1257
12051TIP3    H257569   3.274   0.659  12.823 -0.2394 -1.9086  0.0598
12052TIP3   OH257570   4.962   0.654   4.121 -0.1789  0.5088 -0.0688
12052TIP3    H157571   4.949   0.731   4.178 -0.0587  2.2244 -2.2869
12052TIP3    H257572   4.874   0.619   4.109 -0.1942  0.0405  1.2650
12053TIP3   OH257573   6.361   2.984   2.351  0.1133  0.2720 -0.1434
12053TIP3    H157574   6.449   2.984   2.313 -0.1476  1.7348 -0.8003
12053TIP3    H257575   6.305   3.017   2.280 -0.6100  1.5501  0.9978
12054TIP3   OH257576   5.745   0.802  15.186 -0.5215 -0.4708  0.2840
12054TIP3    H157577   5.683   0.770  15.121 -1.0768 -1.1286  1.1401
12054TIP3    H257578   5.825   0.821  15.136 -0.5664 -2.0718 -0.4077
12055TIP3   OH257579   5.608   5.518   2.382  0.2684 -0.0805 -0.8020
12055TIP3    H157580   5.660   5.598   2.377  0.1088  0.0659 -0.2344
12055TIP3    H257581   5.520   5.548   2.407  1.0340 -0.6887  3.0796
12056TIP3   OH257582   5.439   5.306  15.355  0.5977  0.1770 -0.0628
12056TIP3    H157583   5.425   5.272  15.266  1.5409 -2.1068  0.6428
12056TIP3    H257584   5.531   5.290  15.373  0.6701  1.6148  0.9556
12057TIP3   OH257585   3.429   1.269  11.607 -0.2942  0.3315 -0.2292
12057TIP3    H157586   3.354   1.231  11.653  0.4849 -0.5679  0.3211
12057TIP3    H257587   3.477   1.317  11.674  0.0515  0.2406 -0.4096
12058TIP3   OH257588   1.221   5.629   0.632  0.0282 -0.0697  0.1677
12058TIP3    H157589   1.143   5.587   0.595 -0.4644 -0.3305  1.4753
12058TIP3    H257590   1.196   5.721   0.641  0.4386  0.1530 -0.9084
12059TIP3   OH257591   5.506   0.340  16.297  0.4934 -0.9331 -0.5314
12059TIP3    H157592   5.552   0.404  16.352  2.6495 -4.4366  1.9994
12059TIP3    H257593   5.567   0.319  16.227 -0.1929 -0.2998 -1.3325
12060TIP3   OH257594   1.091   6.316   4.460  0.4676 -0.0657  0.1031
12060TIP3    H157595   1.149   6.252   4.501 -1.1812 -1.8852 -0.2982
12060TIP3    H257596   1.069   6.377   4.530  0.9565 -0.7601  0.8631
12061TIP3   OH257597   2.679   0.949  14.186 -0.6511  0.0014  0.0174
12061TIP3    H157598   2.617   0.970  14.256  0.4250  0.5137  0.8337
12061TIP3    H257599   2.692   1.031  14.139 -0.2709 -0.0034  0.1110
12062TIP3   OH257600   2.695   2.475   3.999  0.0452  0.0549  0.0704
12062TIP3    H157601   2.680   2.396   3.947  1.0275 -1.0155  1.3815
12062TIP3    H257602   2.721   2.541   3.934 -1.1304 -0.5809 -1.0752
12063TIP3   OH257603   5.831   5.306  11.449 -0.3702  0.1798  0.5306
12063TIP3    H157604   5.878   5.244  11.504  1.3511  1.0949  0.1237
12063TIP3    H257605   5.766   5.253  11.403  1.3496 -1.4067 -0.1238
12064TIP3   OH257606   5.121   0.398  16.521  0.6079 -0.0610  0.5546
12064TIP3    H157607   5.170   0.477  16.499  1.6235 -0.5633  0.9731
12064TIP3    H257608   5.178   0.326  16.492  0.6433 -0.6714  2.1172
12065TIP3   OH257609   4.169   4.680   1.938  0.5989 -0.0917 -0.0541
12065TIP3    H157610   4.186   4.699   2.030 -1.0057  1.3047 -0.0301
12065TIP3    H257611   4.074   4.675   1.931  0.6253  1.6165 -1.9728
12066TIP3   OH257612   3.488   2.983   2.615  0.2835  0.0149  0.3920
12066TIP3    H157613   3.498   2.907   2.672 -1.4031 -0.2429  0.3578
12066TIP3    H257614   3.394   2.990   2.600  0.4850  1.6687 -0.2036
12067TIP3   OH257615   0.036   2.557   1.012  0.2921  0.0703 -0.6224
12067TIP3    H157616   0.070   2.578   1.099 -1.2131  0.7053 -0.1659
12067TIP3    H257617   0.022   2.642   0.970 -0.6274 -0.1736 -0.8314
12068TIP3   OH257618   5.494   2.559  12.187  0.4313 -0.5944 -0.1675
12068TIP3    H157619   5.566   2.500  12.210  1.2498 -0.1237 -1.4586
12068TIP3    H257620   5.496   2.626  12.256  1.3544 -0.4927 -0.2773
12069TIP3   OH257621   2.014   0.434   2.969 -0.2769  0.1778 -0.2869
12069TIP3    H157622   2.005   0.497   3.041  3.6861  0.5496  0.0128
12069TIP3    H257623   1.943   0.456   2.909  1.5149  5.7495 -0.7357
12070TIP3   OH257624   5.537   6.772   0.572  0.2538  0.1068 -0.3604
12070TIP3    H157625   5.532   6.801   0.663  1.1281 -0.2605 -0.1940
12070TIP3    H257626   5.623   6.802   0.542 -0.0501  0.2756 -1.0825
12071TIP3   OH257627   3.463   6.583  12.212  0.2120  0.6668  0.0030
12071TIP3    H157628   3.528   6.526  12.253  1.2462  1.9167  0.1318
12071TIP3    H257629   3.469   6.562  12.119 -0.7389 -0.7554  0.2420
12072TIP3   OH257630   4.483   3.150  15.649  0.0655 -0.7370  0.1540
12072TIP3    H157631   4.402   3.102  15.662 -0.9388  0.4590 -1.5403
12072TIP3    H257632   4.463   3.239  15.677  1.0276 -0.5936  0.4251
12073TIP3   OH257633   3.236   3.233   0.761 -0.0170 -0.3762  0.2491
12073TIP3    H157634   3.280   3.148   0.767 -0.2052 -0.4241  1.0063
12073TIP3    H257635   3.289   3.284   0.700  1.4896 -0.1897  1.6893
12074TIP3   OH257636   0.396   0.278   2.354  0.2078  0.3068 -0.2421
12074TIP3    H157637   0.427   0.321   2.274 -0.0133  1.0922  0.0845
12074TIP3    H257638   0.477   0.256   2.401  0.3110  0.9527 -0.1127
12075TIP3   OH257639   3.580   5.404   3.417 -0.1165 -0.1865 -0.3161
12075TIP3    H157640   3.639   5.436   3.486 -2.2061  0.8758  1.0160
12075TIP3    H257641   3.520   5.476   3.400 -1.4441 -1.4613 -1.1926
12076TIP3   OH257642   1.070   1.594   3.361 -0.6669  0.7645 -0.1326
12076TIP3    H157643   1.148   1.597   3.305 -1.1426  1.9760 -0.7547
12076TIP3    H257644   1.097   1.634   3.443 -0.2139 -0.1951  0.1857
12077TIP3   OH257645   2.872   3.964   3.300  0.1209 -0.4317 -0.1096
12077TIP3    H157646   2.918   4.034   3.254 -0.3631  0.2755  0.4564
12077TIP3    H257647   2.791   3.952   3.252 -0.6675  0.7348  0.8802
12078TIP3   OH257648   0.098   4.532  12.070 -0.3684 -0.4603  0.4781
12078TIP3    H157649   0.180   4.572  12.043 -0.0787 -1.5059 -0.2132
12078TIP3    H257650   0.037   4.605  12.080  0.1214  0.1361 -0.8603
12079TIP3   OH257651   1.773   0.190   0.341  0.0255 -0.1081  0.5045
12079TIP3    H157652   1.683   0.198   0.374  0.8302  2.5580  2.2489
12079TIP3    H257653   1.765   0.200   0.247 -1.3457  2.0315  0.8093
12080TIP3   OH257654   6.479   0.930   3.221  0.4467 -0.4392  0.1367
12080TIP3    H157655   6.552   0.973   3.176  0.2297 -1.5941 -1.3680
12080TIP3    H257656   6.484   0.962   3.311  0.1347  2.8880 -0.9827
12081TIP3   OH257657   5.444   4.283   6.313 -0.4817  0.4239 -0.3922
12081TIP3    H157658   5.454   4.378   6.308  1.1915  0.2260 -0.9270
12081TIP3    H257659   5.503   4.256   6.384 -1.4958 -0.1452  0.2533
12082TIP3   OH257660   1.322   1.070  12.283 -0.8927  0.2715  0.2225
12082TIP3    H157661   1.245   1.034  12.326 -0.2907 -0.7095  0.5102
12082TIP3    H257662   1.391   1.005  12.299  0.2559  1.5850  0.8563
12083TIP3   OH257663   0.771   1.806  13.135  0.1435  0.2959  0.2090
12083TIP3    H157664   0.691   1.754  13.146 -0.2546  0.9299  0.2803
12083TIP3    H257665   0.828   1.751  13.081 -0.1648 -0.3464  0.5300
12084TIP3   OH257666   5.794   0.944  17.036  0.1061 -0.2884  0.6546
12084TIP3    H157667   5.832   0.916  17.119  2.5087  0.0352 -0.3073
12084TIP3    H257668   5.832   1.031  17.021 -1.3766  0.2366 -0.1209
12085TIP3   OH257669   6.119   1.741   5.236 -0.8682 -0.1269  0.2469
12085TIP3    H157670   6.060   1.812   5.209  0.5004  1.1884  0.6779
12085TIP3    H257671   6.155   1.769   5.319  2.5566  0.4429 -1.3373
12086TIP3   OH257672   3.649   4.839  11.112  0.4595 -0.0074 -0.1869
12086TIP3    H157673   3.583   4.821  11.178 -0.0281 -0.4325 -0.7847
12086TIP3    H257674   3.620   4.920  11.070  0.7675  0.2609  0.1119
12087TIP3   OH257675   1.740   4.706   1.050  0.0818  0.1731  0.3788
12087TIP3    H157676   1.826   4.722   1.089 -0.0070  1.9145 -0.0771
12087TIP3    H257677   1.757   4.646   0.978  0.9941  0.7950  0.0571
12088TIP3   OH257678   6.223   0.240  14.679 -0.1254 -0.2056  0.7254
12088TIP3    H157679   6.259   0.229  14.766  0.4097 -1.4070  0.3609
12088TIP3    H257680   6.296   0.222  14.620 -1.0390 -1.5782 -0.0008
12089TIP3   OH257681   1.892   4.891   0.867  0.5570  0.9096  0.1708
12089TIP3    H157682   1.797   4.889   0.862  0.4851 -3.6388  0.7751
12089TIP3    H257683   1.920   4.947   0.795 -2.4710 -0.0657 -1.8220
12090TIP3   OH257684   2.761   4.858   5.686  0.3716 -0.1933  0.4842
12090TIP3    H157685   2.778   4.821   5.599  0.3473  0.1744  0.3220
12090TIP3    H257686   2.820   4.810   5.744  0.0897 -0.7315  0.3323
12091TIP3   OH257687   1.946   4.213  16.178 -0.1448  0.0599 -0.1539
12091TIP3    H157688   1.960   4.161  16.099  1.6553 -0.1543  0.2897
12091TIP3    H257689   1.936   4.149  16.248  0.5816  0.2669  0.1485
12092TIP3   OH257690   2.348   0.449  15.698  0.3871 -0.2602  0.5238
12092TIP3    H157691   2.289   0.413  15.764 -0.1072  0.3991  0.4442
12092TIP3    H257692   2.414   0.497  15.749  0.4487 -0.3996  0.5756
12093TIP3   OH257693   2.510   1.383  14.730 -0.6509 -0.7738  0.3249
12093TIP3    H157694   2.509   1.459  14.789  0.5462 -0.5308  0.0465
12093TIP3    H257695   2.534   1.309  14.786 -0.9805 -0.8043  0.4283
12094TIP3   OH257696   2.300   0.361   1.284  0.0512 -0.3908  0.2175
12094TIP3    H157697   2.310   0.267   1.270  1.1421 -0.0284 -1.7531
12094TIP3    H257698   2.235   0.388   1.219  0.6288  0.3996 -0.0414
12095TIP3   OH257699   6.130   3.954  15.288 -0.2811 -0.5182  0.2039
12095TIP3    H157700   6.226   3.963  15.289 -0.2465 -0.8685  0.1169
12095TIP3    H257701   6.112   3.883  15.350 -0.4963 -0.3231  0.3596
12096TIP3   OH257702   1.386   3.235  13.070  0.4017  0.0833 -0.1220
12096TIP3    H157703   1.313   3.190  13.111  0.0834  0.4403 -0.2873
12096TIP3    H257704   1.356   3.326  13.062  0.1271 -0.1517 -1.9024
12097TIP3   OH257705   4.615   5.773  14.239  0.2565  0.3046  0.6177
12097TIP3    H157706   4.578   5.695  14.280 -0.8357  0.4239 -0.1254
12097TIP3    H257707   4.556   5.844  14.262 -1.6208 -0.0043 -2.9001
12098TIP3   OH257708   5.817   0.474  13.451  0.3126  0.6086  0.2335
12098TIP3    H157709   5.887   0.419  13.484 -0.9934 -1.2809 -0.0756
12098TIP3    H257710   5.828   0.474  13.356  1.0734  1.9758  0.2953
12099TIP3   OH257711   0.219   6.589   0.602  0.1209 -0.5677 -0.3546
12099TIP3    H157712   0.139   6.605   0.653 -0.4922  0.3449 -1.5713
12099TIP3    H257713   0.208   6.500   0.568 -0.4944 -0.3412 -0.7421
12100TIP3   OH257714   3.258   3.514  11.446 -0.4255 -0.4881  0.4657
12100TIP3    H157715   3.283   3.424  11.467 -2.4159 -1.1105  0.3195
12100TIP3    H257716   3.333   3.550  11.399 -0.3627 -2.7241 -1.2078
12101TIP3   OH257717   1.957   3.913  13.220  0.4513  0.1967 -0.0707
12101TIP3    H157718   1.987   3.842  13.164  0.7087 -0.4867  0.9230
12101TIP3    H257719   1.899   3.871  13.283  1.0174  0.7687  0.8521
12102TIP3   OH257720   6.528   3.460  13.918 -0.1489  0.3944  0.1456
12102TIP3    H157721   6.455   3.515  13.890  0.3054  1.0773  0.2881
12102TIP3    H257722   6.598   3.479  13.855 -0.3274 -0.8159 -0.4433
12103TIP3   OH257723   1.126   2.143  15.498  0.5439  0.6447  0.4510
12103TIP3    H157724   1.124   2.195  15.417 -0.2700  0.6635  0.4757
12103TIP3    H257725   1.060   2.075  15.483  0.7559  0.3453  0.8989
12104TIP3   OH257726   2.677   2.973   3.078 -0.1147  0.2752  0.0597
12104TIP3    H157727   2.617   3.024   3.024  0.7890  0.4182 -0.8225
12104TIP3    H257728   2.632   2.964   3.162 -1.0821  0.9312 -0.3814
12105TIP3   OH257729   3.131   2.674  15.747 -0.8608  0.1569 -0.3354
12105TIP3    H157730   3.150   2.629  15.664 -0.2305 -0.8247  0.3182
12105TIP3    H257731   3.067   2.617  15.790 -3.3671  2.1188 -1.3730
12106TIP3   OH257732   2.622   6.781  17.127  0.3885 -0.2307  0.2953
12106TIP3    H157733   2.562   6.758  17.056 -0.1978 -0.5480  0.8881
12106TIP3    H257734   2.647   6.872  17.108  2.2253 -1.1239 -1.7023
12107TIP3   OH257735   6.780   2.195  14.651  0.7264 -0.1563 -0.1675
12107TIP3    H157736   6.811   2.143  14.725  1.8118  1.0773  0.2742
12107TIP3    H257737   6.860   2.235  14.615  0.2005 -0.6656 -1.9552
12108TIP3   OH257738   6.781   3.794  11.905  0.0770  0.7356 -0.8307
12108TIP3    H157739   6.835   3.873  11.899 -1.0736  1.5016 -1.4284
12108TIP3    H257740   6.834   3.732  11.954  1.3180  1.6201 -1.0338
12109TIP3   OH257741   2.260   0.596   2.556  0.2406  0.3323  0.4738
12109TIP3    H157742   2.172   0.559   2.565  0.4123 -0.7035 -1.7334
12109TIP3    H257743   2.254   0.652   2.479  1.4799  0.3966  0.4229
12110TIP3   OH257744   3.113   3.123   3.508  0.0777  0.6088 -0.2794
12110TIP3    H157745   3.171   3.070   3.454  0.0204  1.1727 -0.9140
12110TIP3    H257746   3.101   3.073   3.588  0.3035 -0.1626 -0.7272
12111TIP3   OH257747   3.776   1.668  12.766  0.3920  0.3804  0.1598
12111TIP3    H157748   3.751   1.721  12.841  1.6371 -0.7932  1.4274
12111TIP3    H257749   3.864   1.698  12.743  1.6164 -1.9092  1.6540
12112TIP3   OH257750   3.043   0.909  15.524 -0.1412  0.6414 -0.2803
12112TIP3    H157751   3.070   0.988  15.477 -1.5859  1.3110 -0.0143
12112TIP3    H257752   2.982   0.941  15.591 -0.6814 -0.6914 -0.1285
12113TIP3   OH257753   4.168   1.752   1.474 -0.1109  0.3988  0.0449
12113TIP3    H157754   4.198   1.705   1.552 -0.9435 -0.4335 -0.1413
12113TIP3    H257755   4.132   1.834   1.508 -2.4994 -0.9233  0.7315
12114TIP3   OH257756   4.893   6.672  15.117  0.3540  0.3090 -0.1353
12114TIP3    H157757   4.828   6.687  15.186 -0.5212  0.3941 -0.9532
12114TIP3    H257758   4.875   6.583  15.087  1.2797 -0.0305  0.3142
12115TIP3   OH257759   1.000   3.204   5.320 -0.5328  0.2968 -0.1268
12115TIP3    H157760   0.919   3.254   5.317 -1.5229 -1.2184  0.5611
12115TIP3    H257761   1.002   3.156   5.238 -0.7497 -0.2854  0.2034
12116TIP3   OH257762   0.092   4.058   2.638 -0.0110  0.0768  0.5945
12116TIP3    H157763   0.067   4.111   2.714  0.6001 -1.0445  1.5991
12116TIP3    H257764   0.127   4.121   2.575  1.0296  0.8373  1.9079
12117TIP3   OH257765   2.448   6.619   3.352  0.6723 -0.3130  0.2800
12117TIP3    H157766   2.495   6.686   3.301 -0.4618  0.4094  0.1663
12117TIP3    H257767   2.500   6.611   3.432  1.5652 -0.2706 -0.2786
12118TIP3   OH257768   0.795   0.022   2.474 -0.1222  0.0171 -0.3866
12118TIP3    H157769   0.857   0.051   2.407  0.9373  1.4170  1.1652
12118TIP3    H257770   0.759  -0.060   2.440  1.9828 -0.3944 -1.6930
12119TIP3   OH257771   5.819   2.728  12.382  0.3893  0.4444 -0.4468
12119TIP3    H157772   5.853   2.814  12.410  0.0661  1.3308 -2.6514
12119TIP3    H257773   5.834   2.727  12.288 -0.5684 -1.5196 -0.5876
12120TIP3   OH257774   0.209   0.084   0.110 -0.2273 -0.1776  0.4781
12120TIP3    H157775   0.231   0.022   0.041  0.2408  1.1407 -0.5815
12120TIP3    H257776   0.113   0.085   0.112 -0.2452 -2.3871  1.8568
12121TIP3   OH257777   5.654   3.552  12.712 -0.2324 -0.4386  0.7596
12121TIP3    H157778   5.749   3.551  12.720 -0.4230 -0.4449  3.2489
12121TIP3    H257779   5.627   3.636  12.747 -1.1682 -0.5149  0.2398
12122TIP3   OH257780   0.174   2.461   0.041 -0.1243 -0.7659  0.5705
12122TIP3    H157781   0.154   2.375   0.078  0.1362 -0.7459  0.7553
12122TIP3    H257782   0.093   2.511   0.054 -0.6825 -1.3433 -0.6047
12123TIP3   OH257783   5.602   3.823  13.812 -0.5253 -0.0590 -0.5200
12123TIP3    H157784   5.609   3.738  13.769 -0.8933 -0.9545  1.1349
12123TIP3    H257785   5.617   3.804  13.905  1.2034  1.9609 -0.3515
12124TIP3   OH257786   2.421   5.348   3.719  0.2992 -0.7443  0.0606
12124TIP3    H157787   2.338   5.356   3.672 -0.5921 -3.2124  1.1661
12124TIP3    H257788   2.424   5.424   3.777 -1.0569 -0.5248 -0.1571
12125TIP3   OH257789   0.072   2.493  16.398  0.2724  0.2445  0.2627
12125TIP3    H157790   0.025   2.462  16.475 -1.0569  1.6068  0.0448
12125TIP3    H257791   0.011   2.478  16.325  1.8922 -1.9298 -0.6976
12126TIP3   OH257792   6.141   5.012  14.583 -0.1767 -0.7489  0.4456
12126TIP3    H157793   6.061   4.973  14.619 -0.4534  0.3028  1.0003
12126TIP3    H257794   6.110   5.076  14.519  0.2808 -1.6302 -0.6658
12127TIP3   OH257795   5.712   3.120   6.196 -0.0198  0.1900  0.7009
12127TIP3    H157796   5.653   3.052   6.163 -0.5403  0.0885  1.8209
12127TIP3    H257797   5.768   3.074   6.260  0.8163  0.4299  0.1461
12128TIP3   OH257798   5.025   3.028  12.211 -0.3385  0.1273  0.3604
12128TIP3    H157799   5.016   2.962  12.280  0.6596 -0.4496 -0.0486
12128TIP3    H257800   5.119   3.039  12.200 -0.4878  2.5753  1.2972
12129TIP3   OH257801   4.882   3.998   2.835 -0.2482  0.5564 -0.4597
12129TIP3    H157802   4.826   4.064   2.795 -0.1614 -0.7957 -2.9265
12129TIP3    H257803   4.970   4.021   2.807 -0.0778  0.1069 -0.3097
12130TIP3   OH257804   0.578   5.716  15.287 -0.1559 -0.7960 -0.1164
12130TIP3    H157805   0.578   5.708  15.383 -2.1477 -2.2865 -0.2063
12130TIP3    H257806   0.667   5.744  15.266 -0.3040  1.7820  2.3307
12131TIP3   OH257807   1.326   3.933   4.932 -0.0267 -0.2313 -0.4928
12131TIP3    H157808   1.297   3.877   5.004  0.4817  0.2231  0.0727
12131TIP3    H257809   1.398   3.884   4.892  0.3800 -0.0145 -0.0351
12132TIP3   OH257810   4.882   4.948   0.560 -0.0188  0.4231 -0.2931
12132TIP3    H157811   4.839   5.018   0.511 -0.9504 -0.4208 -0.7049
12132TIP3    H257812   4.939   4.993   0.621 -0.9184  1.5581 -0.2711
12133TIP3   OH257813   3.531   3.791  16.958 -0.2730 -0.6390  0.1249
12133TIP3    H157814   3.522   3.712  17.011 -1.7588 -0.5032  0.0953
12133TIP3    H257815   3.457   3.787  16.897  0.7980 -0.2576 -1.2356
12134TIP3   OH257816   6.688   0.054   1.303  0.6238 -0.3733  0.4975
12134TIP3    H157817   6.741  -0.006   1.356  1.0960  0.5855  1.1405
12134TIP3    H257818   6.652   0.116   1.366  0.7663  0.4734 -0.2406
12135TIP3   OH257819   1.259   4.231   4.103 -0.1156 -0.0085  0.0265
12135TIP3    H157820   1.237   4.309   4.052  0.8688  1.7327  2.2112
12135TIP3    H257821   1.352   4.218   4.088 -0.2123 -0.5919 -0.0837
12136TIP3   OH257822   6.743   5.591  12.705 -0.0800  0.0045  0.3682
12136TIP3    H157823   6.803   5.620  12.637 -0.6090  0.4631  0.0895
12136TIP3    H257824   6.760   5.650  12.779  0.0876 -0.1194  0.4274
12137TIP3   OH257825   1.813   2.926  11.817  0.6649  0.0126  0.4342
12137TIP3    H157826   1.752   2.883  11.876 -0.5544  1.0452 -0.0511
12137TIP3    H257827   1.828   2.863  11.746 -0.5390  0.1025  0.0972
12138TIP3   OH257828   4.489   1.005   3.204  0.0677  0.1442  0.5494
12138TIP3    H157829   4.567   0.975   3.158  0.1029 -0.9155  1.2831
12138TIP3    H257830   4.515   1.089   3.243  0.8601 -0.2314  0.8436
12139TIP3   OH257831   1.073   4.953   3.561  0.2621 -0.5361 -0.2052
12139TIP3    H157832   1.076   5.006   3.640  0.9670 -0.2652 -0.4042
12139TIP3    H257833   1.074   4.863   3.592  0.7073 -0.4325  0.0936
12140TIP3   OH257834   6.303   3.341   0.303 -0.4973  0.0719 -0.5569
12140TIP3    H157835   6.280   3.349   0.396 -1.7474 -1.1228 -0.7391
12140TIP3    H257836   6.271   3.254   0.279  1.4732 -0.3805 -1.6517
12141TIP3   OH257837   6.645   5.129  15.277 -1.0052 -0.1605 -0.2700
12141TIP3    H157838   6.724   5.086  15.245 -0.3682  0.0539  0.9668
12141TIP3    H257839   6.676   5.214  15.310 -1.9489  0.4508 -0.9340
12142TIP3   OH257840   6.539   2.053   5.910 -0.0437  0.8270 -0.0430
12142TIP3    H157841   6.606   2.119   5.931  0.2815  0.9533 -1.4457
12142TIP3    H257842   6.589   1.972   5.897 -0.3326  0.5510  0.5809
12143TIP3   OH257843   0.194   3.035  11.953  1.2969 -0.2911  1.2746
12143TIP3    H157844   0.159   3.121  11.930  0.2490 -0.7017  1.3363
12143TIP3    H257845   0.135   3.001  12.020  1.9787 -0.8585  1.5977
12144TIP3   OH257846   3.833   3.861   2.564 -0.0414 -0.1844 -0.1586
12144TIP3    H157847   3.764   3.802   2.594  0.6758  0.1520  2.3512
12144TIP3    H257848   3.813   3.944   2.607  1.3790  0.1714 -0.1455
12145TIP3   OH257849   6.217   4.090   6.362  0.2295 -0.0856 -0.2481
12145TIP3    H157850   6.253   4.167   6.405 -0.5841 -0.1928  0.6328
12145TIP3    H257851   6.178   4.123   6.282 -0.5753  0.4946  0.3769
12146TIP3   OH257852   0.786   0.855  12.783  0.5716  0.2150  0.4894
12146TIP3    H157853   0.861   0.886  12.732  0.5447 -0.6731 -0.1026
12146TIP3    H257854   0.711   0.902  12.747  0.2857 -1.6540 -1.5005
12147TIP3   OH257855   0.566   0.266   2.041 -0.2476 -0.2174  0.5631
12147TIP3    H157856   0.568   0.257   1.945 -1.2649  1.7927  0.3323
12147TIP3    H257857   0.581   0.359   2.057  0.9186 -0.6937  2.4294
12148TIP3   OH257858   4.449   6.717  13.135 -0.4012  0.2292  0.1181
12148TIP3    H157859   4.523   6.662  13.162  0.3836  1.3821  0.3318
12148TIP3    H257860   4.397   6.660  13.078 -0.0934 -1.0422  1.0668
12149TIP3   OH257861   6.196   5.883   3.166 -0.2257  0.2539  0.2903
12149TIP3    H157862   6.138   5.808   3.161  1.5864 -1.1197 -1.2460
12149TIP3    H257863   6.151   5.952   3.116 -0.8751 -0.5366 -0.2206
12150TIP3   OH257864   3.377   0.594  15.440 -0.1331 -0.1473 -0.1857
12150TIP3    H157865   3.412   0.507  15.423 -0.8776 -0.4709 -0.0985
12150TIP3    H257866   3.397   0.644  15.360 -0.7904 -0.7494 -0.7346
12151TIP3   OH257867   3.537   0.219  12.371  0.0469 -0.6503 -0.1134
12151TIP3    H157868   3.465   0.187  12.425 -0.8604  2.1469  0.3904
12151TIP3    H257869   3.594   0.267  12.431  0.4629  0.1831 -1.1440
12152TIP3   OH257870   0.191   4.560  11.722 -0.5291 -0.3261  0.1804
12152TIP3    H157871   0.215   4.483  11.774  1.3941 -0.0968 -0.3139
12152TIP3    H257872   0.257   4.626  11.745 -0.4120  0.2041 -1.5601
12153TIP3   OH257873   1.494   5.037   5.506  0.1926 -0.5302  0.3176
12153TIP3    H157874   1.449   5.112   5.544  0.9445  0.8159 -1.3865
12153TIP3    H257875   1.452   5.025   5.420 -0.6509 -2.7466  1.0077
12154TIP3   OH257876   1.807   3.641  16.395  0.2660 -0.6417  0.0478
12154TIP3    H157877   1.882   3.590  16.365 -0.1790 -1.4823  0.3329
12154TIP3    H257878   1.835   3.678  16.478  1.0384  0.6145 -0.7595
12155TIP3   OH257879   5.579   5.601   3.458  0.1515 -0.3881  0.1913
12155TIP3    H157880   5.572   5.513   3.421  2.7217 -1.4630  2.0909
12155TIP3    H257881   5.540   5.594   3.545  1.9921 -0.1325  1.0567
12156TIP3   OH257882   0.354   3.852  15.361 -0.0652  0.2132 -0.9660
12156TIP3    H157883   0.432   3.879  15.312 -0.0294 -0.1391 -1.1058
12156TIP3    H257884   0.383   3.779  15.414 -0.1110  0.5823 -0.4287
12157TIP3   OH257885   5.402   0.524  13.765 -0.2670 -0.1688 -0.1289
12157TIP3    H157886   5.493   0.533  13.736 -0.9069  1.1603 -1.8380
12157TIP3    H257887   5.406   0.459  13.835  1.7902 -1.2226 -1.1578
12158TIP3   OH257888   4.711   2.683  14.306  0.8093  0.2191 -0.4373
12158TIP3    H157889   4.762   2.705  14.383  2.4802  0.0561 -1.4853
12158TIP3    H257890   4.751   2.603  14.271  0.4010  0.5783 -1.7703
12159TIP3   OH257891   0.897   5.565   1.728 -0.0994 -0.6336 -0.5013
12159TIP3    H157892   0.904   5.593   1.819 -0.2514 -1.3970 -0.2594
12159TIP3    H257893   0.803   5.552   1.713  0.0761 -2.2195 -0.2586
12160TIP3   OH257894   2.287   5.469  14.527  0.2695  0.5780 -0.5523
12160TIP3    H157895   2.294   5.385  14.573 -0.2713  1.1313  0.5415
12160TIP3    H257896   2.335   5.455  14.446  0.5846 -0.6511 -0.1686
12161TIP3   OH257897   5.945   5.109  13.433 -0.3469 -0.2801 -0.0769
12161TIP3    H157898   5.915   5.037  13.378  2.3974  0.5710 -2.8646
12161TIP3    H257899   6.029   5.080  13.469 -0.2958  0.6392  0.5820
12162TIP3   OH257900   2.048   1.665  11.851  0.3860  0.4564  0.3439
12162TIP3    H157901   2.107   1.738  11.832  0.3875  0.1263 -0.9702
12162TIP3    H257902   2.099   1.586  11.833 -0.5554  0.1746 -1.1763
12163TIP3   OH257903   6.374   0.027   6.193  0.1780 -0.6442  0.6806
12163TIP3    H157904   6.468   0.041   6.194 -0.2697  3.1873 -0.5683
12163TIP3    H257905   6.358  -0.032   6.119  1.4975 -0.3253  0.1355
12164TIP3   OH257906   4.675   5.363  13.093  0.0153 -0.0914  0.3165
12164TIP3    H157907   4.689   5.410  13.175  0.3726  0.0233  0.1920
12164TIP3    H257908   4.676   5.431  13.025 -3.2279  0.1785  0.4802
12165TIP3   OH257909   5.092   1.690  13.235 -0.2516 -0.1042 -0.8558
12165TIP3    H157910   4.998   1.679  13.215 -0.3362  1.3228 -1.2854
12165TIP3    H257911   5.130   1.720  13.153  0.3474  0.6483 -0.3061
12166TIP3   OH257912   3.347   4.417  12.035 -0.0624 -0.8693 -0.6474
12166TIP3    H157913   3.427   4.405  11.983  0.7407  1.1856  0.0589
12166TIP3    H257914   3.284   4.454  11.973  0.2395 -0.3752 -0.6609
12167TIP3   OH257915   5.919   2.785  16.952  0.0566  0.0651 -0.2116
12167TIP3    H157916   5.881   2.770  17.038  0.1431  2.1461  0.2138
12167TIP3    H257917   5.963   2.703  16.930 -0.5303 -0.6999  1.4187
12168TIP3   OH257918   6.113   1.568   4.769 -0.4391 -0.4141  0.6557
12168TIP3    H157919   6.162   1.649   4.756 -0.8042 -0.1346  1.0031
12168TIP3    H257920   6.115   1.554   4.864 -1.3175 -0.2218  0.7001
12169TIP3   OH257921   5.826   0.751  14.821  0.7747 -0.1109 -0.6103
12169TIP3    H157922   5.735   0.736  14.847  0.3682  1.0803 -1.3146
12169TIP3    H257923   5.868   0.785  14.901  0.2427  0.7511 -0.6958
12170TIP3   OH257924   3.233   0.562  13.890 -0.3295  0.6002  0.1941
12170TIP3    H157925   3.288   0.553  13.812  0.0389 -3.1178  0.7887
12170TIP3    H257926   3.147   0.586  13.857 -0.0945 -0.6406 -1.3491
12171TIP3   OH257927   4.780   4.518   2.049 -0.4871  0.1159  0.1448
12171TIP3    H157928   4.715   4.488   2.112 -1.4942  0.2289 -0.8368
12171TIP3    H257929   4.861   4.473   2.076 -0.9374  0.0289  1.4016
12172TIP3   OH257930   1.918   6.477  13.963  0.2326  0.5567 -0.4431
12172TIP3    H157931   1.894   6.385  13.957 -1.9687  1.1704 -1.6455
12172TIP3    H257932   1.980   6.481  14.036 -2.2458 -1.3751  1.8778
12173TIP3   OH257933   6.440   6.597   2.843 -0.2897  0.8001 -0.5282
12173TIP3    H157934   6.450   6.679   2.890 -1.9459  0.9940 -0.4611
12173TIP3    H257935   6.361   6.610   2.789  0.3523 -0.1669 -1.7303
12174TIP3   OH257936   2.738   0.671  15.244  0.0207 -0.6945  0.1102
12174TIP3    H157937   2.657   0.625  15.266 -0.5108  0.6063  0.9236
12174TIP3    H257938   2.773   0.700  15.328  0.6900 -0.1855 -0.3400
12175TIP3   OH257939   0.563   5.939  14.802  0.2346 -0.6360  0.1453
12175TIP3    H157940   0.573   5.923  14.896 -0.3462 -0.1864  0.2894
12175TIP3    H257941   0.585   5.856  14.761  1.5810 -0.5286  0.6096
12176TIP3   OH257942   1.763   3.129   3.913 -0.1971  0.1952 -0.5233
12176TIP3    H157943   1.695   3.137   3.981  0.2123  1.1428 -0.2262
12176TIP3    H257944   1.815   3.053   3.941 -1.1046 -0.5052 -0.7260
12177TIP3   OH257945   1.414   1.591   1.662  0.3904 -0.0755 -0.4351
12177TIP3    H157946   1.492   1.601   1.718 -1.2598 -1.7049  2.2521
12177TIP3    H257947   1.439   1.632   1.580  3.0696  2.1186  1.3564
12178TIP3   OH257948   3.697   3.664  16.537 -0.1971  0.4016 -0.5695
12178TIP3    H157949   3.764   3.655  16.469 -0.3085  0.2008 -0.6537
12178TIP3    H257950   3.619   3.621  16.500 -0.5137  1.0558 -0.6697
12179TIP3   OH257951   1.431   3.955  16.264 -0.3374  0.2484  0.3742
12179TIP3    H157952   1.343   3.956  16.300 -0.6726  0.2926 -0.4458
12179TIP3    H257953   1.468   3.872  16.295 -0.5030  0.4430  1.1015
12180TIP3   OH257954   4.058   3.519  10.741  1.1481 -0.3525 -0.2218
12180TIP3    H157955   4.114   3.494  10.815  0.9573 -0.7779 -0.2191
12180TIP3    H257956   4.118   3.560  10.679  1.5561 -1.2243 -0.4241
12181TIP3   OH257957   2.519   4.634   5.594 -0.2517 -0.0149  0.7942
12181TIP3    H157958   2.472   4.714   5.572  0.3700 -0.2896 -1.6764
12181TIP3    H257959   2.608   4.649   5.560 -0.2079 -1.8470  0.0335
12182TIP3   OH257960   3.614   0.875  13.936 -0.4123  0.5817  0.0601
12182TIP3    H157961   3.585   0.811  14.001 -0.1786  0.8141  0.3961
12182TIP3    H257962   3.541   0.936  13.929 -0.5389  0.4123 -0.0791
12183TIP3   OH257963   4.822   0.065   5.223  0.4689 -0.1310  0.0281
12183TIP3    H157964   4.839  -0.022   5.257 -0.0461 -1.1354 -2.1737
12183TIP3    H257965   4.883   0.075   5.150  1.1164  1.7024  0.7781
12184TIP3   OH257966   5.345   4.625   4.173  0.0644  0.4271  0.2005
12184TIP3    H157967   5.409   4.554   4.185  0.8529  1.3332  1.4844
12184TIP3    H257968   5.260   4.583   4.186  0.5050 -0.3618  0.5635
12185TIP3   OH257969   0.435   5.859   2.398 -0.0828  0.2596  0.1865
12185TIP3    H157970   0.342   5.858   2.421 -0.3979 -0.2547 -1.0497
12185TIP3    H257971   0.459   5.951   2.396 -0.1133  0.3421  2.2305
12186TIP3   OH257972   2.808   1.368  14.950  0.0059 -0.8286 -0.1058
12186TIP3    H157973   2.825   1.457  14.980 -0.0675 -0.4554 -1.1384
12186TIP3    H257974   2.813   1.314  15.029  0.5957  0.0163  0.4372
12187TIP3   OH257975   3.180   1.245  11.707 -0.4183  0.0944 -0.1570
12187TIP3    H157976   3.119   1.220  11.776 -1.5770 -0.5504 -1.3948
12187TIP3    H257977   3.165   1.339  11.695  0.2212  0.3400  0.8686
12188TIP3   OH257978   0.806   6.238   4.096  0.1497  0.7384  0.1778
12188TIP3    H157979   0.820   6.175   4.166  2.1932  0.3098 -0.5623
12188TIP3    H257980   0.753   6.191   4.031 -1.3318  0.9817  1.1963
12189TIP3   OH257981   4.774   5.683   2.171 -0.8678  0.3831  0.1317
12189TIP3    H157982   4.790   5.761   2.118 -1.0885  1.2442  1.2871
12189TIP3    H257983   4.778   5.610   2.110  0.1083  1.2383 -0.8458
12190TIP3   OH257984   6.716   4.628  15.682  0.0230 -0.2400  0.2834
12190TIP3    H157985   6.788   4.576  15.646  0.6359 -0.4794  1.7816
12190TIP3    H257986   6.686   4.682  15.609  2.0442  0.2016 -0.2631
12191TIP3   OH257987   1.381   0.906  11.734  0.9800 -0.2671  0.7176
12191TIP3    H157988   1.353   0.979  11.679  2.0024 -0.8983 -0.6626
12191TIP3    H257989   1.436   0.946  11.801  2.8119  0.0775 -0.9447
12192TIP3   OH257990   0.794   4.153  15.542  0.4120 -0.7150 -0.3157
12192TIP3    H157991   0.845   4.125  15.466  0.4930 -0.7728 -0.2401
12192TIP3    H257992   0.856   4.205  15.593  0.1030  0.0788 -0.7379
12193TIP3   OH257993   4.877   1.919   3.876 -0.1479 -0.0531 -0.7369
12193TIP3    H157994   4.807   1.968   3.920 -2.7155 -3.9923 -0.1139
12193TIP3    H257995   4.928   1.882   3.948  0.1745 -0.3961 -1.1439
12194TIP3   OH257996   3.701   2.303   2.187 -0.6616 -0.0193 -0.3594
12194TIP3    H157997   3.634   2.249   2.146  0.8612 -1.3998 -1.0999
12194TIP3    H257998   3.693   2.286   2.280 -1.5528  0.0989 -0.4072
12195TIP3   OH257999   2.628   4.378  15.386 -0.4011  0.3541 -0.2549
12195TIP3    H158000   2.572   4.320  15.438 -1.2158 -0.4562 -1.9780
12195TIP3    H258001   2.624   4.342  15.297  2.3097  0.6844 -0.5742
12196TIP3   OH258002   3.209   3.831  14.475 -0.5481  0.3358 -0.4279
12196TIP3    H158003   3.160   3.811  14.395 -0.6754  0.0494 -0.2794
12196TIP3    H258004   3.175   3.916  14.503 -0.0266  0.7513 -1.0462
12197TIP3   OH258005   1.577   2.337  10.540  0.6409  0.6714 -0.2094
12197TIP3    H158006   1.592   2.333  10.635 -0.4646 -5.1768 -0.0576
12197TIP3    H258007   1.649   2.287  10.503 -0.3694  0.6862 -2.2447
12198TIP3   OH258008   2.551   1.455  10.383  0.1821  0.4524  0.2467
12198TIP3    H158009   2.469   1.504  10.381  0.2680  0.6365  1.1655
12198TIP3    H258010   2.534   1.382  10.442  0.5004  0.1678 -0.0134
12199TIP3   OH258011   4.336   4.033   1.164  0.1974 -0.6257  0.0907
12199TIP3    H158012   4.326   4.096   1.093  1.0270 -1.3479 -0.6887
12199TIP3    H258013   4.270   4.057   1.228 -2.3705 -1.5718 -2.1287
12200TIP3   OH258014   1.928   5.471  12.857 -0.8204  0.0115 -0.2592
12200TIP3    H158015   1.939   5.443  12.948 -0.3390  1.0544  0.0049
12200TIP3    H258016   1.921   5.566  12.861  2.1211  0.3513 -1.5701
12201TIP3   OH258017   1.243   1.796   4.813  0.2839  0.4118  0.4463
12201TIP3    H158018   1.206   1.872   4.857  0.8748  1.3198 -0.5966
12201TIP3    H258019   1.169   1.738   4.797 -0.3104  1.1794  0.4216
12202TIP3   OH258020   0.644   3.156   6.436  0.3664 -0.0707 -0.0205
12202TIP3    H158021   0.708   3.145   6.366  0.4645  0.0048  0.0562
12202TIP3    H258022   0.560   3.132   6.397  0.6593 -1.7414  0.3134
12203TIP3   OH258023   0.540   5.943   2.729 -0.0105  0.6031 -0.1462
12203TIP3    H158024   0.597   5.873   2.762  0.0457  0.6255 -0.1942
12203TIP3    H258025   0.493   5.903   2.655 -0.5262  0.3912  0.2952
12204TIP3   OH258026   6.577   2.400  14.718  0.1833 -0.4397  0.3127
12204TIP3    H158027   6.662   2.388  14.676  0.3023  1.1092  0.0771
12204TIP3    H258028   6.583   2.350  14.799  0.5070 -2.1870 -0.7749
12205TIP3   OH258029   3.940   1.961  11.291 -0.4202  0.2990 -0.2820
12205TIP3    H158030   3.873   1.893  11.290 -0.4537  0.3123  0.8020
12205TIP3    H258031   4.018   1.919  11.253 -1.2284  0.4924 -2.1840
12206TIP3   OH258032   3.520   6.421   1.827 -0.4651  0.1498 -0.1988
12206TIP3    H158033   3.603   6.406   1.871 -1.0949  0.6231  1.1644
12206TIP3    H258034   3.496   6.335   1.791 -0.8252 -0.6491  1.9150
12207TIP3   OH258035   6.089   4.111   1.978 -0.1750 -0.0418  0.6915
12207TIP3    H158036   6.107   4.173   2.049 -0.9287 -1.0594  1.7948
12207TIP3    H258037   5.995   4.118   1.963 -0.4303 -1.5589  1.4635
12208TIP3   OH258038   2.081   4.162  11.023  0.1054  0.4291 -0.4693
12208TIP3    H158039   2.049   4.221  11.091  0.7829  1.5070 -1.0542
12208TIP3    H258040   2.017   4.091  11.019 -0.8771  1.2830  0.0667
12209TIP3   OH258041   3.573   4.309   4.025  0.8680 -0.3021 -0.0016
12209TIP3    H158042   3.609   4.221   4.019 -0.6762 -1.1266  2.0678
12209TIP3    H258043   3.488   4.304   3.981  0.7203  0.1142  0.2310
12210TIP3   OH258044   1.243   5.853  16.960 -0.3116  0.0646 -0.2965
12210TIP3    H158045   1.158   5.814  16.939 -0.8657  1.1114 -0.0709
12210TIP3    H258046   1.273   5.890  16.877 -0.4988  0.4658 -0.1874
12211TIP3   OH258047   1.256   1.994   2.892  0.0179 -0.7511 -0.0991
12211TIP3    H158048   1.180   1.938   2.909 -0.7270 -0.2531 -1.7109
12211TIP3    H258049   1.262   1.997   2.797 -0.1908  2.1878 -0.0563
12212TIP3   OH258050   0.770   5.602   5.327 -0.0253 -0.4575 -0.2677
12212TIP3    H158051   0.719   5.682   5.343  1.2513  0.0253  1.5094
12212TIP3    H258052   0.828   5.625   5.254  0.6139  0.3920  0.4892
12213TIP3   OH258053   1.969   0.674   3.882  0.0962  0.0493 -0.0104
12213TIP3    H158054   1.906   0.746   3.892  0.1032  0.1907 -0.9460
12213TIP3    H258055   1.996   0.679   3.791  1.3786 -0.0896  0.3549
12214TIP3   OH258056   5.896   3.451   4.711 -0.0948  0.1314  0.4499
12214TIP3    H158057   5.814   3.460   4.662 -1.0878 -0.5472  1.9466
12214TIP3    H258058   5.945   3.384   4.664 -0.1676  0.8945 -0.7403
12215TIP3   OH258059   3.606   6.595  14.947 -0.4699 -0.1933  0.3478
12215TIP3    H158060   3.520   6.559  14.923 -0.5839  0.0316  0.4230
12215TIP3    H258061   3.640   6.631  14.866 -0.8393  0.5343  0.5114
12216TIP3   OH258062   2.252   1.498   5.898  0.0892  0.2713 -0.2838
12216TIP3    H158063   2.277   1.577   5.944  0.8179 -0.7561  1.1116
12216TIP3    H258064   2.303   1.500   5.817 -0.3895  1.5414 -0.5562
12217TIP3   OH258065   2.239   1.715  15.997 -0.0161 -0.5901  0.4460
12217TIP3    H158066   2.275   1.797  16.031  0.1002 -0.8636  0.9966
12217TIP3    H258067   2.193   1.676  16.072 -1.1087 -0.4444 -0.1363
12218TIP3   OH258068   1.914   5.308  10.778 -0.1647 -0.2318 -0.2562
12218TIP3    H158069   1.913   5.403  10.793 -0.5407  0.3172 -3.2962
12218TIP3    H258070   1.830   5.277  10.813 -0.4962  0.7403 -0.1754
12219TIP3   OH258071   1.699   3.057  17.170 -0.3002 -0.2098  0.4352
12219TIP3    H158072   1.780   3.011  17.151  0.5695 -0.1592  3.6763
12219TIP3    H258073   1.722   3.150  17.168 -0.4633 -0.1664  0.5054
12220TIP3   OH258074   0.347   6.771  15.381 -0.0595 -0.0987 -0.0741
12220TIP3    H158075   0.426   6.816  15.350 -0.7991  0.3993 -1.2966
12220TIP3    H258076   0.373   6.679  15.388  1.0319  0.2714  0.9630
12221TIP3   OH258077   6.056   6.397   1.686 -0.2577 -0.2844 -0.1239
12221TIP3    H158078   6.113   6.356   1.622 -1.1080  0.8873 -1.6600
12221TIP3    H258079   6.093   6.485   1.698  0.0757 -0.5914  1.2475
12222TIP3   OH258080   2.984   5.166  10.739 -0.2727  0.2689 -0.4424
12222TIP3    H158081   2.928   5.134  10.809  1.9448  1.9829  2.2682
12222TIP3    H258082   2.968   5.260  10.736  0.5158  0.3887 -1.4215
12223TIP3   OH258083   2.566   1.509  11.468  0.0097 -0.2432  0.0117
12223TIP3    H158084   2.570   1.423  11.426  0.0223  0.7367 -2.0833
12223TIP3    H258085   2.514   1.563  11.408 -0.0820  1.1988  1.3284
12224TIP3   OH258086   4.802   2.683   4.856  0.2289  0.5476  0.2532
12224TIP3    H158087   4.762   2.649   4.936  2.1648 -0.7318  0.7245
12224TIP3    H258088   4.849   2.608   4.819 -0.0968  1.2909 -1.7367
12225TIP3   OH258089   5.238   2.077  13.889 -0.5356 -0.0566  0.1476
12225TIP3    H158090   5.210   2.114  13.806 -0.7704  0.5390  0.4907
12225TIP3    H258091   5.216   2.144  13.954  0.8778  0.0502  0.5328
12226TIP3   OH258092   5.849   5.837  17.150 -0.0274 -0.3125 -0.1719
12226TIP3    H158093   5.757   5.822  17.131 -0.3839 -2.1728  2.6387
12226TIP3    H258094   5.851   5.861  17.243  2.1465  1.7198 -0.6845
12227TIP3   OH258095   5.332   5.282   2.321 -0.6338  0.1261  0.2526
12227TIP3    H158096   5.244   5.284   2.282 -1.1630  0.5392  1.4334
12227TIP3    H258097   5.362   5.193   2.307  0.4903  1.0553 -3.8651
12228TIP3   OH258098   4.939   0.006  14.847 -0.0244  0.5649  0.6652
12228TIP3    H158099   4.969   0.096  14.860 -2.6862  1.4725  0.6251
12228TIP3    H258100   4.919  -0.025  14.935  3.4649 -0.9693  1.0062
12229TIP3   OH258101   6.662   0.943   2.043 -0.1655  0.3827  0.0131
12229TIP3    H158102   6.660   0.862   2.094  1.6269  0.1694 -0.2287
12229TIP3    H258103   6.575   0.949   2.004 -0.5390 -1.0522  0.5951
12230TIP3   OH258104   0.517   3.644  15.487  0.1797 -0.1666 -0.0232
12230TIP3    H158105   0.590   3.673  15.542  0.9973  0.1448 -1.2412
12230TIP3    H258106   0.440   3.650  15.543  1.0737 -0.3907  1.2549
12231TIP3   OH258107   3.176   0.181   0.898  0.0044  0.1827  0.1061
12231TIP3    H158108   3.174   0.087   0.881 -1.9753 -0.0041  1.2485
12231TIP3    H258109   3.145   0.221   0.816 -0.6434 -0.2346  0.1465
12232TIP3   OH258110   3.911   5.498  12.737  0.6486  0.2254 -0.4754
12232TIP3    H158111   3.926   5.547  12.818 -2.2498 -0.5879  0.6476
12232TIP3    H258112   3.962   5.418  12.747  0.7007  0.3599  0.3492
12233TIP3   OH258113   5.658   2.349  12.293 -0.2653  0.0600  0.2308
12233TIP3    H158114   5.710   2.356  12.213  1.5252  1.5370  1.4771
12233TIP3    H258115   5.717   2.309  12.357 -0.8027  1.2253  1.4927
12234TIP3   OH258116   5.689   6.598   5.641  0.0486  0.1628  0.0888
12234TIP3    H158117   5.686   6.517   5.590 -1.9009 -0.9679  1.9155
12234TIP3    H258118   5.764   6.646   5.606  0.6889 -2.0130 -1.6254
12235TIP3   OH258119   3.753   5.873   3.068  0.3359  0.1913 -0.0346
12235TIP3    H158120   3.794   5.959   3.066  1.2123 -0.2274 -3.4736
12235TIP3    H258121   3.826   5.811   3.071 -0.2872 -0.4839  2.5689
12236TIP3   OH258122   1.945   6.168   4.612 -0.1414  0.2013 -1.2082
12236TIP3    H158123   2.012   6.115   4.655 -1.8249  0.2484  1.6067
12236TIP3    H258124   1.891   6.104   4.565  0.2102 -0.1405 -1.1515
12237TIP3   OH258125   2.212   4.362  13.550  0.0071 -0.0029  0.1065
12237TIP3    H158126   2.254   4.377  13.465  0.0326  1.5697  0.3818
12237TIP3    H258127   2.268   4.408  13.613 -0.9439  0.2829  0.7589
12238TIP3   OH258128   0.320   3.544  11.194 -0.0639  0.1881 -0.1232
12238TIP3    H158129   0.370   3.608  11.144 -0.1979  1.1436  0.9493
12238TIP3    H258130   0.287   3.593  11.269 -0.0861 -1.1658  0.7606
12239TIP3   OH258131   0.778   6.545   1.829  0.2517  0.3995  0.3371
12239TIP3    H158132   0.798   6.637   1.811  0.4692  0.4581  0.8746
12239TIP3    H258133   0.801   6.499   1.748  0.3344  0.7898  0.1397
12240TIP3   OH258134   4.947   6.196  12.834 -0.3397  0.3718  0.3921
12240TIP3    H158135   4.882   6.259  12.803 -0.8532 -0.2933  0.1080
12240TIP3    H258136   5.016   6.198  12.768 -1.3576 -0.9291 -0.7471
12241TIP3   OH258137   4.205   5.448  14.499 -0.3460 -0.2842  0.1656
12241TIP3    H158138   4.242   5.534  14.480 -2.6112  0.4222 -1.3687
12241TIP3    H258139   4.179   5.414  14.413 -0.7708 -1.8955  0.9040
12242TIP3   OH258140   1.366   4.741   2.677 -0.5430  0.6608  0.5046
12242TIP3    H158141   1.383   4.650   2.700 -1.6831  0.6770  1.4678
12242TIP3    H258142   1.452   4.783   2.677 -0.0787 -0.2769  0.6408
12243TIP3   OH258143   4.753   3.427  16.645  0.1363 -0.0518 -0.3652
12243TIP3    H158144   4.688   3.430  16.716  0.6253  0.3208  0.0712
12243TIP3    H258145   4.837   3.432  16.690  0.4249  2.3589 -1.0852
12244TIP3   OH258146   4.512   2.470   3.400  0.1458  0.1049  0.1354
12244TIP3    H158147   4.526   2.503   3.312 -0.5055 -0.1587 -0.0738
12244TIP3    H258148   4.470   2.542   3.447 -1.5345 -0.5135 -0.4007
12245TIP3   OH258149   4.384   3.948  13.781 -0.2208  0.5691 -0.4223
12245TIP3    H158150   4.358   3.926  13.692  1.6762 -2.0916 -0.3796
12245TIP3    H258151   4.327   3.895  13.836  1.2119 -0.7588 -0.1813
12246TIP3   OH258152   0.230   5.383  13.254 -0.5110  0.1673  0.0443
12246TIP3    H158153   0.186   5.343  13.179  1.1521  0.0302 -0.8869
12246TIP3    H258154   0.164   5.383  13.323 -1.5623 -1.1954 -0.9199
12247TIP3   OH258155   3.989   2.320   2.100  0.1504 -0.3425 -0.2499
12247TIP3    H158156   3.895   2.323   2.120  0.1775  0.6921 -0.2768
12247TIP3    H258157   4.014   2.230   2.120 -0.8342 -0.6085 -0.1659
12248TIP3   OH258158   5.632   4.455  15.199 -1.0447 -0.4064 -0.5427
12248TIP3    H158159   5.662   4.384  15.256 -1.9164 -0.2155  0.1733
12248TIP3    H258160   5.710   4.482  15.150 -0.3546 -0.7912  0.3322
12249TIP3   OH258161   6.216   4.862   0.405 -0.0149 -0.1565 -0.9173
12249TIP3    H158162   6.310   4.879   0.414  0.4470 -0.6789 -4.1850
12249TIP3    H258163   6.177   4.904   0.482  2.7856  0.9119 -0.0033
12250TIP3   OH258164   1.287   5.688   1.505 -0.0824 -1.0374 -0.0601
12250TIP3    H158165   1.266   5.680   1.598 -2.3950 -0.5394 -0.5212
12250TIP3    H258166   1.245   5.612   1.465  1.5792 -1.6902 -0.6232
12251TIP3   OH258167   1.732   5.229  11.308 -0.3530  0.1938 -0.0410
12251TIP3    H158168   1.742   5.286  11.384 -1.4893  0.8580 -0.3745
12251TIP3    H258169   1.807   5.169  11.313 -2.1063 -1.9520  3.4636
12252TIP3   OH258170   4.956   6.547   1.272  0.2386 -0.1625 -0.2909
12252TIP3    H158171   4.878   6.600   1.287 -0.3951 -1.4763  1.1060
12252TIP3    H258172   5.027   6.611   1.268 -0.7549  0.9517 -0.5696
12253TIP3   OH258173   5.929   3.370   1.773  0.2270 -0.4110 -0.3433
12253TIP3    H158174   6.025   3.370   1.778  0.2690 -2.2878 -0.8351
12253TIP3    H258175   5.900   3.374   1.864  0.7219  2.3331 -0.2405
12254TIP3   OH258176   4.737   5.912  15.662 -0.0627  0.4067 -0.3711
12254TIP3    H158177   4.818   5.890  15.615 -0.8260 -1.5551 -0.8319
12254TIP3    H258178   4.732   6.007  15.657 -0.2335  0.2865 -4.5774
12255TIP3   OH258179   6.184   3.225  14.500  0.3123 -0.4036  0.2155
12255TIP3    H158180   6.224   3.184  14.577  3.0057 -0.2704 -1.0664
12255TIP3    H258181   6.238   3.196  14.427 -3.1303 -1.7750 -1.8742
12256TIP3   OH258182   5.914   5.190   0.624  0.0059  1.1756  0.3664
12256TIP3    H158183   5.907   5.174   0.718  0.5296  1.4297  0.4445
12256TIP3    H258184   5.929   5.284   0.616  1.4160  0.9412  0.1012
12257TIP3   OH258185   5.752   6.092  13.711  0.3372  0.2053 -0.1511
12257TIP3    H158186   5.693   6.019  13.694 -1.4353  1.5462  0.0364
12257TIP3    H258187   5.698   6.157  13.757  2.3800  0.8432  1.4416
12258TIP3   OH258188   2.626   3.691   3.877 -0.0713 -0.1038 -0.1149
12258TIP3    H158189   2.693   3.712   3.942 -0.1416 -0.8537  0.2116
12258TIP3    H258190   2.550   3.742   3.903 -0.3352 -0.9624  0.8412
12259TIP3   OH258191   2.463   1.357  13.842  0.2507 -0.4765  0.1203
12259TIP3    H158192   2.494   1.395  13.925  0.2007 -1.6777  0.7050
12259TIP3    H258193   2.368   1.369  13.844  0.1911 -0.9688  0.4907
12260TIP3   OH258194   6.611   3.956  10.680  0.2611  0.3550  0.1215
12260TIP3    H158195   6.595   4.023  10.747 -0.6476 -0.3785  0.6614
12260TIP3    H258196   6.704   3.963  10.661  0.5344  0.5851  1.4670
12261TIP3   OH258197   1.630   5.354   5.902 -0.1008 -0.3038 -0.0979
12261TIP3    H158198   1.712   5.397   5.924  0.3897 -0.0942 -2.2056
12261TIP3    H258199   1.567   5.426   5.891  0.2309 -0.2211 -1.6229
12262TIP3   OH258200   1.761   3.292   0.243  0.0946 -0.1878 -0.5766
12262TIP3    H158201   1.811   3.337   0.312  1.0724  1.5480 -2.3584
12262TIP3    H258202   1.670   3.299   0.271  0.5452 -0.4422  1.0544
12263TIP3   OH258203   3.299   4.602  11.300 -0.1792 -0.0131 -0.5198
12263TIP3    H158204   3.270   4.594  11.210  1.3307  1.0035 -1.1236
12263TIP3    H258205   3.284   4.516  11.338 -0.9807 -0.4009 -1.7006
12264TIP3   OH258206   4.129   6.427  13.778  0.4977 -0.1813  0.1827
12264TIP3    H158207   4.168   6.439  13.864  1.0471  2.2237 -0.3616
12264TIP3    H258208   4.200   6.448  13.717 -0.1968 -0.7883 -0.8490
12265TIP3   OH258209   0.797   3.838  11.870 -0.1808 -0.6798 -0.0934
12265TIP3    H158210   0.811   3.928  11.841  1.0566 -0.2652  1.7147
12265TIP3    H258211   0.705   3.821  11.853  0.2915 -0.1966 -3.4794
12266TIP3   OH258212   0.823   3.796  10.955 -0.3889 -0.6031  0.3842
12266TIP3    H158213   0.803   3.732  11.024 -3.0154 -0.9049 -0.6137
12266TIP3    H258214   0.858   3.744  10.883 -1.4433 -0.7872  0.0012
12267TIP3   OH258215   3.072   4.047  15.767 -0.1886  0.2054 -0.1511
12267TIP3    H158216   3.141   4.113  15.756  1.7050 -1.5126  0.8516
12267TIP3    H258217   3.085   3.987  15.693 -0.8041  0.0506 -0.1327
12268TIP3   OH258218   3.364   4.498   4.483  0.3162 -0.2323  0.4405
12268TIP3    H158219   3.446   4.449   4.485 -0.6813 -2.0835 -1.8668
12268TIP3    H258220   3.300   4.438   4.521 -0.1167  0.9543  1.6248
12269TIP3   OH258221   4.197   6.490  12.366 -0.3303 -0.2494 -0.2390
12269TIP3    H158222   4.107   6.479  12.337 -0.7238 -0.2430  0.9423
12269TIP3    H258223   4.230   6.400  12.375 -0.1697 -0.2485 -0.8277
12270TIP3   OH258224   2.370   5.594  12.354  0.4644 -0.1797  0.2669
12270TIP3    H158225   2.376   5.500  12.337  2.3165  0.0836 -0.7323
12270TIP3    H258226   2.297   5.624  12.300  0.7869 -0.8201 -0.5318
12271TIP3   OH258227   6.647   2.513   0.049 -0.2580  0.6704 -0.3642
12271TIP3    H158228   6.588   2.439   0.063  0.1970  0.6458  1.6894
12271TIP3    H258229   6.591   2.583   0.017 -1.2216  0.3507  0.5964
12272TIP3   OH258230   4.997   3.498  15.637  0.3143  0.1250 -0.2635
12272TIP3    H158231   5.025   3.475  15.548  0.0619 -0.7577 -0.1186
12272TIP3    H258232   4.916   3.548  15.625  1.0539  1.2644 -0.6015
12273TIP3   OH258233   0.684   4.883  14.943 -0.2029  0.4701 -0.2666
12273TIP3    H158234   0.614   4.858  15.003 -0.6028  1.3685 -0.3430
12273TIP3    H258235   0.728   4.957  14.986 -0.9947  1.6369 -1.4300
12274TIP3   OH258236   1.015   5.901  15.091 -0.5080  0.3360  0.2528
12274TIP3    H158237   0.927   5.938  15.095 -0.8370  0.2297 -3.7378
12274TIP3    H258238   1.007   5.825  15.034  2.0155 -0.1125  0.4279
12275TIP3   OH258239   5.336   2.408  16.625  0.0837 -0.0638  0.2092
12275TIP3    H158240   5.413   2.385  16.574  0.2677 -0.7655  0.7943
12275TIP3    H258241   5.326   2.502  16.612  0.3572 -0.1659 -0.7983
12276TIP3   OH258242   5.556   5.282   5.479 -0.5013  0.3702  0.0959
12276TIP3    H158243   5.542   5.376   5.479 -0.9249  0.3124 -1.1412
12276TIP3    H258244   5.469   5.244   5.466 -0.0207 -0.1215 -1.8904
12277TIP3   OH258245   3.779   6.517  14.508  0.0047 -0.0118 -0.9027
12277TIP3    H158246   3.791   6.485  14.419 -1.5515  0.4125 -1.2642
12277TIP3    H258247   3.697   6.566  14.506  0.1463  0.3197  0.6737
12278TIP3   OH258248   2.150   4.321   4.700  0.0840  0.2513 -0.1506
12278TIP3    H158249   2.198   4.240   4.683  0.2086  0.3320 -0.1917
12278TIP3    H258250   2.129   4.354   4.613 -2.8470 -1.4178 -0.1336
12279TIP3   OH258251   5.306   4.984   0.103  0.3607 -0.3196  0.5373
12279TIP3    H158252   5.381   5.041   0.085  0.7414 -0.4165  1.7525
12279TIP3    H258253   5.230   5.042   0.095  0.6330 -0.0037  0.2053
12280TIP3   OH258254   0.240   5.707  11.640  0.0283 -0.4686  0.0972
12280TIP3    H158255   0.182   5.637  11.612  0.5687 -1.2375  0.8695
12280TIP3    H258256   0.326   5.666  11.649  0.2758  0.1927  0.9271
12281TIP3   OH258257   1.894   0.154   2.515 -0.2240  0.2334 -0.0494
12281TIP3    H158258   1.959   0.175   2.448 -0.8469  1.9333 -0.1531
12281TIP3    H258259   1.928   0.194   2.595  0.5533 -1.8504  0.6965
12282TIP3   OH258260   3.688   2.991  16.957 -0.1507 -0.7939 -0.1756
12282TIP3    H158261   3.757   3.050  16.924 -1.2002  0.1308 -0.7514
12282TIP3    H258262   3.638   3.045  17.018  0.0581 -1.6780  0.7912
12283TIP3   OH258263   3.412   2.122  17.001  0.5028  0.3199  0.3821
12283TIP3    H158264   3.343   2.113  17.066  0.4565 -1.8337  0.0829
12283TIP3    H258265   3.420   2.035  16.962  2.9647  0.6678 -0.0061
12284TIP3   OH258266   1.017   4.140   5.824  0.4125 -0.1151  0.6208
12284TIP3    H158267   1.021   4.181   5.738  1.0141  0.4279  0.8961
12284TIP3    H258268   1.031   4.047   5.807  1.2216  0.0780  0.1934
12285TIP3   OH258269   2.446   1.222  15.743 -0.6962 -0.0608  0.0828
12285TIP3    H158270   2.358   1.185  15.743 -0.5772 -0.3568  0.7623
12285TIP3    H258271   2.504   1.146  15.754 -0.3384  0.0929 -0.7383
12286TIP3   OH258272   1.582   0.537   0.545  0.2766  0.3780 -0.0450
12286TIP3    H158273   1.598   0.548   0.639  2.1002  1.8750 -0.5136
12286TIP3    H258274   1.668   0.536   0.505 -0.4702 -0.6724 -1.6797
12287TIP3   OH258275   5.273   2.768  12.146  0.1219 -0.5716  0.2984
12287TIP3    H158276   5.328   2.767  12.068 -0.6954  2.4192 -0.4017
12287TIP3    H258277   5.318   2.826  12.207 -2.0912  1.8200 -0.2435
12288TIP3   OH258278   2.165   1.818   1.038 -0.2562 -0.6997  0.9146
12288TIP3    H158279   2.083   1.773   1.060 -1.9746  1.3443 -1.1021
12288TIP3    H258280   2.186   1.787   0.950 -1.5814  2.5428 -0.5863
12289TIP3   OH258281   5.806   6.190  15.680 -0.2605  0.3234  0.1487
12289TIP3    H158282   5.853   6.240  15.613 -2.0132 -0.2324 -1.5653
12289TIP3    H258283   5.780   6.109  15.635 -3.4042  0.9042  0.7956
12290TIP3   OH258284   5.183   5.162  13.869  0.3191 -0.1222 -0.2136
12290TIP3    H158285   5.117   5.209  13.817 -1.7743 -0.6553  1.8697
12290TIP3    H258286   5.190   5.214  13.949 -0.5064 -2.2001  1.2487
12291TIP3   OH258287   5.114   1.957   2.698 -0.8114  0.5492 -0.4126
12291TIP3    H158288   5.031   1.964   2.746 -0.3413 -1.0979  0.6813
12291TIP3    H258289   5.105   1.878   2.645  0.8073 -0.8448  1.3057
12292TIP3   OH258290   0.875   2.287  13.107  0.1892 -0.2439 -0.6604
12292TIP3    H158291   0.965   2.316  13.093  0.1811 -0.1301 -0.4706
12292TIP3    H258292   0.848   2.330  13.187 -0.1171 -0.0913 -0.8446
12293TIP3   OH258293   2.235   0.414  12.931 -0.5422 -0.3480 -0.3673
12293TIP3    H158294   2.319   0.457  12.944 -0.9561  0.0899  0.9539
12293TIP3    H258295   2.243   0.331  12.979 -2.0246  1.2034  2.7047
12294TIP3   OH258296   4.386   5.812   4.767 -0.0843 -0.3891  0.1250
12294TIP3    H158297   4.381   5.867   4.688  0.4734 -1.4084 -0.6347
12294TIP3    H258298   4.453   5.854   4.821  1.4905 -1.1910 -1.1603
12295TIP3   OH258299   5.604   6.214  15.228 -0.7782 -0.0280 -0.7336
12295TIP3    H158300   5.677   6.273  15.210 -0.2575 -0.4325  0.0285
12295TIP3    H258301   5.565   6.248  15.308 -1.0847 -0.1411 -0.8333
12296TIP3   OH258302   5.099   0.680   0.084 -0.2709  0.4806 -0.0984
12296TIP3    H158303   5.013   0.712   0.055 -0.1235  1.7588  0.8404
12296TIP3    H258304   5.159   0.753   0.065  0.4947 -0.1554 -0.1394
12297TIP3   OH258305   5.662   0.571   4.063 -0.3600 -0.2449 -0.0828
12297TIP3    H158306   5.637   0.655   4.100 -1.8392 -0.2285 -1.0848
12297TIP3    H258307   5.635   0.506   4.128  0.5855  0.0296  0.5913
12298TIP3   OH258308   2.149   4.514  16.484  0.3668 -0.0443 -0.1886
12298TIP3    H158309   2.157   4.610  16.481  1.7859 -0.1092  1.0819
12298TIP3    H258310   2.059   4.499  16.512  0.8203  0.9779  1.9931
12299TIP3   OH258311   5.762   4.038   3.189  0.3184  0.1816  0.1941
12299TIP3    H158312   5.749   4.067   3.279  0.0058  0.0498  0.1914
12299TIP3    H258313   5.834   3.975   3.195  0.6040  0.5174  0.2842
12300TIP3   OH258314   3.256   6.455   2.141 -0.0258  0.5984 -0.7078
12300TIP3    H158315   3.207   6.467   2.223 -1.3359  1.1439 -1.5582
12300TIP3    H258316   3.253   6.360   2.125  1.0710  0.3651  0.3676
12301TIP3   OH258317   0.783   0.644  12.552 -0.5745 -0.1933  0.0414
12301TIP3    H158318   0.768   0.692  12.633  0.3467  0.5587 -0.2163
12301TIP3    H258319   0.761   0.553  12.572 -2.2462  0.3120  0.5721
12302TIP3   OH258320   2.392   6.367   3.294 -0.0638 -0.6658 -0.1280
12302TIP3    H158321   2.301   6.349   3.273 -0.5180 -0.4811  1.6014
12302TIP3    H258322   2.401   6.462   3.282 -0.0588 -0.7070 -0.4476
12303TIP3   OH258323   0.227   2.613   6.108  0.4625  0.2255  0.5207
12303TIP3    H158324   0.195   2.562   6.182  0.6801 -1.8748 -0.7585
12303TIP3    H258325   0.150   2.659   6.075 -0.6153 -2.2756 -0.5801
12304TIP3   OH258326   2.828   5.247  12.656  0.6994 -0.5080  0.0604
12304TIP3    H158327   2.839   5.172  12.598  0.1814  0.2119 -0.9745
12304TIP3    H258328   2.783   5.312  12.603 -0.7433 -0.2340  1.5843
12305TIP3   OH258329   5.738   4.681   3.384  0.2063 -0.0466 -0.0002
12305TIP3    H158330   5.688   4.672   3.465 -0.3656  0.5828 -0.2710
12305TIP3    H258331   5.701   4.614   3.326  1.6902 -1.5579  0.7749
12306TIP3   OH258332   5.800   1.220   4.911 -0.0481  0.3754 -0.2833
12306TIP3    H158333   5.744   1.191   4.983  1.6721  0.7660  1.2536
12306TIP3    H258334   5.812   1.314   4.927 -0.3982  0.6510 -1.6135
12307TIP3   OH258335   3.596   1.857  14.436  0.6476 -0.6300 -0.3729
12307TIP3    H158336   3.625   1.834  14.524  0.9183 -0.4775 -0.4220
12307TIP3    H258337   3.534   1.788  14.412 -1.3627  0.6984  0.9179
12308TIP3   OH258338   4.606   3.723  13.618  0.2011  0.6818  0.0727
12308TIP3    H158339   4.648   3.798  13.659  3.1110  0.0972 -1.6557
12308TIP3    H258340   4.524   3.758  13.581  0.7011  2.6178  0.7420
12309TIP3   OH258341   6.555   3.528  12.483  0.7705 -0.4004  0.0862
12309TIP3    H158342   6.535   3.599  12.543  0.7709  0.3532 -0.8015
12309TIP3    H258343   6.486   3.464  12.497  1.0773 -0.4823  1.2813
12310TIP3   OH258344   3.323   1.817   0.954  0.3910 -0.6523  0.1420
12310TIP3    H158345   3.344   1.739   0.902 -0.0556 -0.8564  0.2726
12310TIP3    H258346   3.374   1.806   1.034 -0.7213 -1.4663  0.7351
12311TIP3   OH258347   2.647   2.128   0.977 -0.2312  0.1323  0.1070
12311TIP3    H158348   2.605   2.043   0.965  0.4172  0.0023 -1.2957
12311TIP3    H258349   2.615   2.181   0.904  0.8493  0.5025 -0.0997
12312TIP3   OH258350   1.969   0.991   5.577 -0.0063 -0.4670 -0.1163
12312TIP3    H158351   2.001   0.979   5.488 -0.6182 -1.4173 -0.2076
12312TIP3    H258352   1.984   1.084   5.595  0.2926 -0.3110 -1.1319
12313TIP3   OH258353   5.096   5.744  11.322  0.5171  0.2965 -0.6287
12313TIP3    H158354   5.010   5.730  11.283 -0.1899  1.7394  0.3520
12313TIP3    H258355   5.156   5.693  11.267 -1.0257 -1.1760 -0.9759
12314TIP3   OH258356   4.029   1.248   0.826  0.2823  0.5311 -0.7176
12314TIP3    H158357   3.980   1.166   0.832 -0.2516  0.8818 -0.2305
12314TIP3    H258358   4.114   1.229   0.864  0.9888 -0.4297 -2.6797
12315TIP3   OH258359   5.196   6.062  16.007 -0.1991  0.2574  0.4678
12315TIP3    H158360   5.105   6.033  15.997 -0.1275  0.6539 -1.4540
12315TIP3    H258361   5.189   6.151  16.042 -0.5799  0.6054 -0.4786
12316TIP3   OH258362   3.372   4.602   6.040 -0.3500 -0.1150 -0.1811
12316TIP3    H158363   3.455   4.646   6.057 -2.0419  2.3764  2.2241
12316TIP3    H258364   3.383   4.514   6.076  1.6255 -0.2475 -1.0405
12317TIP3   OH258365   0.334   3.489   2.706  0.4062  0.2598  0.1574
12317TIP3    H158366   0.334   3.394   2.714 -1.9345  0.0817 -1.5788
12317TIP3    H258367   0.324   3.521   2.796  0.2971 -1.1481  0.6525
12318TIP3   OH258368   1.532   3.727   4.104  0.1092  0.0386  0.1663
12318TIP3    H158369   1.466   3.657   4.105  1.7929 -1.6878 -2.4089
12318TIP3    H258370   1.484   3.805   4.076 -1.5070 -0.3738  1.6620
12319TIP3   OH258371   2.879   3.201   2.945  0.1018  0.6375  0.4052
12319TIP3    H158372   2.793   3.213   2.904 -0.3375 -1.8730  0.4668
12319TIP3    H258373   2.859   3.187   3.037  0.5774  0.2262  0.4459
12320TIP3   OH258374   4.843   0.939   2.593  0.2822 -0.1008  0.1589
12320TIP3    H158375   4.936   0.926   2.575  0.2861  0.0481  0.0746
12320TIP3    H258376   4.840   0.972   2.682  0.1574 -2.3850  1.0165
12321TIP3   OH258377   4.698   0.243  13.942  0.4771  0.4152  0.2178
12321TIP3    H158378   4.727   0.312  14.002 -0.5384 -1.3244  2.8136
12321TIP3    H258379   4.612   0.271  13.912  0.3260  0.5661  0.7912
12322TIP3   OH258380   1.443   0.717   3.749 -0.3553 -0.1777  0.6195
12322TIP3    H158381   1.526   0.669   3.756 -0.6284 -0.8233 -0.4534
12322TIP3    H258382   1.379   0.661   3.792 -0.7582 -1.0015 -1.0180
12323TIP3   OH258383   1.128   2.365   0.317  0.7210  0.2521 -0.0543
12323TIP3    H158384   1.133   2.460   0.306  1.3815  0.2103 -0.1388
12323TIP3    H258385   1.192   2.345   0.384 -0.3300  0.0055  0.8830
12324TIP3   OH258386   5.759   3.229   0.959  0.3067  0.0028 -0.3366
12324TIP3    H158387   5.725   3.318   0.967  0.4626 -0.0156  0.6591
12324TIP3    H258388   5.694   3.174   1.002  1.1934 -0.1173  0.8816
12325TIP3   OH258389   0.419   1.905  14.033 -0.2694  0.1436  0.6023
12325TIP3    H158390   0.341   1.959  14.044 -0.7508 -0.3813 -0.1418
12325TIP3    H258391   0.417   1.880  13.940 -0.3958 -1.6380  1.0654
12326TIP3   OH258392   6.613   3.519  14.819  0.1307  0.2950  0.2469
12326TIP3    H158393   6.637   3.553  14.905 -0.1411 -1.1799  0.9192
12326TIP3    H258394   6.542   3.456  14.836 -1.0494  1.1843 -1.2237
12327TIP3   OH258395   4.948   6.194   6.170  0.6754 -0.3696  0.2015
12327TIP3    H158396   4.898   6.275   6.180  2.0277  0.5095 -0.0647
12327TIP3    H258397   4.882   6.125   6.172 -0.5228  0.7546  0.1593
12328TIP3   OH258398   4.494   1.553  12.311 -0.0874  0.0871 -0.0160
12328TIP3    H158399   4.510   1.542  12.404 -0.1309 -2.2713 -0.2597
12328TIP3    H258400   4.575   1.525  12.268 -0.5246 -0.1276 -0.7232
12329TIP3   OH258401   1.168   3.124  11.077  0.1128  0.1160  0.0424
12329TIP3    H158402   1.130   3.093  10.995 -0.3893 -0.6602  0.5678
12329TIP3    H258403   1.172   3.219  11.067 -2.5268  0.2593  0.2273
12330TIP3   OH258404   6.687   1.031   4.972  0.5809  0.1380  0.8586
12330TIP3    H158405   6.648   0.945   4.957 -0.7451  0.9513 -0.4614
12330TIP3    H258406   6.777   1.022   4.940 -0.5219  0.1783 -2.4940
12331TIP3   OH258407   6.279   2.177   4.932 -0.9553  0.3755  0.3450
12331TIP3    H158408   6.280   2.249   4.995 -0.5408  0.8770 -0.2254
12331TIP3    H258409   6.278   2.221   4.847  1.2278 -0.2898 -0.0465
12332TIP3   OH258410   1.079   4.357  11.952  0.8126  0.7309 -0.2176
12332TIP3    H158411   1.025   4.435  11.940 -0.0887 -0.0825 -1.5819
12332TIP3    H258412   1.113   4.339  11.864  1.0144 -0.4094  0.0945
12333TIP3   OH258413   1.061   6.469   4.733 -0.2508 -0.1035 -0.6006
12333TIP3    H158414   1.125   6.438   4.798  2.0291  2.7221 -1.3683
12333TIP3    H258415   0.990   6.506   4.786  0.0774 -0.7432  0.2992
12334TIP3   OH258416   4.765   2.767   3.277  0.1616 -0.5140 -0.2607
12334TIP3    H158417   4.804   2.703   3.337  0.5154  0.1814  0.2584
12334TIP3    H258418   4.836   2.787   3.215  0.1403 -0.4240 -0.2565
12335TIP3   OH258419   2.296   2.549   2.756 -0.0904 -0.4229  0.0591
12335TIP3    H158420   2.236   2.509   2.820 -0.8198 -0.8193 -0.8440
12335TIP3    H258421   2.301   2.484   2.686 -2.0381  1.4327 -1.8798
12336TIP3   OH258422   2.271   5.279   5.795 -0.0367 -0.3545 -0.1316
12336TIP3    H158423   2.177   5.287   5.781  0.2621  0.5963 -1.7858
12336TIP3    H258424   2.288   5.185   5.792 -1.0005 -0.5510  0.6293
12337TIP3   OH258425   0.050   3.660  12.296 -0.0970 -0.0394 -0.7896
12337TIP3    H158426   0.012   3.638  12.380  1.8368  0.9615  0.3860
12337TIP3    H258427   0.119   3.723  12.316  0.7034 -0.1201 -3.0669
12338TIP3   OH258428   5.638   0.095   1.583 -0.1441 -0.6906  0.1048
12338TIP3    H158429   5.552   0.132   1.605 -0.4442 -0.4352 -1.4209
12338TIP3    H258430   5.636   0.085   1.488  1.3931 -1.0035  0.0900
12339TIP3   OH258431   5.648   2.116  13.702 -0.0147  0.3420 -0.4754
12339TIP3    H158432   5.600   2.102  13.620 -0.9423 -0.7068  0.2410
12339TIP3    H258433   5.630   2.039  13.754  0.3434  1.1355  0.8416
12340TIP3   OH258434   3.543   0.905   6.299  0.2832  0.0303 -0.1812
12340TIP3    H158435   3.494   0.957   6.363  0.2710 -0.2779  0.0601
12340TIP3    H258436   3.482   0.838   6.270  0.0558  0.6175 -1.0688
12341TIP3   OH258437   3.315   2.013  12.323 -0.0199 -0.5836  0.4415
12341TIP3    H158438   3.319   1.963  12.241  0.5589 -1.0082  0.7185
12341TIP3    H258439   3.323   2.104  12.297 -0.3719 -0.6839 -0.0195
12342TIP3   OH258440   2.797   0.447   5.081  0.0290  0.0234 -0.3097
12342TIP3    H158441   2.704   0.463   5.088  0.3675  2.3077 -0.8347
12342TIP3    H258442   2.829   0.446   5.171  0.1488  3.4041 -0.2657
12343TIP3   OH258443   2.659   4.364  11.496  0.9784  0.4641 -0.1028
12343TIP3    H158444   2.650   4.401  11.408  1.3221  1.6032  0.3357
12343TIP3    H258445   2.689   4.437  11.550 -1.8957  0.5172  1.5386
12344TIP3   OH258446   6.008   5.629   0.346  0.4944  0.0082  0.2892
12344TIP3    H158447   6.057   5.550   0.369  0.0041 -0.1676  0.7371
12344TIP3    H258448   5.982   5.615   0.255 -2.9712 -2.1283  1.5186
12345TIP3   OH258449   6.238   5.197  12.179  0.2300  0.1636 -0.0210
12345TIP3    H158450   6.305   5.262  12.196  0.2127  0.1954 -0.0743
12345TIP3    H258451   6.173   5.210  12.248  0.1622  0.2889 -0.1065
12346TIP3   OH258452   3.237   5.659   5.546 -0.2886  0.0435  0.4242
12346TIP3    H158453   3.170   5.685   5.609  0.7629  0.9483  1.2001
12346TIP3    H258454   3.297   5.605   5.597  0.8113  1.1504  0.3357
12347TIP3   OH258455   4.690   2.582   5.086 -0.0434  0.1935  0.3564
12347TIP3    H158456   4.610   2.631   5.107  0.7798  2.2852 -1.2116
12347TIP3    H258457   4.659   2.510   5.030 -0.9073  0.6855  0.1869
12348TIP3   OH258458   1.878   2.531   4.490 -0.1607 -0.1747  0.0070
12348TIP3    H158459   1.861   2.593   4.561  2.2487  0.3626  0.1510
12348TIP3    H258460   1.973   2.532   4.479 -0.2491 -2.3787 -1.3245
12349TIP3   OH258461   0.326   3.713  11.425 -0.1472 -0.2283  0.1398
12349TIP3    H158462   0.344   3.806  11.416  1.7749 -0.5866  0.0605
12349TIP3    H258463   0.237   3.708  11.460  0.3111  1.6619  1.6166
12350TIP3   OH258464   1.370   0.042  12.195 -0.5492 -0.3525 -0.1457
12350TIP3    H158465   1.415  -0.039  12.169 -0.6285 -0.8445  1.2409
12350TIP3    H258466   1.311   0.060  12.122 -2.7794 -3.2300  0.8598
12351TIP3   OH258467   5.599   0.077  16.335  0.2528 -0.3269 -0.1464
12351TIP3    H158468   5.546   0.152  16.307 -0.3814 -0.4663  0.6482
12351TIP3    H258469   5.668   0.070  16.269  0.0100  0.6326 -0.5118
12352TIP3   OH258470   5.584   2.076  12.457  0.2152  0.1870 -0.3736
12352TIP3    H158471   5.546   2.138  12.395 -1.6544 -0.9844 -0.4456
12352TIP3    H258472   5.565   2.112  12.543  2.6885  1.7446 -0.4463
12353TIP3   OH258473   1.058   4.451  16.977  0.4612  0.3714  0.7043
12353TIP3    H158474   1.109   4.518  16.932  1.7261 -1.5077 -0.7371
12353TIP3    H258475   0.991   4.426  16.913 -0.9255  1.2829  1.7785
12354TIP3   OH258476   2.289   5.323  11.906  0.2216  0.4868 -1.0135
12354TIP3    H158477   2.260   5.236  11.932  2.2616  0.0877  0.1113
12354TIP3    H258478   2.278   5.326  11.811  0.7150 -1.2178 -1.1336
12355TIP3   OH258479   4.866   3.186  12.370 -0.5441 -0.0622 -0.7522
12355TIP3    H158480   4.911   3.106  12.344  0.5146 -0.1432  1.2321
12355TIP3    H258481   4.899   3.205  12.458 -3.1277  0.8079  0.0883
12356TIP3   OH258482   4.237   4.068  11.821  0.0377  0.1814  0.3719
12356TIP3    H158483   4.213   4.082  11.913  0.0798  0.1554  0.3871
12356TIP3    H258484   4.253   4.156  11.787 -0.1436  0.2026  0.3442
12357TIP3   OH258485   3.140   6.556  11.088 -0.4836  0.0085  0.1108
12357TIP3    H158486   3.121   6.570  10.995 -0.5277  0.9633  0.2513
12357TIP3    H258487   3.071   6.497  11.119 -0.2204 -0.6508 -0.5570
12358TIP3   OH258488   5.644   6.491  16.613 -0.2632  0.5634 -0.4232
12358TIP3    H158489   5.609   6.436  16.683 -0.5563 -0.2471 -1.2005
12358TIP3    H258490   5.566   6.518  16.563  0.0042  0.6517 -0.7943
12359TIP3   OH258491   6.142   2.507  13.157 -0.0365 -0.0540 -0.5695
12359TIP3    H158492   6.156   2.480  13.248 -2.2246 -0.3949 -0.3003
12359TIP3    H258493   6.096   2.590  13.164 -2.3253 -1.2133 -1.3073
12360TIP3   OH258494   2.126   0.687   2.291  0.2113 -0.0518  0.4865
12360TIP3    H158495   2.190   0.630   2.249 -0.9209 -2.0243  1.3563
12360TIP3    H258496   2.045   0.673   2.241 -0.8712 -1.6200  2.6063
12361TIP3   OH258497   4.650   3.612   0.750  0.1239 -0.7912  0.2421
12361TIP3    H158498   4.628   3.584   0.661 -0.5408 -0.1246  0.1931
12361TIP3    H258499   4.606   3.549   0.806  0.1688 -0.9452  0.1056
12362TIP3   OH258500   6.639   0.635  13.993 -1.0997 -0.2624  0.1697
12362TIP3    H158501   6.709   0.614  14.055 -1.3546  0.0483  0.5607
12362TIP3    H258502   6.568   0.669  14.047 -0.7575  1.4488 -0.4373
12363TIP3   OH258503   4.436   1.461  13.929  0.2995  0.1560  0.4309
12363TIP3    H158504   4.491   1.385  13.946 -1.1973 -1.1493 -0.3856
12363TIP3    H258505   4.382   1.469  14.008  0.7097  0.5851  0.6646
12364TIP3   OH258506   1.078   3.399   3.691 -0.1318 -0.0890 -0.1776
12364TIP3    H158507   1.129   3.328   3.730  0.0794 -0.7190 -1.5465
12364TIP3    H258508   1.059   3.368   3.602 -0.3971  1.3930 -0.6485
12365TIP3   OH258509   4.030   5.634   6.416 -0.0525  0.2499  0.1740
12365TIP3    H158510   3.999   5.543   6.411 -1.4009  0.5989  1.9109
12365TIP3    H258511   3.993   5.675   6.338  1.4718 -0.9439 -1.2150
12366TIP3   OH258512   5.409   3.493   5.191  0.1217  0.5505  0.6704
12366TIP3    H158513   5.379   3.435   5.261  0.0493 -0.2283  0.0009
12366TIP3    H258514   5.465   3.438   5.136 -1.3840  0.6099 -0.9827
12367TIP3   OH258515   1.695   6.375  17.043 -0.0027 -0.4338 -0.3016
12367TIP3    H158516   1.764   6.363  17.108 -1.6174 -0.8921  1.3691
12367TIP3    H258517   1.622   6.414  17.092 -0.3549  1.6298 -2.3781
12368TIP3   OH258518   2.393   5.756  10.567  0.4291 -0.1825  0.3835
12368TIP3    H158519   2.375   5.744  10.473 -2.1453 -0.3822  0.8649
12368TIP3    H258520   2.393   5.850  10.580 -3.1168 -0.1836  0.8349
12369TIP3   OH258521   6.719   5.036  11.939  0.0416  0.0495  0.9564
12369TIP3    H158522   6.716   5.129  11.915 -0.3552  0.1038  1.2117
12369TIP3    H258523   6.651   4.995  11.885 -0.5414  0.0944  1.6465
12370TIP3   OH258524   2.459   3.532  15.341 -0.4667 -0.1717 -0.1738
12370TIP3    H158525   2.547   3.551  15.373  1.2745 -1.1327 -4.0888
12370TIP3    H258526   2.462   3.439  15.317 -2.4969 -0.1568 -0.5459
12371TIP3   OH258527   2.244   4.290  16.880  0.2429  0.0172  0.0119
12371TIP3    H158528   2.280   4.361  16.826 -2.5488  1.7116  0.2971
12371TIP3    H258529   2.196   4.235  16.818  3.2934 -2.3086 -0.3913
12372TIP3   OH258530   2.620   6.082   5.827  0.2754 -0.0366  0.3557
12372TIP3    H158531   2.617   6.028   5.906  0.4044  0.2907  0.5879
12372TIP3    H258532   2.601   6.171   5.858 -2.8476 -0.3540 -0.4391
12373TIP3   OH258533   0.212   3.414  15.119 -0.1130  0.4624  0.2099
12373TIP3    H158534   0.188   3.448  15.033 -1.6052 -1.8625 -0.3675
12373TIP3    H258535   0.305   3.433  15.129 -0.1058  1.4150 -1.5892
12374TIP3   OH258536   3.645   0.440   2.544 -0.1755  0.8012 -0.0950
12374TIP3    H158537   3.600   0.404   2.467 -1.5709 -0.7369  1.4239
12374TIP3    H258538   3.725   0.388   2.551 -2.0821 -1.9807  1.9650
12375TIP3   OH258539   4.438   0.511  13.482  0.7615 -0.2369  0.0021
12375TIP3    H158540   4.441   0.422  13.518  0.1061 -0.0166  0.6044
12375TIP3    H258541   4.419   0.498  13.389  0.3837 -0.7141  0.1432
12376TIP3   OH258542   2.067   1.900  16.537 -0.2629  0.1541  0.1026
12376TIP3    H158543   1.975   1.912  16.514 -0.6402  0.0671  1.5499
12376TIP3    H258544   2.066   1.855  16.621  1.1101 -0.0852  0.0142
12377TIP3   OH258545   1.259   0.363   1.311  0.2789  0.6426  0.3224
12377TIP3    H158546   1.263   0.353   1.216 -0.2288  1.4187  0.2206
12377TIP3    H258547   1.349   0.383   1.337  0.8655 -1.7181  0.2611
12378TIP3   OH258548   1.644   6.251   0.687 -1.0421 -0.2075  0.4571
12378TIP3    H158549   1.584   6.321   0.710 -2.4049 -0.9341 -0.8319
12378TIP3    H258550   1.588   6.176   0.668  0.3068 -1.1288  0.0211
12379TIP3   OH258551   3.583   5.929   2.622  0.5356  0.1274  0.2628
12379TIP3    H158552   3.626   5.961   2.542  1.1507  0.1069  0.5838
12379TIP3    H258553   3.567   6.008   2.674  1.2755  0.0089  0.6755
12380TIP3   OH258554   2.726   0.707   4.460 -1.0006  0.2953  0.0362
12380TIP3    H158555   2.762   0.793   4.437  0.2443 -0.1075  0.4188
12380TIP3    H258556   2.697   0.670   4.377  1.4362 -0.2391 -0.6146
12381TIP3   OH258557   1.233   0.769  12.022  0.6053  0.2867  0.3926
12381TIP3    H158558   1.156   0.750  11.968  1.4961 -0.2206 -0.7214
12381TIP3    H258559   1.294   0.698  12.002  1.7686  1.2458  0.4975
12382TIP3   OH258560   5.733   1.829   4.275 -0.1179 -0.1639  0.1961
12382TIP3    H158561   5.750   1.917   4.244  0.1581 -0.2078  0.2255
12382TIP3    H258562   5.704   1.781   4.197  2.0579 -0.6776 -0.3227
12383TIP3   OH258563   5.701   6.292   2.821 -0.1296 -0.4912  0.1987
12383TIP3    H158564   5.749   6.218   2.786 -0.8716 -0.0730 -1.7490
12383TIP3    H258565   5.609   6.270   2.809 -0.4069 -0.2019  1.6325
12384TIP3   OH258566   3.520   2.054   3.530 -0.3681 -0.4796  0.2278
12384TIP3    H158567   3.491   1.963   3.519  0.7806 -1.0424  1.6639
12384TIP3    H258568   3.524   2.066   3.625  0.1889  0.8489  0.0432
12385TIP3   OH258569   2.103   4.015  11.726 -0.3280  0.1139 -0.5103
12385TIP3    H158570   2.121   3.992  11.817 -2.4716  0.0879 -0.0525
12385TIP3    H258571   2.102   3.932  11.680 -0.5404  0.0002 -0.3009
12386TIP3   OH258572   5.149   5.726  14.086 -0.2154  0.3264  0.5339
12386TIP3    H158573   5.109   5.696  14.168 -0.3667  0.4794  0.5184
12386TIP3    H258574   5.076   5.729  14.025 -0.0990  0.1960  0.3889
12387TIP3   OH258575   0.348   0.693  10.429 -0.5820 -0.1572  0.0658
12387TIP3    H158576   0.355   0.658  10.518  0.6331 -1.0816 -0.3603
12387TIP3    H258577   0.255   0.708  10.416 -1.0548 -2.2897  0.6649
12388TIP3   OH258578   6.108   3.581  10.849  0.2459 -0.2201  0.1056
12388TIP3    H158579   6.078   3.558  10.761 -3.1662 -0.6146  1.2994
12388TIP3    H258580   6.073   3.513  10.905  1.8585  0.3767  1.8856
12389TIP3   OH258581   1.401   3.669   3.766  0.1285  0.7961  0.2479
12389TIP3    H158582   1.383   3.664   3.860  1.8387 -0.8619  0.5283
12389TIP3    H258583   1.400   3.578   3.737  0.5928  1.2240 -1.1341
12390TIP3   OH258584   3.088   5.556   0.344 -0.2908  0.2604 -0.0513
12390TIP3    H158585   3.002   5.515   0.343  0.2553 -0.9698  1.1430
12390TIP3    H258586   3.125   5.535   0.258 -1.2519  0.9612 -0.6397
12391TIP3   OH258587   0.095   5.606   6.318  0.6248  1.0213 -0.3214
12391TIP3    H158588   0.051   5.528   6.284  2.6405 -0.1404 -0.3421
12391TIP3    H258589   0.028   5.651   6.369 -0.1112 -1.6292  1.1532
12392TIP3   OH258590   2.118   2.812   6.414 -0.6716  0.8912 -0.3892
12392TIP3    H158591   2.088   2.752   6.481  0.5672  0.3342 -0.3155
12392TIP3    H258592   2.129   2.757   6.336 -0.3683  1.1871 -0.5547
12393TIP3   OH258593   2.101   4.572   6.847  0.0961 -0.1632  0.7766
12393TIP3    H158594   2.078   4.654   6.889  2.5713  0.6040  0.7111
12393TIP3    H258595   2.164   4.531   6.906  0.3445 -1.1126 -0.1293
12394TIP3   OH258596   3.242   2.172  16.024 -0.1112  0.2819 -0.5154
12394TIP3    H158597   3.285   2.086  16.020  2.2108  1.4622 -1.8550
12394TIP3    H258598   3.230   2.197  15.933 -1.2349  1.1855 -0.1283
12395TIP3   OH258599   4.728   0.802   3.974 -0.4752 -0.3074 -0.6444
12395TIP3    H158600   4.731   0.882   3.922  1.3103  0.4581  0.6058
12395TIP3    H258601   4.636   0.792   3.998 -0.4528  2.3000  0.6244
12396TIP3   OH258602   5.681   6.382   3.201 -0.3800 -0.0127  0.7641
12396TIP3    H158603   5.692   6.474   3.223 -1.2531 -0.2595  2.2587
12396TIP3    H258604   5.745   6.366   3.131 -2.2993  2.4694 -1.6480
12397TIP3   OH258605   0.335   2.496   2.768  0.8253  0.2479  0.0164
12397TIP3    H158606   0.270   2.430   2.793 -0.0497  0.6924 -1.0239
12397TIP3    H258607   0.285   2.577   2.760  1.8427  0.9825  0.9931
12398TIP3   OH258608   0.251   0.460  16.575 -0.1402  0.0239  0.1012
12398TIP3    H158609   0.181   0.492  16.632  1.5193  3.7855  0.1389
12398TIP3    H258610   0.206   0.401  16.515 -2.7057 -0.4909  2.4125
12399TIP3   OH258611   4.787   6.259   3.098 -0.2822  0.5082 -0.2863
12399TIP3    H158612   4.756   6.234   3.185 -1.7741  2.3069 -0.2597
12399TIP3    H258613   4.872   6.299   3.114  0.2047 -0.6847  0.1448
12400TIP3   OH258614   6.340   0.792  14.721 -0.1614 -0.3371 -0.3540
12400TIP3    H158615   6.420   0.750  14.754  0.0807 -0.7578 -1.4455
12400TIP3    H258616   6.335   0.765  14.629 -0.5433  1.1979 -0.8116
12401TIP3   OH258617   5.992   0.469   1.327 -0.1136  0.1611 -0.1599
12401TIP3    H158618   6.012   0.521   1.405 -0.4539  0.9569 -0.5941
12401TIP3    H258619   5.952   0.389   1.361  1.0234 -0.1193  0.5490
12402TIP3   OH258620   0.856   5.003   0.665 -0.1217  0.4106 -0.1792
12402TIP3    H158621   0.926   5.001   0.729 -0.1835  0.6772 -0.1020
12402TIP3    H258622   0.869   4.924   0.613  1.3291  1.3728 -1.3287
12403TIP3   OH258623   2.516   5.229   4.367  0.1189 -0.0344 -0.6302
12403TIP3    H158624   2.477   5.146   4.393 -0.0677 -0.4392 -2.1732
12403TIP3    H258625   2.444   5.292   4.373  0.4399  0.1759  1.2525
12404TIP3   OH258626   3.709   6.730   4.954  0.2545  0.5584  0.0553
12404TIP3    H158627   3.638   6.716   4.891  1.3717  0.5468 -1.2194
12404TIP3    H258628   3.738   6.642   4.977  0.3196  0.5734  0.0342
12405TIP3   OH258629   0.760   2.929  12.541 -0.4098  0.2233 -0.3931
12405TIP3    H158630   0.759   3.007  12.597  0.2133 -0.0154 -0.0442
12405TIP3    H258631   0.817   2.953  12.467  0.1994 -0.0690 -0.0279
12406TIP3   OH258632   3.250   4.650  16.354 -0.1109  0.4182 -0.0808
12406TIP3    H158633   3.193   4.618  16.424  1.0534  0.1157  0.7601
12406TIP3    H258634   3.337   4.652  16.394  0.4650  0.8888 -1.3295
12407TIP3   OH258635   0.088   1.726  12.649 -0.4562  0.3098 -0.0375
12407TIP3    H158636   0.162   1.777  12.618 -0.0384  0.2208  0.7973
12407TIP3    H258637   0.075   1.755  12.739  0.3596 -1.6720  0.7581
12408TIP3   OH258638   2.049   2.121   2.513 -0.0063  0.0409  0.7849
12408TIP3    H158639   2.012   2.164   2.590 -0.1392  1.1025  0.1347
12408TIP3    H258640   1.993   2.150   2.441  1.2047  0.4763  0.0168
12409TIP3   OH258641   5.933   3.111  16.853  0.1418 -0.3054  0.6450
12409TIP3    H158642   5.987   3.091  16.776  0.0799  1.2339  0.1840
12409TIP3    H258643   5.845   3.082  16.829  0.7175 -2.6610  1.3327
12410TIP3   OH258644   1.438   1.321   5.030  0.3595  0.2355  0.0846
12410TIP3    H158645   1.495   1.314   5.107  0.6751 -1.2353 -0.2653
12410TIP3    H258646   1.400   1.233   5.020  0.3012  0.4117 -1.4128
12411TIP3   OH258647   0.675   1.222   2.886  0.3846  0.1649 -0.1588
12411TIP3    H158648   0.688   1.172   2.967  0.1449 -0.2854 -0.3983
12411TIP3    H258649   0.607   1.286   2.909  0.9218  0.5967  0.2411
12412TIP3   OH258650   2.915   2.782  13.252 -0.0120  0.2042  0.3282
12412TIP3    H158651   2.854   2.825  13.192  0.7934 -0.9790 -1.3572
12412TIP3    H258652   2.861   2.756  13.327 -1.5924 -0.9072 -1.1847
12413TIP3   OH258653   1.199   1.916  13.431 -0.0553  0.4003 -0.9082
12413TIP3    H158654   1.176   1.980  13.363  0.7300  1.7547  0.0870
12413TIP3    H258655   1.192   1.831  13.387  2.0230  1.3485 -3.1537
12414TIP3   OH258656   1.940   1.202  14.869  0.3446  0.6517 -0.2197
12414TIP3    H158657   1.898   1.155  14.797  1.3652 -1.2239  0.3742
12414TIP3    H258658   2.001   1.262  14.825 -1.5153  2.0054 -1.0103
12415TIP3   OH258659   5.244   5.584   4.635 -0.3214  0.5190 -0.3000
12415TIP3    H158660   5.234   5.506   4.689  0.0377  0.6861  0.0103
12415TIP3    H258661   5.245   5.656   4.697  0.9210  0.6505 -0.4457
12416TIP3   OH258662   3.296   4.014   0.946  0.3345  0.7162 -0.6973
12416TIP3    H158663   3.388   3.987   0.950  0.0843  0.0004  0.5408
12416TIP3    H258664   3.247   3.933   0.960 -0.4699  1.2749 -0.2566
12417TIP3   OH258665   4.432   0.890   2.124  0.5644  0.2486 -0.1123
12417TIP3    H158666   4.395   0.918   2.207  1.1579 -0.0973  0.2755
12417TIP3    H258667   4.465   0.801   2.141 -0.5834 -0.3858 -1.1019
12418TIP3   OH258668   1.605   1.647  11.300  0.1431 -0.2281  0.2964
12418TIP3    H158669   1.654   1.588  11.244  1.2194  0.3545  0.6028
12418TIP3    H258670   1.591   1.726  11.247  0.4092 -0.0108  0.5426
12419TIP3   OH258671   0.096   5.235   1.203  0.1289  0.2707 -0.5179
12419TIP3    H158672   0.015   5.245   1.152  1.1161  0.1072 -2.1552
12419TIP3    H258673   0.102   5.141   1.219 -0.5541  0.3975  0.5516
12420TIP3   OH258674   2.082   4.701  13.396  0.0198 -0.3532 -0.0357
12420TIP3    H158675   2.163   4.692  13.445  1.6614 -0.7877 -2.7133
12420TIP3    H258676   2.082   4.792  13.366 -1.5755  0.2573  1.7471
12421TIP3   OH258677   4.220   3.257  14.264  0.2879 -0.1747 -0.3642
12421TIP3    H158678   4.232   3.163  14.270 -1.3169 -0.4043 -0.3010
12421TIP3    H258679   4.133   3.273  14.302  0.3281  1.2609 -0.8146
12422TIP3   OH258680   3.138   5.092   0.907 -0.1999 -0.8918 -0.0264
12422TIP3    H158681   3.117   5.002   0.881 -0.3024 -1.1213  0.8395
12422TIP3    H258682   3.218   5.112   0.859  0.8484 -2.0950  1.1692
12423TIP3   OH258683   1.777   4.763   0.118  0.2111  0.5950  0.3870
12423TIP3    H158684   1.741   4.690   0.169 -2.8045  0.7719 -1.3812
12423TIP3    H258685   1.862   4.731   0.089 -0.8959 -2.1357 -0.0564
12424TIP3   OH258686   1.852   3.461  12.077 -0.3191 -0.3916  0.0121
12424TIP3    H158687   1.885   3.468  11.988  0.0289 -1.7030  0.0317
12424TIP3    H258688   1.773   3.407  12.070 -0.1422 -0.7240  0.5323
12425TIP3   OH258689   3.969   4.873   0.925  0.0018 -0.1647 -0.0812
12425TIP3    H158690   3.916   4.813   0.977  0.3468  0.7008  1.2823
12425TIP3    H258691   4.029   4.914   0.988  0.8896  0.3871 -1.2619
12426TIP3   OH258692   3.052   5.518  15.656  0.2961 -0.5354 -0.2391
12426TIP3    H158693   2.998   5.455  15.608 -1.4213 -0.0462  1.0176
12426TIP3    H258694   3.118   5.465  15.700 -0.4873 -1.3686 -0.0482
12427TIP3   OH258695   2.153   1.612  16.237 -0.2209  0.7624 -0.3812
12427TIP3    H158696   2.203   1.676  16.287 -0.9107  0.3513  0.8399
12427TIP3    H258697   2.063   1.624  16.265 -0.6594  0.7085 -1.7276
12428TIP3   OH258698   3.813   1.232   5.620  0.6420  0.7047  0.2104
12428TIP3    H158699   3.752   1.175   5.667  0.1602  0.6142 -0.5056
12428TIP3    H258700   3.826   1.307   5.677  0.2263  0.4972  0.5770
12429TIP3   OH258701   6.343   3.272   5.194 -0.0288 -0.2080 -0.0743
12429TIP3    H158702   6.438   3.268   5.199  0.0336  1.5295  0.5065
12429TIP3    H258703   6.322   3.365   5.206 -1.8634 -0.7263  1.0143
12430TIP3   OH258704   3.432   5.398  11.414  0.4995 -0.2317  0.1670
12430TIP3    H158705   3.359   5.340  11.392  0.8065 -0.6108  0.1398
12430TIP3    H258706   3.396   5.486  11.406  0.4007 -0.3820 -1.1630
12431TIP3   OH258707   4.554   5.210   6.096  0.5768 -0.0642  0.1933
12431TIP3    H158708   4.577   5.158   6.173 -0.5719 -0.1957  0.4695
12431TIP3    H258709   4.474   5.169   6.063 -0.6482  1.8398  0.7263
12432TIP3   OH258710   3.517   0.344   2.298  0.6032  0.6385 -0.4071
12432TIP3    H158711   3.515   0.258   2.255  3.4928  0.4525 -0.2391
12432TIP3    H258712   3.552   0.403   2.231  3.0101  0.7832  0.9605
12433TIP3   OH258713   0.602   0.216  11.705 -0.2769 -0.2686  0.3370
12433TIP3    H158714   0.508   0.202  11.718 -0.1548 -1.8725 -0.4237
12433TIP3    H258715   0.609   0.306  11.674 -1.6432 -0.3932 -0.3768
12434TIP3   OH258716   3.142   3.528   3.574  0.2169  0.5055 -0.2239
12434TIP3    H158717   3.158   3.454   3.515  0.8030  0.1284  0.3987
12434TIP3    H258718   3.066   3.573   3.536 -1.2414 -1.4128  0.3647
12435TIP3   OH258719   1.481   6.372  12.941  0.4224  0.0220  0.2556
12435TIP3    H158720   1.389   6.350  12.923  0.0794  1.8185 -0.2486
12435TIP3    H258721   1.529   6.292  12.918 -0.8104 -0.2688 -1.4609
12436TIP3   OH258722   1.731   1.032   1.698 -0.3123 -0.0381  0.3630
12436TIP3    H158723   1.653   0.978   1.711  0.7500 -1.6728  0.0950
12436TIP3    H258724   1.784   0.983   1.636  1.1155  0.8632  0.8470
12437TIP3   OH258725   0.749   1.824   1.551 -0.7234  0.4103  0.9147
12437TIP3    H158726   0.683   1.770   1.506 -1.8170  1.8735  0.6929
12437TIP3    H258727   0.718   1.828   1.641 -1.1686  1.4272  0.7220
12438TIP3   OH258728   2.986   4.492  10.739  0.2171  0.3459 -0.0820
12438TIP3    H158729   3.045   4.515  10.811  0.3612  1.0731 -0.4303
12438TIP3    H258730   2.967   4.575  10.696 -2.3286  0.3545  0.9756
12439TIP3   OH258731   2.369   0.072  14.983 -0.3096  0.0377 -0.3075
12439TIP3    H158732   2.381   0.051  14.890  0.6200 -2.8047  0.4276
12439TIP3    H258733   2.456   0.096  15.013 -0.3245 -0.5393  0.1940
12440TIP3   OH258734   3.436   4.241  13.828  0.0324 -0.0822  0.1668
12440TIP3    H158735   3.384   4.322  13.823  0.4432  0.0868 -1.3399
12440TIP3    H258736   3.519   4.269  13.867 -1.1237 -0.4284  2.9963
12441TIP3   OH258737   0.123   1.615  13.855  0.0260 -0.0591  0.3660
12441TIP3    H158738   0.106   1.568  13.774  0.8280 -1.6403  1.0999
12441TIP3    H258739   0.039   1.615  13.901 -0.4963  1.0751 -0.5671
12442TIP3   OH258740   1.638   5.966   2.378 -0.6231  0.1995 -0.0206
12442TIP3    H158741   1.670   5.882   2.411 -0.0773 -0.0836 -1.2381
12442TIP3    H258742   1.595   5.944   2.296  1.5346  1.4061 -1.4991
12443TIP3   OH258743   0.202   4.283  16.805 -0.0098  0.7501  0.5359
12443TIP3    H158744   0.251   4.251  16.729 -2.0921  1.7220 -1.2553
12443TIP3    H258745   0.183   4.204  16.856  2.6421  0.2656  0.8094
12444TIP3   OH258746   1.750   1.631   2.790  0.3765  0.4339 -0.6023
12444TIP3    H158747   1.701   1.633   2.708 -0.4658  4.1566 -0.1256
12444TIP3    H258748   1.841   1.646   2.764  0.2684  0.4830 -0.9537
12445TIP3   OH258749   0.317   0.104   6.213 -0.0980 -0.3951 -0.1050
12445TIP3    H158750   0.282   0.188   6.241  0.0428 -0.3613 -0.0273
12445TIP3    H258751   0.403   0.099   6.256 -1.4360 -2.0088  2.5568
12446TIP3   OH258752   1.912   2.396  14.385 -0.1725 -0.4239 -0.0929
12446TIP3    H158753   1.881   2.467  14.443 -1.0650 -0.6932 -0.2235
12446TIP3    H258754   1.855   2.403  14.309 -0.4702 -1.4874  0.0322
12447TIP3   OH258755   3.352   0.467   1.282 -0.7085  0.7447 -0.5261
12447TIP3    H158756   3.352   0.371   1.273 -1.2274  0.7177 -0.2495
12447TIP3    H258757   3.436   0.494   1.246  0.1018  0.0615  0.8264
12448TIP3   OH258758   2.202   5.049  11.683  0.6655 -0.0542 -0.1167
12448TIP3    H158759   2.168   4.965  11.653 -1.0302  0.8429 -0.7954
12448TIP3    H258760   2.127   5.090  11.728  1.0317  1.7013 -1.0743
12449TIP3   OH258761   3.842   0.483   4.112  0.1250  0.2834 -0.4724
12449TIP3    H158762   3.929   0.497   4.149  0.7989 -1.0505 -1.5120
12449TIP3    H258763   3.790   0.451   4.185  0.5297  0.9548  0.1220
12450TIP3   OH258764   5.187   1.420  16.994 -0.1656  0.6512 -0.1717
12450TIP3    H158765   5.208   1.511  16.973  0.0595 -0.0353 -3.1245
12450TIP3    H258766   5.152   1.384  16.913 -0.6856 -1.8008  1.0808
12451TIP3   OH258767   0.725   0.112   1.454 -0.2876 -0.4912  0.0525
12451TIP3    H158768   0.762   0.187   1.407 -0.0195 -0.8758 -0.3517
12451TIP3    H258769   0.798   0.075   1.503 -0.1775 -1.1188 -0.5752
12452TIP3   OH258770   3.870   2.559  11.860 -0.3849  0.0467 -0.1159
12452TIP3    H158771   3.827   2.644  11.868  0.0543  0.1904  0.7386
12452TIP3    H258772   3.962   2.580  11.843 -0.1121 -0.2578  1.0051
12453TIP3   OH258773   0.857   5.380   3.352  0.6140  0.2782  0.9273
12453TIP3    H158774   0.919   5.440   3.393  0.5976  0.3075  0.9098
12453TIP3    H258775   0.881   5.294   3.385  1.4254  0.1349  0.0064
12454TIP3   OH258776   4.324   1.863  14.397  0.7192 -0.5916  0.4026
12454TIP3    H158777   4.395   1.885  14.337 -0.1123 -2.3585 -1.3215
12454TIP3    H258778   4.328   1.768  14.405  0.3788 -0.4392  2.6512
12455TIP3   OH258779   6.653   6.662  16.463 -0.3024  0.2480 -0.5608
12455TIP3    H158780   6.602   6.584  16.441 -2.2181  0.2427  3.3938
12455TIP3    H258781   6.588   6.725  16.494  1.7231  1.6098  1.0497
12456TIP3   OH258782   3.970   0.086   2.846  0.2595 -0.0898  0.2258
12456TIP3    H158783   3.875   0.086   2.847  0.2408 -1.3063  4.0282
12456TIP3    H258784   3.993   0.030   2.772 -1.9449  0.0511 -0.6017
12457TIP3   OH258785   2.105   0.570   5.651 -0.4077  0.6078  0.3820
12457TIP3    H158786   2.041   0.588   5.582 -0.0254  1.2051  0.1780
12457TIP3    H258787   2.174   0.635   5.637  0.3778 -0.2028  0.4391
12458TIP3   OH258788   2.142   4.442   0.088  0.7723 -0.2925 -0.0700
12458TIP3    H158789   2.171   4.402   0.170 -1.0656 -1.5734 -0.0376
12458TIP3    H258790   2.186   4.392   0.019  1.5904  0.1965  0.0882
12459TIP3   OH258791   1.544   6.334   0.050  0.1404  1.1692 -0.1862
12459TIP3    H158792   1.588   6.410   0.090 -1.9211  2.0068  0.5717
12459TIP3    H258793   1.536   6.271   0.121  1.9907  0.1266 -0.8550
12460TIP3   OH258794   3.030   3.278  11.517 -0.4853  0.7865  0.3645
12460TIP3    H158795   2.952   3.291  11.463 -1.2163 -0.7878  1.0276
12460TIP3    H258796   3.102   3.278  11.454 -1.3256 -0.9277 -0.6342
12461TIP3   OH258797   3.574   3.169   2.398 -0.3671  0.1971 -0.4824
12461TIP3    H158798   3.530   3.122   2.469  1.4205 -0.5384  0.2012
12461TIP3    H258799   3.505   3.214   2.351 -1.5874  0.6696  1.7264
12462TIP3   OH258800   2.985   2.683  10.769 -0.1493 -0.1837  0.4159
12462TIP3    H158801   3.003   2.655  10.859 -0.6037  0.1797  0.6154
12462TIP3    H258802   2.992   2.602  10.718  1.8569 -0.1055  0.5162
12463TIP3   OH258803   2.951   3.983   1.066 -0.3486 -0.3402  0.2895
12463TIP3    H158804   3.025   3.924   1.082 -0.3342 -0.2012  0.7343
12463TIP3    H258805   2.873   3.928   1.077 -0.3560 -0.1355  1.3427
12464TIP3   OH258806   1.968   5.236   5.416 -0.4691  0.6384 -0.4134
12464TIP3    H158807   1.906   5.163   5.423  0.5709 -0.2169  0.0841
12464TIP3    H258808   1.969   5.275   5.503 -0.7834  1.0674 -0.5963
12465TIP3   OH258809   0.340   4.657  13.157  0.1121  0.4411 -0.4175
12465TIP3    H158810   0.278   4.706  13.103 -2.3698 -1.1399  0.9191
12465TIP3    H258811   0.300   4.656  13.244  1.6662 -1.2437  0.3106
12466TIP3   OH258812   1.077   4.956  16.410  0.0667  0.0285 -0.4593
12466TIP3    H158813   1.088   4.929  16.501 -0.0104 -1.1507 -0.7855
12466TIP3    H258814   1.031   5.040  16.415  0.9844  0.4926  0.6182
12467TIP3   OH258815   0.146   2.106   1.527  0.4001 -0.2778 -0.3316
12467TIP3    H158816   0.089   2.140   1.458  1.2670  0.4575 -0.7025
12467TIP3    H258817   0.164   2.016   1.501  1.3919  0.2490 -1.5193
12468TIP3   OH258818   3.550   4.810   3.764 -0.4900 -0.1487 -0.8533
12468TIP3    H158819   3.574   4.812   3.857  0.4797  1.9620 -1.1318
12468TIP3    H258820   3.620   4.759   3.722 -1.8899 -2.7178 -0.2089
12469TIP3   OH258821   3.077   4.257  12.031 -0.1043 -0.6129  0.8685
12469TIP3    H158822   2.986   4.261  12.004  0.3471 -0.6126 -0.6861
12469TIP3    H258823   3.081   4.309  12.111 -1.0663  1.1273 -0.1939
12470TIP3   OH258824   2.438   6.161   1.967  0.0540 -0.6279  0.6762
12470TIP3    H158825   2.532   6.173   1.951 -0.2491 -0.8500 -1.3376
12470TIP3    H258826   2.426   6.187   2.059  2.1123 -0.7865  1.0147
12471TIP3   OH258827   6.103   3.286   5.463  0.1758  0.4977  0.1259
12471TIP3    H158828   6.088   3.340   5.385 -0.7172 -2.2377 -1.6551
12471TIP3    H258829   6.104   3.196   5.431 -0.1883 -0.7163  3.2826
12472TIP3   OH258830   4.052   0.273   0.994  0.0449 -0.0825 -0.0169
12472TIP3    H158831   4.000   0.197   0.970  0.5278 -0.4475  0.0773
12472TIP3    H258832   4.081   0.310   0.911 -1.2706  0.7658 -0.1062
12473TIP3   OH258833   2.875   4.477  12.165 -0.1139 -0.1109 -0.0309
12473TIP3    H158834   2.831   4.397  12.138 -0.8987  0.6849 -1.1844
12473TIP3    H258835   2.879   4.530  12.085  0.7500  0.8299  0.6183
12474TIP3   OH258836   6.615   4.951  13.055  0.4565  0.2062 -0.2260
12474TIP3    H158837   6.646   5.032  13.096 -1.8006 -0.0587  2.1079
12474TIP3    H258838   6.688   4.890  13.063  1.5405  1.4584 -0.4028
12475TIP3   OH258839   1.495   3.033  15.386 -0.7101  0.6488 -0.2270
12475TIP3    H158840   1.511   3.087  15.463 -0.3768  0.5985 -0.2594
12475TIP3    H258841   1.576   2.983  15.374 -0.3372  1.4937 -1.2877
12476TIP3   OH258842   0.948   4.872   6.408 -0.4626  0.6082  0.3145
12476TIP3    H158843   0.855   4.895   6.400  0.0144  2.3674 -0.3740
12476TIP3    H258844   0.967   4.823   6.328 -1.1065 -0.8936  1.0643
12477TIP3   OH258845   0.449   4.155  13.368  0.4280  0.7937  0.5878
12477TIP3    H158846   0.501   4.132  13.291  1.7287  0.1209  1.6685
12477TIP3    H258847   0.430   4.248  13.356  0.9398  0.7893 -0.3468
12478TIP3   OH258848   2.284   1.764  11.624  0.3342  0.6004 -0.4395
12478TIP3    H158849   2.290   1.829  11.694  1.1224 -0.5598  0.5903
12478TIP3    H258850   2.192   1.769  11.595  0.1049  1.3711  0.3843
12479TIP3   OH258851   3.624   4.413  12.156 -0.0732 -0.0826 -0.1486
12479TIP3    H158852   3.555   4.475  12.180  1.0011  0.1336  2.6073
12479TIP3    H258853   3.637   4.426  12.062 -0.6594  3.0986  0.1527
12480TIP3   OH258854   5.502   5.806   0.702 -0.3170 -0.7162  0.3675
12480TIP3    H158855   5.557   5.782   0.777  0.5944 -0.9344 -0.3506
12480TIP3    H258856   5.475   5.722   0.665 -0.6603 -0.6103  0.3833
12481TIP3   OH258857   1.639   2.034   2.014  0.2243  0.5772 -0.2371
12481TIP3    H158858   1.554   2.005   1.983 -0.6293  1.9649  0.7310
12481TIP3    H258859   1.682   2.070   1.936 -0.4440  0.7223 -0.5366
12482TIP3   OH258860   1.898   2.904   5.577  0.3579 -0.0294 -0.0879
12482TIP3    H158861   1.850   2.845   5.518  1.3026 -1.1808  0.2679
12482TIP3    H258862   1.965   2.848   5.617  2.1805  1.6289 -0.7752
12483TIP3   OH258863   2.272   0.166  16.416  0.0948 -0.3937 -0.1577
12483TIP3    H158864   2.295   0.151  16.507  0.9347  0.5764 -0.1961
12483TIP3    H258865   2.220   0.247  16.417 -0.0463 -0.4761 -0.5151
12484TIP3   OH258866   0.545   0.410  13.547 -0.0851 -0.1547 -0.2209
12484TIP3    H158867   0.506   0.451  13.624 -2.5259  0.0818 -1.5447
12484TIP3    H258868   0.557   0.481  13.485  2.6433 -0.1960  0.1661
12485TIP3   OH258869   4.622   4.046   4.378 -0.6738 -0.1136  0.2564
12485TIP3    H158870   4.601   3.954   4.366 -0.3789 -0.2279  0.6059
12485TIP3    H258871   4.605   4.086   4.293  0.0938 -0.6595 -0.1661
12486TIP3   OH258872   4.324   5.761   2.591 -0.4163 -0.4840  0.3834
12486TIP3    H158873   4.348   5.847   2.558 -0.0299  0.3205  2.6622
12486TIP3    H258874   4.393   5.739   2.654 -0.5096 -2.4601 -0.1746
12487TIP3   OH258875   6.497   3.732   5.505 -0.4095  0.0515 -0.2668
12487TIP3    H158876   6.446   3.691   5.575  0.1239  0.3963  0.3280
12487TIP3    H258877   6.466   3.822   5.502 -1.0136 -0.1752 -1.0378
12488TIP3   OH258878   1.164   0.571  14.805  0.2775  0.3406 -0.6176
12488TIP3    H158879   1.146   0.620  14.724  2.5823  5.3296  1.6940
12488TIP3    H258880   1.246   0.527  14.788  0.7523  1.3706 -1.0598
12489TIP3   OH258881   1.258   1.870  15.787 -0.5188  0.2720  0.3297
12489TIP3    H158882   1.327   1.909  15.840 -0.9259 -0.2056  1.2420
12489TIP3    H258883   1.277   1.896  15.697 -0.9484  2.8057  0.9445
12490TIP3   OH258884   2.794   3.001  11.539 -0.6090  0.2954 -0.1784
12490TIP3    H158885   2.701   2.986  11.554 -0.2930  0.3544  1.9529
12490TIP3    H258886   2.797   3.047  11.455 -2.5389  0.6987 -0.0539
12491TIP3   OH258887   5.997   4.239   3.342  0.3532 -0.4452 -0.3394
12491TIP3    H158888   6.037   4.158   3.373  1.2076 -0.1028 -0.5292
12491TIP3    H258889   5.903   4.223   3.349  0.4793 -2.0205 -1.7980
12492TIP3   OH258890   1.111   6.566   1.122  0.1562  0.3457  0.0029
12492TIP3    H158891   1.179   6.627   1.153 -0.0956  0.0011  1.2541
12492TIP3    H258892   1.161   6.490   1.090  0.4300  0.7648 -0.5608
12493TIP3   OH258893   3.521   2.457  11.854 -0.1865 -0.3367  0.0993
12493TIP3    H158894   3.522   2.513  11.777  0.2041 -0.7114 -0.1748
12493TIP3    H258895   3.597   2.400  11.843  0.0717 -0.1524  0.9370
12494TIP3   OH258896   2.731   4.246   3.877 -0.0573 -0.0489  0.0997
12494TIP3    H158897   2.689   4.291   3.804  0.7717  0.1698 -0.2508
12494TIP3    H258898   2.698   4.290   3.955 -0.7240 -0.0936 -0.1603
12495TIP3   OH258899   1.808   0.985   4.605 -0.1058  0.0273  0.2392
12495TIP3    H158900   1.758   1.046   4.660  0.4634 -0.8314  1.7329
12495TIP3    H258901   1.876   0.950   4.662  0.4188 -0.9999 -0.9698
12496TIP3   OH258902   4.093   6.292   0.867  0.0543  0.8713 -0.2671
12496TIP3    H158903   4.021   6.350   0.890 -0.1071  0.4390  0.3408
12496TIP3    H258904   4.058   6.204   0.880  0.6880  0.6586  0.0278
12497TIP3   OH258905   1.831   2.184   3.893  0.4568 -0.7976 -0.3819
12497TIP3    H158906   1.918   2.189   3.855  1.0299 -1.3654  0.8238
12497TIP3    H258907   1.780   2.132   3.832  1.0303 -0.6762 -0.9645
12498TIP3   OH258908   1.092   5.347   6.038  0.1715  0.7717 -0.0912
12498TIP3    H158909   0.997   5.358   6.045  0.2182  0.2302  1.4466
12498TIP3    H258910   1.124   5.354   6.127  1.2509 -2.0546 -0.2231
12499TIP3   OH258911   0.981   1.825   5.831 -0.1307 -0.5828 -0.1954
12499TIP3    H158912   0.911   1.870   5.879 -0.1234  1.8156 -2.3311
12499TIP3    H258913   0.934   1.760   5.777 -0.3800 -1.2902  0.8472
12500TIP3   OH258914   5.799   0.866  12.710 -0.3260  0.0034 -0.6924
12500TIP3    H158915   5.761   0.920  12.641  1.8324  2.0922 -0.3196
12500TIP3    H258916   5.892   0.890  12.711 -0.1583 -0.5238  2.3960
12501TIP3   OH258917   3.577   5.496  16.486  0.1007 -0.5878 -0.0093
12501TIP3    H158918   3.623   5.457  16.411 -0.1040  0.0771 -0.4877
12501TIP3    H258919   3.612   5.449  16.562  0.3864 -1.2037 -0.5055
12502TIP3   OH258920   0.784   6.263  12.363  0.6248 -0.7232  0.0835
12502TIP3    H158921   0.773   6.358  12.366  1.0755 -0.5819 -2.0423
12502TIP3    H258922   0.698   6.229  12.389  0.5765  0.2405  1.2549
12503TIP3   OH258923   0.595   1.466   3.455 -0.0236 -0.0086  0.1699
12503TIP3    H158924   0.657   1.535   3.430 -2.2812  2.2977  0.7195
12503TIP3    H258925   0.584   1.476   3.549 -0.6070 -0.9516  0.2061
12504TIP3   OH258926   6.192   5.535   5.095  0.0557 -0.1441  0.3781
12504TIP3    H158927   6.259   5.466   5.085  0.4285  0.1029  1.1794
12504TIP3    H258928   6.151   5.540   5.008  1.5062  0.1454 -0.3196
12505TIP3   OH258929   5.604   2.195   1.781  0.1851 -0.1950  0.0063
12505TIP3    H158930   5.531   2.245   1.819  0.4431  1.0522 -1.1043
12505TIP3    H258931   5.679   2.254   1.785  0.8766 -1.0660  0.1131
12506TIP3   OH258932   0.185   5.318   3.782  0.6524 -0.4243 -0.0072
12506TIP3    H158933   0.224   5.405   3.791  0.7627 -0.3325 -1.3222
12506TIP3    H258934   0.254   5.264   3.744 -0.3104 -0.3710 -1.9251
12507TIP3   OH258935   3.119   0.672  15.646  0.0537 -0.0073  0.6346
12507TIP3    H158936   3.107   0.602  15.581 -0.3716 -0.2356  0.9577
12507TIP3    H258937   3.130   0.751  15.594  0.8774 -0.3614  0.2526
12508TIP3   OH258938   4.370   5.301  14.046  0.3442 -0.0820  0.4179
12508TIP3    H158939   4.326   5.350  14.115  0.4564 -1.8149  1.7410
12508TIP3    H258940   4.318   5.320  13.967 -0.8196  0.5090  1.3101
12509TIP3   OH258941   0.085   5.205   5.380  0.2627 -0.1849 -0.4846
12509TIP3    H158942   0.048   5.165   5.301 -0.1647 -2.0213  0.6314
12509TIP3    H258943   0.018   5.267   5.409 -0.4635 -0.9752 -0.4443
12510TIP3   OH258944   0.237   6.374   1.485  0.6081 -0.5580 -0.1321
12510TIP3    H158945   0.161   6.390   1.429 -0.1056 -1.9008  0.4185
12510TIP3    H258946   0.309   6.419   1.442 -0.7589  1.8613  0.0373
12511TIP3   OH258947   6.399   0.237   2.443  0.0125  0.0861  0.7147
12511TIP3    H158948   6.336   0.272   2.379 -1.4436 -0.7026  1.6923
12511TIP3    H258949   6.440   0.315   2.480  0.3025  0.5815 -0.6063
12512TIP3   OH258950   0.056   1.388   3.814  0.2206  0.3813 -0.2582
12512TIP3    H158951   0.104   1.314   3.777 -1.1623 -1.0763  0.7867
12512TIP3    H258952   0.108   1.414   3.891  1.3856  1.3533 -1.3477
12513TIP3   OH258953   2.659   1.155   1.684  0.1295 -0.4256 -0.2057
12513TIP3    H158954   2.585   1.203   1.646  0.1682  0.3076  0.6480
12513TIP3    H258955   2.640   1.064   1.664 -1.1813 -0.2790  0.2954
12514TIP3   OH258956   0.356   5.157  13.534  0.2361 -0.3266  0.0211
12514TIP3    H158957   0.339   5.250  13.545 -0.3543 -0.6335  1.9015
12514TIP3    H258958   0.269   5.118  13.525  0.3905 -0.8725  0.8214
12515TIP3   OH258959   4.147   5.812   0.186 -0.3451 -0.1205 -0.2565
12515TIP3    H158960   4.132   5.812   0.091 -0.8896  0.6043 -0.1761
12515TIP3    H258961   4.240   5.835   0.194 -0.1033 -0.9629 -0.6395
12516TIP3   OH258962   2.132   4.174   1.046 -0.5843 -0.2574  0.1496
12516TIP3    H158963   2.174   4.194   0.963  0.2158 -2.5944 -0.0259
12516TIP3    H258964   2.047   4.137   1.022 -0.2553 -1.1595  0.3581
12517TIP3   OH258965   1.092   5.079   5.807 -0.2335 -0.1514 -0.5980
12517TIP3    H158966   1.164   5.092   5.869  1.3840 -1.1520 -2.2333
12517TIP3    H258967   1.116   5.131   5.730 -0.7943 -1.2386 -1.5261
12518TIP3   OH258968   5.256   6.050   4.021 -0.3496  0.1393 -0.2797
12518TIP3    H158969   5.231   6.135   3.984 -0.5349 -0.8349 -2.4804
12518TIP3    H258970   5.350   6.045   4.010 -0.0462  0.9012  1.7408
12519TIP3   OH258971   2.067   6.680  15.810  0.4533  0.0160  0.0641
12519TIP3    H158972   2.090   6.592  15.840  1.1769 -0.2340 -1.2132
12519TIP3    H258973   2.092   6.682  15.718 -0.3435  1.2838 -0.1414
12520TIP3   OH258974   6.485   1.683   1.063 -0.1743 -0.2090 -0.0689
12520TIP3    H158975   6.542   1.680   1.140 -0.7224 -0.6293  0.3227
12520TIP3    H258976   6.421   1.752   1.083 -0.2404 -0.2311 -0.2026
12521TIP3   OH258977   5.516   1.970  13.465 -0.5438  0.6445 -0.0051
12521TIP3    H158978   5.432   1.970  13.420 -0.2920 -1.8411 -0.5383
12521TIP3    H258979   5.516   1.889  13.517  1.3622  0.7869  0.2556
12522TIP3   OH258980   5.896   2.846   0.271 -0.4345  0.0649  0.5940
12522TIP3    H158981   5.940   2.830   0.354  1.0331  0.7927 -0.0299
12522TIP3    H258982   5.803   2.850   0.294 -0.1485 -0.9870  2.0003
12523TIP3   OH258983   3.973   1.035   5.516  1.0811 -0.2726 -0.1222
12523TIP3    H158984   3.917   1.099   5.559  2.1819 -0.1462  1.1902
12523TIP3    H258985   3.913   0.973   5.476  0.0032  0.0758  0.9209
12524TIP3   OH258986   5.454   6.745  14.075 -0.5733 -0.3925  0.2882
12524TIP3    H158987   5.375   6.766  14.125 -0.3035 -2.3361  1.5910
12524TIP3    H258988   5.441   6.655  14.046  0.6096 -0.2912 -0.5928
12525TIP3   OH258989   0.754   3.821   4.400  0.1167 -0.1225 -0.0690
12525TIP3    H158990   0.667   3.788   4.423  0.1909 -0.8126 -0.7524
12525TIP3    H258991   0.802   3.823   4.483 -0.4986  0.1134  0.2851
12526TIP3   OH258992   0.162   5.585  15.354  0.1302  0.2419  0.2519
12526TIP3    H158993   0.216   5.577  15.433 -0.2427  0.7092  0.5511
12526TIP3    H258994   0.211   5.537  15.288  0.0837 -0.7852  0.9445
12527TIP3   OH258995   2.707   6.082   4.771  0.6385 -0.9407  0.1746
12527TIP3    H158996   2.659   6.000   4.758  1.8341 -1.5315 -0.6231
12527TIP3    H258997   2.646   6.150   4.744  0.3127 -1.6959 -1.0358
12528TIP3   OH258998   0.531   4.915   2.754  0.1589  0.4580  0.3994
12528TIP3    H158999   0.466   4.863   2.706  0.9427  1.7418 -2.1542
12528TIP3    H259000   0.602   4.854   2.772 -0.1629 -0.0540 -0.0516
12529TIP3   OH259001   2.384   0.396  17.175 -0.2729  0.3341  0.3253
12529TIP3    H159002   2.395   0.373  17.267 -1.0875  0.9179  0.5715
12529TIP3    H259003   2.474   0.400  17.141  0.0522  0.4997  1.1866
12530TIP3   OH259004   6.258   5.813  14.629  0.3079 -0.2650 -0.0900
12530TIP3    H159005   6.273   5.756  14.705  1.6379  2.6461  1.9485
12530TIP3    H259006   6.166   5.800  14.606  0.2202 -2.1306  1.2099
12531TIP3   OH259007   3.022   3.381  12.440 -0.1657 -0.6310 -0.3230
12531TIP3    H159008   3.106   3.424  12.423 -1.3313  1.1100 -1.7404
12531TIP3    H259009   3.034   3.292  12.407  1.7852 -1.0342  1.3445
12532TIP3   OH259010   5.309   6.509   1.053 -0.2894  0.5256  0.2295
12532TIP3    H159011   5.361   6.434   1.024  0.1326  0.3295  1.4452
12532TIP3    H259012   5.223   6.472   1.072 -0.7503  0.7646 -1.3259
12533TIP3   OH259013   5.135   5.699   0.719 -0.6199  0.1500 -0.0549
12533TIP3    H159014   5.152   5.606   0.706  1.7610  0.4782  0.5326
12533TIP3    H259015   5.137   5.737   0.631  1.3618  0.0935 -0.0612
12534TIP3   OH259016   2.805   2.666   0.415 -0.5871 -0.0070  0.3761
12534TIP3    H159017   2.751   2.669   0.337  0.7085  0.0087 -0.5402
12534TIP3    H259018   2.799   2.575   0.445 -0.5300 -0.1852 -0.1485
12535TIP3   OH259019   0.639   5.091  16.835  0.7915 -0.2764  0.2257
12535TIP3    H159020   0.667   5.061  16.922  1.9865  0.3299  0.0617
12535TIP3    H259021   0.566   5.033  16.812  0.9645 -0.9445  1.2991
12536TIP3   OH259022   2.426   4.791  13.942  0.1944  0.0395 -0.6224
12536TIP3    H159023   2.372   4.795  13.863  1.5087 -0.0959 -1.5505
12536TIP3    H259024   2.516   4.788  13.909  0.7577 -0.0315  0.8872
12537TIP3   OH259025   1.478   3.197   6.516 -0.2699  0.3143  0.6669
12537TIP3    H159026   1.437   3.112   6.503  2.7232 -1.0115 -0.6271
12537TIP3    H259027   1.556   3.195   6.460  0.9434  3.1412  2.1408
12538TIP3   OH259028   5.249   4.812   6.064 -0.5349  0.3682  0.0132
12538TIP3    H159029   5.181   4.746   6.055 -0.9823  0.5248  2.0582
12538TIP3    H259030   5.208   4.894   6.037 -1.4002  0.5846  1.9130
12539TIP3   OH259031   2.849   2.206  15.383  0.2131 -0.2346 -0.3744
12539TIP3    H159032   2.890   2.213  15.296  0.0758 -0.7715 -0.4830
12539TIP3    H259033   2.833   2.112  15.394 -1.0833 -0.0158 -0.3806
12540TIP3   OH259034   1.771   0.500  15.647  0.0594  0.2059  0.7136
12540TIP3    H159035   1.860   0.536  15.643  0.7847 -1.5643  0.7126
12540TIP3    H259036   1.747   0.507  15.740  0.2931  0.4652  0.7548
12541TIP3   OH259037   1.428   6.432   1.758 -0.1091  0.3223  0.1787
12541TIP3    H159038   1.337   6.456   1.773 -0.5891 -0.4246 -1.4813
12541TIP3    H259039   1.464   6.502   1.704 -0.0354 -0.0127 -0.2060
12542TIP3   OH259040   1.925   3.907  12.299 -0.0837  0.2620  0.4708
12542TIP3    H159041   1.855   3.863  12.347 -1.5854 -0.1676 -2.0581
12542TIP3    H259042   1.898   3.904  12.208  3.3334 -0.0857 -0.6011
12543TIP3   OH259043   3.585   6.296   3.513 -0.1901  0.6367  0.3409
12543TIP3    H159044   3.528   6.249   3.453  0.9417 -0.6675  0.2428
12543TIP3    H259045   3.547   6.280   3.600  1.4528 -2.4578  0.5575
12544TIP3   OH259046   3.160   1.473   0.141 -0.5592  0.1094 -1.0390
12544TIP3    H159047   3.127   1.435   0.059  0.5607  1.1516 -2.0050
12544TIP3    H259048   3.107   1.433   0.209 -2.0532 -0.1977 -2.3465
12545TIP3   OH259049   5.384   3.302  15.441  0.3779  0.3248  0.2895
12545TIP3    H159050   5.304   3.268  15.480 -0.5785 -1.4246 -2.9529
12545TIP3    H259051   5.445   3.228  15.440  1.9193  1.5006  2.2656
12546TIP3   OH259052   2.047   2.928  16.870  0.4245  0.0820  0.5291
12546TIP3    H159053   2.047   2.977  16.952 -0.0559 -0.1398  0.6659
12546TIP3    H259054   1.957   2.936  16.838  0.8009  0.8128 -0.3667
12547TIP3   OH259055   3.726   4.075  11.007 -0.2180 -0.3649 -0.1877
12547TIP3    H159056   3.686   3.995  11.041  0.6248 -0.6694  0.0890
12547TIP3    H259057   3.820   4.059  11.012 -0.0602  0.3123 -0.9256
12548TIP3   OH259058   0.513   5.613  11.599  0.4737  0.6590  0.3929
12548TIP3    H159059   0.543   5.614  11.509 -0.4302  0.4329  0.0867
12548TIP3    H259060   0.578   5.559  11.645  1.6851  1.8780  0.1638
12549TIP3   OH259061   6.286   1.617  12.708 -0.5234 -0.6417 -0.1130
12549TIP3    H159062   6.367   1.571  12.684 -0.8486 -1.9906  1.3401
12549TIP3    H259063   6.303   1.651  12.795 -1.4949 -0.8623  0.1642
12550TIP3   OH259064   5.086   6.118   0.879 -0.3080  0.5855 -0.1279
12550TIP3    H159065   5.040   6.131   0.962  0.1181  1.0588  0.0355
12550TIP3    H259066   5.068   6.027   0.856  1.0856 -0.1254  1.4135
12551TIP3   OH259067   3.247   0.691  14.255 -0.3776 -0.1275 -0.1821
12551TIP3    H159068   3.155   0.669  14.245 -1.2259  4.2921 -3.3020
12551TIP3    H259069   3.251   0.741  14.336 -0.7385 -0.0855 -0.1902
12552TIP3   OH259070   6.627   4.780   3.657 -0.6986  0.0820  0.1229
12552TIP3    H159071   6.614   4.738   3.572  1.1215  0.9764 -0.6312
12552TIP3    H259072   6.607   4.873   3.642 -3.3975 -0.2336  1.4539
12553TIP3   OH259073   6.535   1.557  16.567 -0.2642 -0.0060  0.0788
12553TIP3    H159074   6.444   1.533  16.547  0.2702 -1.5481 -0.5721
12553TIP3    H259075   6.579   1.474  16.580  0.8766  0.7678  1.2749
12554TIP3   OH259076   2.913   1.664  15.484 -0.5178  0.4707  0.0060
12554TIP3    H159077   2.954   1.617  15.556 -0.6619  0.2266 -0.0730
12554TIP3    H259078   2.985   1.711  15.442 -0.2241 -0.4240 -0.4929
12555TIP3   OH259079   4.150   0.781   3.664 -0.1245 -0.5469  0.0463
12555TIP3    H159080   4.209   0.712   3.634 -0.6865 -1.1799  0.3851
12555TIP3    H259081   4.147   0.843   3.591  0.4640 -0.8309 -0.2212
12556TIP3   OH259082   2.802   1.531  11.901 -0.3738 -0.2692  0.2364
12556TIP3    H159083   2.713   1.533  11.865  0.3664 -0.3639 -1.6261
12556TIP3    H259084   2.822   1.438  11.911 -0.5852 -0.2441  0.9658
12557TIP3   OH259085   0.783   4.820  14.117 -0.5140  0.5761 -0.0706
12557TIP3    H159086   0.855   4.788  14.171 -1.1278 -1.2682 -0.3146
12557TIP3    H259087   0.734   4.741  14.094  0.2791  1.1901 -4.1189
12558TIP3   OH259088   2.370   4.864   1.057  0.0079 -0.1079 -0.2814
12558TIP3    H159089   2.318   4.815   1.121 -0.6138 -0.0291 -0.7196
12558TIP3    H259090   2.407   4.797   1.000  1.6765 -0.2761  0.9691
12559TIP3   OH259091   3.231   2.572  16.445 -0.1816 -0.1538  0.5040
12559TIP3    H159092   3.297   2.621  16.494 -1.1263  0.2372  1.3911
12559TIP3    H259093   3.251   2.480  16.463 -0.6842 -0.0092  1.8427
12560TIP3   OH259094   3.381   0.928  15.152  0.4030  0.0812  0.3552
12560TIP3    H159095   3.447   0.860  15.158  0.2500 -0.1925 -0.9075
12560TIP3    H259096   3.417   0.992  15.091 -0.3446  0.0744 -0.1144
12561TIP3   OH259097   0.941   0.353   3.674 -0.1145 -0.1658 -0.1904
12561TIP3    H159098   0.958   0.445   3.696  1.0433 -0.2334 -0.7769
12561TIP3    H259099   1.017   0.326   3.623 -0.2306 -1.5987  0.3801
12562TIP3   OH259100   5.333   2.060   3.468  0.3589 -0.2136 -0.1313
12562TIP3    H159101   5.324   1.974   3.510 -0.5144 -0.6488 -1.1969
12562TIP3    H259102   5.427   2.077   3.468  0.6857 -1.9329 -1.4283
12563TIP3   OH259103   6.135   5.611  16.337  0.3613 -0.3694 -0.0626
12563TIP3    H159104   6.220   5.655  16.336 -0.2191  0.8232  1.2425
12563TIP3    H259105   6.136   5.558  16.416 -1.2244  1.9636  1.5759
12564TIP3   OH259106   4.192   3.305  10.907 -0.1131 -0.2023  0.0535
12564TIP3    H159107   4.151   3.228  10.948 -0.2959 -0.6759 -1.0079
12564TIP3    H259108   4.208   3.365  10.980 -1.0626 -0.7521  0.7279
12565TIP3   OH259109   1.135   0.122   4.112  0.2409  0.1372 -0.2251
12565TIP3    H159110   1.090   0.086   4.188 -0.4149 -2.2046 -1.6843
12565TIP3    H259111   1.190   0.051   4.080  0.7692  1.2018 -1.7460
12566TIP3   OH259112   3.026   1.492   1.360  0.0615  0.5875 -0.0022
12566TIP3    H159113   2.939   1.475   1.396 -0.8661  2.5335 -1.2538
12566TIP3    H259114   3.067   1.405   1.356 -2.8696 -0.7927 -2.0944
12567TIP3   OH259115   0.094   4.196  13.748 -0.2304  0.0726  0.1208
12567TIP3    H159116   0.142   4.158  13.674  0.4775 -0.2497  0.7328
12567TIP3    H259117   0.161   4.209  13.815 -0.5984  1.7152  0.1976
12568TIP3   OH259118   4.724   3.882  16.748  0.3151  0.0978 -0.0341
12568TIP3    H159119   4.692   3.840  16.828 -0.5519 -2.7552 -1.8175
12568TIP3    H259120   4.656   3.946  16.726  0.5601  0.9092  1.4784
12569TIP3   OH259121   6.095   5.595   1.977 -0.8944  0.5561 -0.2046
12569TIP3    H159122   6.101   5.584   2.072 -2.5233  0.5579 -0.0813
12569TIP3    H259123   6.019   5.543   1.952 -0.2766  0.2835 -1.5663
12570TIP3   OH259124   5.660   1.680   0.509 -0.1181  0.1512  0.4473
12570TIP3    H159125   5.684   1.593   0.477 -1.5932  0.2558 -1.0434
12570TIP3    H259126   5.716   1.740   0.461 -1.5540  0.2295 -1.2002
12571TIP3   OH259127   2.614   5.386   0.585 -0.6413  0.1808  0.0161
12571TIP3    H159128   2.648   5.474   0.569  1.1381 -0.8689 -2.2839
12571TIP3    H259129   2.550   5.397   0.655 -0.2493  3.2509 -0.0550
12572TIP3   OH259130   5.863   0.547  14.586  0.0138  0.4388  0.5850
12572TIP3    H159131   5.861   0.628  14.636  1.9580  1.1444 -0.4112
12572TIP3    H259132   5.778   0.544  14.542  0.4886  2.7487 -0.5827
12573TIP3   OH259133   0.148   2.518  13.509 -0.1631 -0.4563 -0.3031
12573TIP3    H159134   0.202   2.548  13.583  0.4753  1.5204 -1.5481
12573TIP3    H259135   0.189   2.557  13.432 -2.8014  0.2951 -1.3722
12574TIP3   OH259136   4.016   5.486   1.239 -0.3178 -0.3440  0.6502
12574TIP3    H159137   3.953   5.422   1.271 -0.2919 -1.0050 -0.6041
12574TIP3    H259138   4.101   5.445   1.251 -0.1067  0.5237  2.2880
12575TIP3   OH259139   3.682   3.158  11.056 -0.0778  0.0497  0.3632
12575TIP3    H159140   3.697   3.155  11.151 -0.4825  0.3458  0.4361
12575TIP3    H259141   3.720   3.076  11.024 -0.7032 -0.4563  0.8956
12576TIP3   OH259142   0.739   0.213  17.080  0.0897  0.1536 -0.0063
12576TIP3    H159143   0.698   0.224  17.166  0.3168 -0.0690  0.1310
12576TIP3    H259144   0.712   0.291  17.031  0.2948  0.4886  0.4009
12577TIP3   OH259145   1.776   6.267  12.375  0.2725 -0.0203  0.0995
12577TIP3    H159146   1.733   6.353  12.371  0.1891 -0.1096 -1.3461
12577TIP3    H259147   1.711   6.210  12.416  0.4525  0.6707  1.3680
12578TIP3   OH259148   3.740   1.319  15.605 -0.2945  0.4386 -0.3610
12578TIP3    H159149   3.779   1.346  15.688 -1.8930  1.1917  0.1710
12578TIP3    H259150   3.676   1.252  15.630 -0.9888  0.8734 -0.9443
12579TIP3   OH259151   1.696   5.080   3.548  0.5068 -0.1819 -0.4777
12579TIP3    H159152   1.748   5.133   3.608  0.4037  1.2776 -1.6517
12579TIP3    H259153   1.743   4.997   3.543 -0.3833 -0.9649  2.9104
12580TIP3   OH259154   2.093   3.483  17.234  0.6528 -0.2840 -0.0792
12580TIP3    H159155   2.088   3.510  17.326  0.2497 -0.7097  0.0252
12580TIP3    H259156   2.177   3.437  17.227  0.7798 -0.0715  0.0248
12581TIP3   OH259157   5.285   5.764  14.431 -0.2771  0.9632 -0.1198
12581TIP3    H159158   5.325   5.820  14.498 -1.3690  1.9554 -0.2675
12581TIP3    H259159   5.342   5.771  14.355 -0.3977  1.8683 -0.1291
12582TIP3   OH259160   3.976   0.229  11.414  0.5832  0.1916  0.3397
12582TIP3    H159161   4.062   0.247  11.452  0.6548 -0.4385  0.4824
12582TIP3    H259162   3.933   0.172  11.477  0.1618  0.2802  0.1376
12583TIP3   OH259163   4.466   1.953   2.960 -0.1269 -0.2089  0.0695
12583TIP3    H159164   4.521   1.989   3.029  0.4629 -2.0103  0.5602
12583TIP3    H259165   4.523   1.892   2.913 -1.4708 -1.5456  0.1353
12584TIP3   OH259166   4.860   4.397  16.906 -0.0713 -0.4680  0.6538
12584TIP3    H159167   4.808   4.439  16.838  1.4059 -0.3961 -0.4476
12584TIP3    H259168   4.819   4.425  16.988 -2.7667 -1.7235 -0.2007
12585TIP3   OH259169   3.598   0.153   0.181  0.6646 -0.5287 -0.5603
12585TIP3    H159170   3.683   0.144   0.225 -0.2561 -1.3697  1.0765
12585TIP3    H259171   3.550   0.074   0.204 -2.3970  2.0664  2.6072
12586TIP3   OH259172   5.202   3.643   5.437 -0.2633  0.0033 -0.9805
12586TIP3    H159173   5.206   3.732   5.401 -1.3825  0.9668  1.1918
12586TIP3    H259174   5.116   3.610   5.411 -0.3424  0.0106 -0.7270
12587TIP3   OH259175   2.074   1.016  16.417  0.5513  0.3624 -0.8752
12587TIP3    H159176   2.020   1.000  16.340  1.4051  1.2533 -1.6827
12587TIP3    H259177   2.111   0.931  16.439  0.9001  0.2407 -1.9104
12588TIP3   OH259178   0.821   4.456   5.765  0.3292  0.2850 -0.1585
12588TIP3    H159179   0.901   4.478   5.719  1.4266 -1.3089  0.9543
12588TIP3    H259180   0.775   4.540   5.775  1.5643  1.1144 -1.3000
12589TIP3   OH259181   6.299   0.418  12.480  0.2603 -0.0626 -0.8415
12589TIP3    H159182   6.394   0.429  12.484  0.2821 -0.8193  1.1328
12589TIP3    H259183   6.286   0.334  12.437  0.5286 -0.6850  0.2839
12590TIP3   OH259184   3.363   0.802  11.536  0.0177 -0.2358 -0.5241
12590TIP3    H159185   3.431   0.810  11.470 -0.0527 -0.3317 -0.6088
12590TIP3    H259186   3.404   0.831  11.617  0.7658 -2.1831 -0.1777
12591TIP3   OH259187   0.354   5.835  14.114  0.4684  0.7789 -0.0274
12591TIP3    H159188   0.428   5.861  14.169  1.4705 -0.8373 -0.5415
12591TIP3    H259189   0.392   5.772  14.053 -1.2764  0.1737 -0.5168
12592TIP3   OH259190   3.618   3.203  11.959 -0.2337 -0.5292 -0.2613
12592TIP3    H159191   3.690   3.265  11.959 -0.9433  0.3068  0.6496
12592TIP3    H259192   3.651   3.128  11.910  1.2319 -0.1490  0.1258
12593TIP3   OH259193   1.949   2.117  11.878  0.3513  0.0363 -0.1996
12593TIP3    H159194   2.038   2.143  11.903  0.1264  1.9828 -1.3637
12593TIP3    H259195   1.895   2.192  11.900 -0.5073  0.0940 -2.4188
12594TIP3   OH259196   5.268   1.584  11.814 -0.1117 -0.3129 -0.5821
12594TIP3    H159197   5.360   1.574  11.790 -0.3850  3.5085 -3.8406
12594TIP3    H259198   5.222   1.524  11.755  0.1701 -1.1399  0.0316
12595TIP3   OH259199   0.499   6.513  14.541  0.3994 -0.1131  0.1058
12595TIP3    H159200   0.511   6.427  14.581 -0.5416 -0.9698 -1.4368
12595TIP3    H259201   0.581   6.531  14.496  0.4573 -0.3639  0.1157
12596TIP3   OH259202   0.332   2.920   0.401  0.5148  0.0862  1.1324
12596TIP3    H159203   0.254   2.866   0.414  0.8092 -0.9851 -1.2800
12596TIP3    H259204   0.299   3.000   0.360  0.6120 -0.1500  0.5891
12597TIP3   OH259205   5.551   2.916  11.663  0.3182 -0.2503 -0.3299
12597TIP3    H159206   5.617   2.923  11.594  0.3541  2.5408 -0.0327
12597TIP3    H259207   5.496   2.993  11.652 -3.1774 -2.7050 -0.8202
12598TIP3   OH259208   2.776   5.022   6.069 -0.4079 -0.0646  0.0898
12598TIP3    H159209   2.747   4.937   6.037 -1.0375 -0.5744  1.9508
12598TIP3    H259210   2.867   5.029   6.040 -0.6439 -0.9429 -0.8871
12599TIP3   OH259211   6.293   1.228   5.251  0.2631  0.3264 -0.4652
12599TIP3    H159212   6.198   1.232   5.241 -0.0840 -2.8438  1.2660
12599TIP3    H259213   6.316   1.313   5.290 -2.2200  0.0444  1.7683
12600TIP3   OH259214   0.764   1.981   0.090  0.1118 -0.1299 -0.1717
12600TIP3    H159215   0.669   1.967   0.090  0.1387 -0.3513  1.0084
12600TIP3    H259216   0.786   1.992  -0.002 -1.1956  0.8343 -0.3819
12601TIP3   OH259217   4.817   3.948  14.019 -0.0581 -0.3043  0.0154
12601TIP3    H159218   4.846   3.858  14.003  1.2841  0.3460 -1.2873
12601TIP3    H259219   4.758   3.968  13.946  0.5564  0.2554 -0.3367
12602TIP3   OH259220   4.788   3.785  15.818  0.1490  0.1278  0.5198
12602TIP3    H159221   4.786   3.759  15.910  1.1004  0.3627  0.6081
12602TIP3    H259222   4.833   3.869  15.817  0.0511  0.1814 -0.1550
12603TIP3   OH259223   3.922   1.371   4.805  0.2137 -0.2071  0.2106
12603TIP3    H159224   3.889   1.284   4.825 -1.5007  0.8329  2.1043
12603TIP3    H259225   3.968   1.399   4.885 -1.1425  1.4494  0.4588
12604TIP3   OH259226   1.089   0.929   5.802  0.3697  0.2121 -0.0139
12604TIP3    H159227   1.167   0.914   5.749  1.4924 -0.0212  1.6914
12604TIP3    H259228   1.107   0.885   5.885 -0.7775  1.7672  1.0818
12605TIP3   OH259229   4.034   0.612  16.332 -0.0522  0.0254 -0.7169
12605TIP3    H159230   4.092   0.657  16.271 -0.0319 -0.3244 -0.9572
12605TIP3    H259231   4.063   0.521  16.330 -0.3641 -0.0807 -0.5482
12606TIP3   OH259232   5.824   4.255  14.974  0.2139 -0.9187  0.3905
12606TIP3    H159233   5.822   4.291  15.063 -1.2693 -1.5207  0.6063
12606TIP3    H259234   5.915   4.268  14.946  0.6776 -0.6108  1.9463
12607TIP3   OH259235   1.907   0.095  14.153 -0.6438 -0.1809  0.5381
12607TIP3    H159236   1.866   0.010  14.168 -0.6559 -0.1239  0.8528
12607TIP3    H259237   1.834   0.153  14.130 -0.6537 -0.2247  0.4592
12608TIP3   OH259238   1.984   1.287  10.567  0.4782  0.0521  0.3670
12608TIP3    H159239   1.891   1.263  10.568  0.8752 -1.6358 -0.9404
12608TIP3    H259240   2.019   1.252  10.649  0.7896 -2.9078 -0.9578
12609TIP3   OH259241   6.359   3.051  13.545 -0.7326 -0.4223  0.2530
12609TIP3    H159242   6.314   3.125  13.504 -0.8165 -0.6635 -0.0944
12609TIP3    H259243   6.445   3.049  13.503 -1.3266 -1.5406 -0.9455
12610TIP3   OH259244   4.412   2.856   4.200 -0.0881  0.2163 -0.4132
12610TIP3    H159245   4.382   2.930   4.147 -0.7658  0.5887  0.4762
12610TIP3    H259246   4.463   2.896   4.270  0.4471 -0.2445 -0.5317
12611TIP3   OH259247   1.793   0.933   3.970  0.0562 -0.0500  0.2091
12611TIP3    H159248   1.740   1.008   3.995 -0.0436 -0.0997  0.1471
12611TIP3    H259249   1.783   0.871   4.042  1.3924  0.6354  0.9917
12612TIP3   OH259250   0.028   3.199  11.813 -0.4032  0.1219  0.0134
12612TIP3    H159251  -0.030   3.272  11.791 -0.6776 -0.1093 -0.0249
12612TIP3    H259252  -0.012   3.123  11.773 -0.1363 -0.0597  0.0890
12613TIP3   OH259253   3.754   3.598  11.439  0.3291 -0.3453  0.2189
12613TIP3    H159254   3.806   3.596  11.358 -0.8470  0.2209 -0.5840
12613TIP3    H259255   3.773   3.684  11.477  0.4177 -0.3624  0.2121
12614TIP3   OH259256   6.250   3.336   2.141 -0.4579  0.1982 -0.3668
12614TIP3    H159257   6.255   3.323   2.047 -0.3169  0.6435 -0.4182
12614TIP3    H259258   6.340   3.356   2.168 -0.4752 -0.0391 -0.1201
12615TIP3   OH259259   1.851   4.359  15.498 -0.6589  0.5020 -0.8569
12615TIP3    H159260   1.887   4.354  15.586 -1.9196 -0.8986 -0.3982
12615TIP3    H259261   1.896   4.290  15.449 -0.9558  0.3678 -0.9410
12616TIP3   OH259262   1.807   5.620  11.761 -0.0556 -0.0359 -0.2440
12616TIP3    H159263   1.855   5.574  11.830 -0.5930  0.6465  0.5967
12616TIP3    H259264   1.721   5.637  11.799 -0.9796 -1.2430 -1.7412
12617TIP3   OH259265   4.829   1.861   0.673 -0.3656  0.1362 -0.4723
12617TIP3    H159266   4.768   1.790   0.690 -0.7627  0.6891  0.4687
12617TIP3    H259267   4.882   1.867   0.753 -0.3529  0.9127 -0.5335
12618TIP3   OH259268   0.271   6.036  15.546 -0.0780 -0.0104 -0.2199
12618TIP3    H159269   0.210   6.098  15.587  0.3110 -0.2932  0.7913
12618TIP3    H259270   0.293   5.974  15.616 -0.1704 -1.0731 -1.1196
12619TIP3   OH259271   0.187   5.525  15.038 -0.1848  0.2890 -0.7044
12619TIP3    H159272   0.207   5.509  14.946 -0.5312  2.4900 -1.1817
12619TIP3    H259273   0.096   5.556  15.038  0.0532  1.0078  0.2862
12620TIP3   OH259274   0.060   0.608  13.668 -0.0875 -0.1388  0.2512
12620TIP3    H159275   0.093   0.691  13.703  0.4240  0.9400 -2.6304
12620TIP3    H259276  -0.007   0.581  13.730  0.8976  1.5760  2.1283
12621TIP3   OH259277   2.876   4.812   3.680  0.1732  0.3088 -0.2856
12621TIP3    H159278   2.903   4.735   3.729 -0.2957 -0.7335 -1.6413
12621TIP3    H259279   2.926   4.884   3.718  1.9070 -0.9473 -0.1566
12622TIP3   OH259280   2.833   4.296   1.565 -0.2234 -0.1940 -0.3928
12622TIP3    H159281   2.826   4.299   1.660  0.7022 -0.7542 -0.3068
12622TIP3    H259282   2.786   4.217   1.539 -1.1932  0.4046 -0.4706
12623TIP3   OH259283   5.214   0.484  12.840  0.1563  0.2930  0.3438
12623TIP3    H159284   5.208   0.488  12.745 -0.3461  1.9023  0.4300
12623TIP3    H259285   5.283   0.419  12.857  0.2166 -0.0361 -1.1002
12624TIP3   OH259286   5.155   4.964  14.361 -0.1177  0.1580 -0.6447
12624TIP3    H159287   5.105   5.041  14.386  0.6067 -0.1125  1.7433
12624TIP3    H259288   5.122   4.894  14.416  1.9288 -0.3294  0.0006
12625TIP3   OH259289   5.779   3.258   1.316  0.4925 -0.0281  0.2610
12625TIP3    H159290   5.753   3.168   1.297 -0.7829  0.4086 -0.1319
12625TIP3    H259291   5.705   3.311   1.284  1.8237  1.2375 -0.7670
12626TIP3   OH259292   2.276   3.013  12.905  0.3080 -0.2041  0.2036
12626TIP3    H159293   2.259   2.951  12.835 -0.6897  0.3422 -0.0410
12626TIP3    H259294   2.349   3.066  12.874 -1.7753  1.7390 -1.5611
12627TIP3   OH259295   4.588   0.660   2.657 -0.5773 -0.1411 -0.2277
12627TIP3    H159296   4.534   0.583   2.641  0.3607 -1.2468  1.7170
12627TIP3    H259297   4.532   0.719   2.708 -0.3689 -0.7369  0.6892
12628TIP3   OH259298   0.713   2.248   2.322  0.6438 -0.3549  0.0256
12628TIP3    H159299   0.695   2.302   2.245  0.4346  1.0907  1.0583
12628TIP3    H259300   0.627   2.232   2.361  0.5638 -2.5110 -0.9389
12629TIP3   OH259301   3.897   5.033   5.139  0.1628 -0.4589  0.6572
12629TIP3    H159302   3.944   5.108   5.104 -0.1381  0.6053  2.4548
12629TIP3    H259303   3.944   5.009   5.219 -0.9858 -0.8258  1.2488
12630TIP3   OH259304   6.635   1.618  13.566  0.5702 -0.0332  0.0468
12630TIP3    H159305   6.590   1.590  13.646  2.2343 -1.9541  0.3642
12630TIP3    H259306   6.687   1.693  13.593 -2.1318  2.0128 -0.2516
12631TIP3   OH259307   0.928   3.478  11.391  0.1455 -0.1492  0.4099
12631TIP3    H159308   0.883   3.395  11.407  1.9495 -0.9086  1.6749
12631TIP3    H259309   0.894   3.537  11.458 -2.8360  0.8507 -1.8893
12632TIP3   OH259310   1.686   6.642   5.941  0.2622 -0.2571 -0.0100
12632TIP3    H159311   1.672   6.736   5.944 -0.7626 -0.3679 -0.9871
12632TIP3    H259312   1.781   6.632   5.934  0.3233  0.7147 -0.6135
12633TIP3   OH259313   3.693   1.276  13.496 -0.5884  0.3681 -0.2668
12633TIP3    H159314   3.645   1.200  13.530  0.3731 -0.5386 -0.9164
12633TIP3    H259315   3.717   1.325  13.574  0.0037 -0.7476  0.2764
12634TIP3   OH259316   0.214   1.714  11.441 -0.7506  0.0227 -0.4915
12634TIP3    H159317   0.200   1.641  11.381 -1.7018  0.2168 -0.5227
12634TIP3    H259318   0.127   1.733  11.476 -0.0140 -1.0018  2.0275
12635TIP3   OH259319   3.276   6.540  16.896  0.4957 -0.0504 -0.5182
12635TIP3    H159320   3.260   6.596  16.972 -1.3845 -1.5967  0.2598
12635TIP3    H259321   3.244   6.590  16.821 -0.7960  0.1075  0.1246
12636TIP3   OH259322   5.095   2.266   4.091 -0.0499 -0.1048  0.9187
12636TIP3    H159323   5.090   2.177   4.124 -0.3367 -0.2429  0.5100
12636TIP3    H259324   5.188   2.290   4.099 -0.1751 -0.0245  2.0897
12637TIP3   OH259325   2.197   3.326  16.997 -0.1227  0.0704 -0.3547
12637TIP3    H159326   2.105   3.345  17.018 -0.0383  0.6533 -0.4821
12637TIP3    H259327   2.214   3.242  17.038 -0.4657  0.3712  0.4297
12638TIP3   OH259328   1.752   1.642  16.089  0.2132 -0.3247  1.1504
12638TIP3    H159329   1.766   1.586  16.013 -1.9628 -0.2208  0.6375
12638TIP3    H259330   1.755   1.583  16.164  1.6628 -0.5375  0.9241
12639TIP3   OH259331   0.341   1.381  14.468  0.2447 -0.4740  0.4341
12639TIP3    H159332   0.420   1.398  14.519  0.3962  0.2883 -0.0311
12639TIP3    H259333   0.349   1.439  14.392  0.5281 -2.3383 -0.9798
12640TIP3   OH259334   4.745   5.949   1.491 -0.6256  0.4676 -0.0749
12640TIP3    H159335   4.763   5.855   1.496 -1.8304 -0.0034 -3.1524
12640TIP3    H259336   4.650   5.954   1.475 -0.3563  2.1298 -1.3077
12641TIP3   OH259337   1.163   4.791   2.931 -0.0551  0.2243  0.1779
12641TIP3    H159338   1.253   4.823   2.924 -0.0112  0.1001  0.1712
12641TIP3    H259339   1.120   4.820   2.851  0.0946 -0.0825 -0.0163
12642TIP3   OH259340   3.998   6.358   6.612  0.5496  0.0289  1.0761
12642TIP3    H159341   4.064   6.294   6.585  0.2246  0.3220 -0.4694
12642TIP3    H259342   3.937   6.308   6.666  0.5854 -0.8466  0.3213
12643TIP3   OH259343   4.428   3.553  14.931  0.6412 -0.1567  0.2190
12643TIP3    H159344   4.393   3.637  14.960 -1.2940  0.1245 -2.7969
12643TIP3    H259345   4.351   3.500  14.911  1.8526 -1.0021 -2.4434
12644TIP3   OH259346   3.759   5.339   0.211 -0.4385 -0.0501 -0.2873
12644TIP3    H159347   3.680   5.321   0.263  0.8171 -1.7140  1.1272
12644TIP3    H259348   3.818   5.382   0.273  0.0942  0.3855 -1.0943
12645TIP3   OH259349   4.599   2.054  16.996  0.1516 -0.2425  0.6598
12645TIP3    H159350   4.563   2.013  16.918  2.3429 -0.8288 -0.0823
12645TIP3    H259351   4.596   1.986  17.063  2.1851 -1.1390 -0.1027
12646TIP3   OH259352   1.303   5.618   0.345  0.2691 -0.0542  0.4407
12646TIP3    H159353   1.398   5.608   0.350  0.0599 -1.6918  1.1449
12646TIP3    H259354   1.273   5.613   0.435 -0.4440  1.1320  0.2889
12647TIP3   OH259355   2.695   3.405   0.538 -0.0889  0.0522  0.2076
12647TIP3    H159356   2.657   3.337   0.482 -1.0913  2.6544 -2.3309
12647TIP3    H259357   2.790   3.392   0.530 -0.2325  0.2299 -1.8677
12648TIP3   OH259358   6.174   0.352   3.047 -0.1799 -0.0583  0.0571
12648TIP3    H159359   6.180   0.296   2.970  2.1836 -0.4732  0.5043
12648TIP3    H259360   6.195   0.440   3.014  0.3332 -0.1551  0.1126
12649TIP3   OH259361   4.243   5.724   3.389  0.2805 -0.1446 -0.4389
12649TIP3    H159362   4.239   5.813   3.425  0.7202  0.3113 -1.4996
12649TIP3    H259363   4.151   5.700   3.375  0.1985  0.5443 -1.1033
12650TIP3   OH259364   6.748   0.264   5.930  0.3701  0.1379 -0.3989
12650TIP3    H159365   6.784   0.322   5.996  1.4657 -0.6220 -0.3098
12650TIP3    H259366   6.820   0.250   5.868 -1.2855  2.5825 -2.9746
12651TIP3   OH259367   3.218   0.567  10.490 -0.1914  0.3947  0.3554
12651TIP3    H159368   3.135   0.604  10.521 -1.4274 -0.0998 -2.1993
12651TIP3    H259369   3.238   0.616  10.410  1.1508 -0.5437  0.0989
12652TIP3   OH259370   1.032   4.438  13.882 -1.0660  0.1412  0.8440
12652TIP3    H159371   1.003   4.422  13.971 -0.9568 -1.4551  0.5995
12652TIP3    H259372   0.983   4.375  13.829  1.9530 -1.7916  0.2801
12653TIP3   OH259373   2.205   3.719   2.096 -0.2981  0.1567  0.2535
12653TIP3    H159374   2.172   3.798   2.053  0.7597  0.4410 -0.0436
12653TIP3    H259375   2.278   3.690   2.042  0.4368 -0.0278  1.3170
12654TIP3   OH259376   5.252   0.609  15.593  0.2656  0.4420 -0.5805
12654TIP3    H159377   5.187   0.593  15.524  0.2380  0.4696 -0.5614
12654TIP3    H259378   5.260   0.525  15.639  0.9433  0.1770 -1.1760
12655TIP3   OH259379   3.240   1.887  16.377 -0.3032 -0.3594 -0.1619
12655TIP3    H159380   3.310   1.887  16.442 -0.7378  2.7235  0.4065
12655TIP3    H259381   3.285   1.885  16.293  0.5275  1.7931  0.2041
12656TIP3   OH259382   4.949   0.827  15.358  0.0899 -0.5013 -0.5274
12656TIP3    H159383   4.997   0.874  15.426  1.6739 -1.5201 -0.9147
12656TIP3    H259384   4.967   0.734  15.376 -2.5852 -0.9772 -0.0528
12657TIP3   OH259385   0.952   3.922   2.828 -0.3400  0.4584 -0.0491
12657TIP3    H159386   0.864   3.954   2.812 -0.6958  0.1251  1.1622
12657TIP3    H259387   0.982   3.971   2.905  0.8294  1.1458 -0.9355
12658TIP3   OH259388   1.602   6.384  14.401 -0.1621  0.0622  0.0858
12658TIP3    H159389   1.517   6.420  14.377 -0.0282 -0.1096 -0.6664
12658TIP3    H259390   1.589   6.346  14.488 -0.4962  1.2368  0.5596
12659TIP3   OH259391   3.173   2.759   3.275  0.2148 -0.0645  0.0027
12659TIP3    H159392   3.135   2.761   3.363  0.7402 -0.5654  0.2439
12659TIP3    H259393   3.116   2.700   3.225 -0.7249  1.0745 -0.3018
12660TIP3   OH259394   6.167   0.319   2.276  0.1523  0.3613  0.5919
12660TIP3    H159395   6.180   0.325   2.181  0.9900  0.9567  0.7330
12660TIP3    H259396   6.074   0.336   2.289 -0.2926 -1.3077 -0.2528
12661TIP3   OH259397   0.506   0.433  12.057  0.1633 -0.4731  0.7226
12661TIP3    H159398   0.535   0.518  12.023 -0.1686  0.6204  3.1081
12661TIP3    H259399   0.587   0.382  12.064  0.2483 -0.7376 -1.6340
12662TIP3   OH259400   6.073   3.360   5.036  0.1042 -0.1138 -0.0583
12662TIP3    H159401   6.116   3.351   5.121 -4.1301 -2.8634  1.9857
12662TIP3    H259402   6.048   3.452   5.031  1.2392  0.2752  1.2329
12663TIP3   OH259403   3.836   4.346   6.103 -0.2611 -0.6173  0.5203
12663TIP3    H159404   3.850   4.251   6.096 -0.3683 -0.6680  1.0214
12663TIP3    H259405   3.774   4.366   6.033  3.4744 -0.1269 -2.8362
12664TIP3   OH259406   4.938   5.581   1.913  0.6845 -0.4499  0.0405
12664TIP3    H159407   5.005   5.644   1.886  1.7053 -1.0876  1.0551
12664TIP3    H259408   4.986   5.502   1.935 -0.2038 -0.3629  2.4943
12665TIP3   OH259409   3.533   6.436   5.218 -0.1630 -0.1924  0.2220
12665TIP3    H159410   3.616   6.453   5.262 -0.0668  2.9583 -1.0549
12665TIP3    H259411   3.551   6.449   5.125 -1.9691  0.0985 -0.1190
12666TIP3   OH259412   6.675   0.463  12.244 -0.1075  0.5185 -0.4716
12666TIP3    H159413   6.664   0.385  12.298 -0.2126  0.8163 -0.0662
12666TIP3    H259414   6.608   0.524  12.274  0.2677  0.9391 -0.4812
12667TIP3   OH259415   0.058   4.278  15.643 -0.3624 -0.3670 -0.3673
12667TIP3    H159416  -0.019   4.324  15.610  0.8701  0.6472 -1.8936
12667TIP3    H259417   0.085   4.222  15.571  1.8319  1.2067 -0.7984
12668TIP3   OH259418   4.020   0.864  15.891  0.2686 -0.3683 -0.3872
12668TIP3    H159419   4.063   0.946  15.868  0.4427 -0.3586 -0.0245
12668TIP3    H259420   3.940   0.863  15.838  0.8492 -0.5188 -1.2743
12669TIP3   OH259421   3.931   3.750  15.953 -0.1886  0.3377 -0.2350
12669TIP3    H159422   3.959   3.661  15.972  2.4866  1.1954  0.0455
12669TIP3    H259423   3.867   3.741  15.882  0.6551 -1.7360 -0.7524
12670TIP3   OH259424   4.249   0.310   5.603  0.2918 -0.1123  0.0343
12670TIP3    H159425   4.223   0.351   5.685  0.7372  1.7629 -0.7160
12670TIP3    H259426   4.244   0.382   5.539 -0.9342 -1.7442 -1.7412
12671TIP3   OH259427   0.129   5.881   5.995  0.3175 -0.2733 -0.1393
12671TIP3    H159428   0.115   5.885   6.089 -0.0524  0.7986 -0.2310
12671TIP3    H259429   0.155   5.790   5.978 -0.2003 -0.6229  0.9060
12672TIP3   OH259430   5.616   0.433  12.569 -0.4384 -0.1836  0.2126
12672TIP3    H159431   5.634   0.509  12.624  0.3945  0.1373 -0.4979
12672TIP3    H259432   5.640   0.358  12.624  1.2825  0.1637 -0.0161
12673TIP3   OH259433   5.096   1.383   3.534 -0.0749  0.3414 -0.0173
12673TIP3    H159434   5.062   1.294   3.547 -1.5410  1.0017  0.7797
12673TIP3    H259435   5.186   1.379   3.567 -0.1056 -0.8568 -0.0415
12674TIP3   OH259436   3.248   4.106  11.816 -0.7201  0.4715 -0.1725
12674TIP3    H159437   3.206   4.055  11.885 -1.2553  1.8720  0.5530
12674TIP3    H259438   3.206   4.077  11.735 -0.7209 -0.5347  0.1884
12675TIP3   OH259439   5.468   1.976  13.803  0.4292 -0.3791  0.3013
12675TIP3    H159440   5.405   2.046  13.818  0.8258 -0.0716  0.5732
12675TIP3    H259441   5.427   1.920  13.738  0.4680  0.5862 -0.5799
12676TIP3   OH259442   0.950   0.653   4.893  0.4480  0.1584  0.7276
12676TIP3    H159443   1.013   0.641   4.822 -0.0107 -0.6926  0.4473
12676TIP3    H259444   0.864   0.649   4.850  0.1855  0.4225  1.2213
12677TIP3   OH259445   2.565   5.787  12.250  0.5968 -0.2073 -0.5734
12677TIP3    H159446   2.515   5.717  12.291 -0.6045  0.4107 -0.9834
12677TIP3    H259447   2.504   5.831  12.192  1.3305  1.1817 -0.3335
12678TIP3   OH259448   6.769   2.500  14.047  0.0671 -0.0223  0.3365
12678TIP3    H159449   6.699   2.448  14.087 -0.7416  1.0658  0.3410
12678TIP3    H259450   6.847   2.475  14.097  0.0464 -2.5463 -0.7987
12679TIP3   OH259451   1.087   0.007   4.829  0.6238 -0.2862 -0.1942
12679TIP3    H159452   1.117  -0.033   4.747  2.5426 -0.0265  0.3606
12679TIP3    H259453   0.991  -0.001   4.825  0.6281  0.3789 -2.7730
12680TIP3   OH259454   1.473   6.373   3.091  0.0170  0.0300 -0.2268
12680TIP3    H159455   1.563   6.340   3.082 -0.0781 -0.3472  0.2004
12680TIP3    H259456   1.421   6.315   3.037  0.2132  1.0690 -1.5646
12681TIP3   OH259457   5.910   0.825  15.433  0.0366 -0.2597  1.0264
12681TIP3    H159458   5.855   0.835  15.510 -0.0563  0.2118  0.9031
12681TIP3    H259459   5.885   0.740  15.396 -2.7666  1.2494 -0.7266
12682TIP3   OH259460   3.354   6.358  15.918  0.2183 -0.5626  0.2351
12682TIP3    H159461   3.434   6.408  15.933 -0.0587  0.6768 -2.1160
12682TIP3    H259462   3.382   6.266  15.922  1.7356 -0.1441 -0.4512
12683TIP3   OH259463   1.103   6.209  13.539  0.7046 -0.1815  0.3333
12683TIP3    H159464   1.126   6.220  13.447  1.1865  1.1568  0.6089
12683TIP3    H259465   1.180   6.168  13.578 -0.0133 -2.0467 -0.1073
12684TIP3   OH259466   3.507   5.993  11.723  0.0774 -0.3284 -0.1070
12684TIP3    H159467   3.478   5.914  11.769  0.6644  0.0825  0.9924
12684TIP3    H259468   3.553   6.044  11.790  1.6650 -0.0933 -1.3452
12685TIP3   OH259469   1.445   4.193   3.245  0.0821  0.0645 -0.4205
12685TIP3    H159470   1.396   4.268   3.212 -1.6961 -0.2704  1.3602
12685TIP3    H259471   1.509   4.175   3.177 -0.3440  2.3516 -1.4882
12686TIP3   OH259472   6.559   3.821   1.245  0.4016 -0.0683 -0.0361
12686TIP3    H159473   6.474   3.863   1.252  0.6327  0.0489  2.3166
12686TIP3    H259474   6.577   3.819   1.151 -1.1905  1.8865 -0.4066
12687TIP3   OH259475   0.342   0.768  14.248  0.5807 -0.5846  0.8060
12687TIP3    H159476   0.378   0.680  14.263 -0.0154 -0.7066  1.5345
12687TIP3    H259477   0.247   0.756  14.251  0.4617 -0.2601 -1.0975
12688TIP3   OH259478   1.777   0.507   6.200  0.2778  0.0793  0.1988
12688TIP3    H159479   1.798   0.527   6.109 -1.7745  1.2941 -0.0489
12688TIP3    H259480   1.794   0.413   6.208 -1.4566 -0.4797 -2.0350
12689TIP3   OH259481   0.270   6.146   2.715  0.6748  0.6885 -0.0990
12689TIP3    H159482   0.203   6.173   2.652  0.1944  0.7173  0.4277
12689TIP3    H259483   0.328   6.088   2.665  0.5647  1.0907 -0.6956
12690TIP3   OH259484   2.076   0.030   1.830 -0.1419 -0.2163  0.5206
12690TIP3    H159485   1.986   0.034   1.797 -0.1281 -1.9529  0.2366
12690TIP3    H259486   2.067   0.010   1.923 -0.0457 -0.7216  0.4229
12691TIP3   OH259487   6.680   5.539  15.091  0.2156  0.2306  0.2918
12691TIP3    H159488   6.616   5.475  15.123  0.1646  1.5855  3.0270
12691TIP3    H259489   6.633   5.588  15.024 -1.6877  1.2884  2.3467
12692TIP3   OH259490   3.338   5.281   1.671 -0.3847  0.0436 -0.4849
12692TIP3    H159491   3.248   5.286   1.638 -1.0518 -2.4479  0.8600
12692TIP3    H259492   3.331   5.304   1.764  0.2234 -1.0140 -0.1667
12693TIP3   OH259493   2.387   2.323  15.797  0.2663  0.5425 -0.0774
12693TIP3    H159494   2.302   2.282  15.808  0.9735 -1.1337 -0.6184
12693TIP3    H259495   2.406   2.314  15.703  0.9725  1.0281  0.0143
12694TIP3   OH259496   2.322   1.715   4.288  0.2403 -0.1889  0.2003
12694TIP3    H159497   2.369   1.667   4.220 -2.2962  0.9379 -2.4167
12694TIP3    H259498   2.232   1.685   4.281 -0.4387  1.4080  1.7686
12695TIP3   OH259499   6.488   1.543  13.341  0.1905 -0.9316 -0.2477
12695TIP3    H159500   6.439   1.623  13.320 -0.7252 -1.2902  0.4608
12695TIP3    H259501   6.564   1.574  13.391  0.8672 -0.3421 -1.6088
12696TIP3   OH259502   3.048   1.903  10.443 -0.3889  0.1047 -0.4435
12696TIP3    H159503   3.012   1.920  10.356 -0.3354  0.0183 -0.4830
12696TIP3    H259504   2.973   1.874  10.495 -0.5995  1.0779 -0.2053
12697TIP3   OH259505   6.110   6.578  13.306  0.1085  0.6742  0.0012
12697TIP3    H159506   6.041   6.573  13.372  0.1562 -0.8081 -0.0498
12697TIP3    H259507   6.124   6.487  13.278 -0.0014  1.2928 -2.1573
12698TIP3   OH259508   3.925   3.774   4.724  0.2691  0.0358  0.2360
12698TIP3    H159509   3.886   3.770   4.811 -1.3646  1.4001 -0.4092
12698TIP3    H259510   3.980   3.695   4.719 -1.3183 -1.2167  1.6942
12699TIP3   OH259511   5.923   4.190  12.788 -0.1551  0.0645 -0.2262
12699TIP3    H159512   5.995   4.146  12.743 -1.4578 -0.0654 -2.2285
12699TIP3    H259513   5.946   4.283  12.783 -0.3247  0.0606 -1.2625
12700TIP3   OH259514   4.506   5.023  11.871  0.1909 -0.2099  0.3594
12700TIP3    H159515   4.500   4.930  11.894  1.0254 -0.8960 -1.9895
12700TIP3    H259516   4.483   5.026  11.778  3.8704  1.3609 -0.6117
12701TIP3   OH259517   6.333   0.461   1.731 -0.5861 -0.0146 -0.3965
12701TIP3    H159518   6.292   0.546   1.744  1.4939  0.8835  0.5656
12701TIP3    H259519   6.425   0.481   1.713 -0.1509 -2.0318 -0.5891
12702TIP3   OH259520   3.747   1.399   0.922  0.2785 -0.2879  0.0497
12702TIP3    H159521   3.790   1.343   0.987 -1.5684 -0.6036  1.0297
12702TIP3    H259522   3.664   1.423   0.962  0.0089  1.2281 -1.3562
12703TIP3   OH259523   3.239   1.275  13.098  0.3111 -0.2537 -0.3898
12703TIP3    H159524   3.248   1.229  13.014  0.2500  1.8108 -1.5562
12703TIP3    H259525   3.146   1.295  13.104  0.2374 -0.8388  0.4135
12704TIP3   OH259526   0.608   4.970   4.275 -0.1756  0.1536 -0.4140
12704TIP3    H159527   0.700   4.964   4.300 -0.3668  1.3817  0.6585
12704TIP3    H259528   0.569   4.890   4.310 -0.0425  0.9297  1.5769
12705TIP3   OH259529   4.078   6.570  11.049 -0.3836  0.1392  0.1528
12705TIP3    H159530   3.985   6.576  11.071 -0.6112 -0.2122 -0.6832
12705TIP3    H259531   4.093   6.477  11.032  0.1296  0.1909  0.3203
12706TIP3   OH259532   4.735   4.233  16.430 -0.3085  0.1748  0.2717
12706TIP3    H159533   4.748   4.327  16.440  0.1628  0.2057 -0.6062
12706TIP3    H259534   4.799   4.206  16.365  0.5646 -1.0069  1.5728
12707TIP3   OH259535   4.826   1.759   4.137  0.0016 -0.5268  0.3748
12707TIP3    H159536   4.821   1.693   4.068 -1.7078 -0.1775  0.1591
12707TIP3    H259537   4.912   1.744   4.177  1.9841  0.6798 -3.1945
12708TIP3   OH259538   0.600   0.351   4.275  0.2520  0.3283  0.8600
12708TIP3    H159539   0.668   0.343   4.208  0.0630 -0.8505  0.8071
12708TIP3    H259540   0.649   0.362   4.357  0.4822  1.5742  0.5671
12709TIP3   OH259541   0.901   2.066  11.861  0.4282  0.1687  0.8562
12709TIP3    H159542   0.905   2.077  11.766  0.3088  1.0379  0.9442
12709TIP3    H259543   0.874   1.975  11.874  0.7884 -0.0550  0.0633
12710TIP3   OH259544   0.018   1.645   3.419 -0.5077 -0.3708 -0.0915
12710TIP3    H159545   0.113   1.633   3.411 -0.3298  1.1565 -0.5239
12710TIP3    H259546  -0.003   1.612   3.506  0.4899 -0.4036  0.1503
12711TIP3   OH259547   6.593   2.520   1.459 -0.6881 -0.4818  0.1787
12711TIP3    H159548   6.545   2.574   1.522  0.4553  0.9339 -0.1467
12711TIP3    H259549   6.569   2.555   1.374  1.1590  0.4384  0.0272
12712TIP3   OH259550   6.129   6.582   4.451 -0.3153 -0.8758 -0.2479
12712TIP3    H159551   6.170   6.641   4.388 -0.8046 -0.4982 -0.2167
12712TIP3    H259552   6.187   6.584   4.527 -1.1673  0.8409  0.3886
12713TIP3   OH259553   1.884   1.478  12.647 -0.1731 -1.0606  0.2958
12713TIP3    H159554   1.806   1.462  12.700  0.3458 -1.8482  0.8458
12713TIP3    H259555   1.853   1.476  12.556 -1.0269  0.0518  0.5511
12714TIP3   OH259556   0.233   4.115   3.280 -0.3818  0.2478  0.1705
12714TIP3    H159557   0.304   4.051   3.289 -1.5530 -0.8697  1.6924
12714TIP3    H259558   0.276   4.200   3.294  0.2917 -0.5607  3.3646
12715TIP3   OH259559   5.765   1.988  13.297 -0.0574 -0.2976  0.0308
12715TIP3    H159560   5.830   1.964  13.363  1.8098  2.2608 -0.7670
12715TIP3    H259561   5.681   1.984  13.343  0.7208 -2.8427  1.3130
12716TIP3   OH259562   5.800   1.038  16.409 -0.3073 -0.2766 -0.2989
12716TIP3    H159563   5.786   1.086  16.490  0.0683  2.2512 -1.6874
12716TIP3    H259564   5.886   0.996  16.421 -0.2212  0.1434  0.5893
12717TIP3   OH259565   1.185   3.578  15.235  0.4800 -0.3124  0.1519
12717TIP3    H159566   1.219   3.664  15.259  1.0910 -1.1217  2.3570
12717TIP3    H259567   1.090   3.590  15.233  0.5816  0.5112  0.0779
12718TIP3   OH259568   3.417   5.648   0.424 -0.6238 -0.7289  0.1652
12718TIP3    H159569   3.385   5.618   0.339  0.3165 -1.2866  0.0119
12718TIP3    H259570   3.492   5.703   0.404 -0.5123 -0.7104  0.6316
12719TIP3   OH259571   3.267   6.221  14.345  0.2372 -0.0073 -0.1596
12719TIP3    H159572   3.195   6.251  14.290 -0.0632 -1.6657 -0.6880
12719TIP3    H259573   3.239   6.135  14.378  1.5384 -0.2137  0.4438
12720TIP3   OH259574   1.312   1.257  14.678 -0.2489 -0.3577  0.5632
12720TIP3    H159575   1.220   1.241  14.699  0.2606 -0.4249  2.8792
12720TIP3    H259576   1.321   1.353  14.678 -0.3219 -0.3497  0.2776
12721TIP3   OH259577   4.148   1.154  14.720 -0.3979  0.3065  0.0244
12721TIP3    H159578   4.160   1.059  14.719 -0.8342  0.2236  1.1529
12721TIP3    H259579   4.161   1.178  14.812 -1.1327  1.2184 -0.1097
12722TIP3   OH259580   5.140   0.658  13.411 -0.1932  0.3412  0.3130
12722TIP3    H159581   5.161   0.713  13.486 -0.0461  0.8131 -0.0711
12722TIP3    H259582   5.173   0.571  13.435  1.4286  0.8709  0.0828
12723TIP3   OH259583   5.665   4.528  11.082 -0.2404 -0.1608 -0.1214
12723TIP3    H159584   5.657   4.440  11.117  1.0722 -0.2715 -0.1009
12723TIP3    H259585   5.679   4.516  10.988 -4.3465  0.1484 -0.8692
12724TIP3   OH259586   6.502   1.545  17.153  0.4549 -0.4969  0.2813
12724TIP3    H159587   6.481   1.512  17.066  0.9934 -0.6877  0.2233
12724TIP3    H259588   6.585   1.504  17.176  1.0975  0.7610  0.2408
12725TIP3   OH259589   1.914   3.168  16.714  0.2963 -0.1645 -0.0048
12725TIP3    H159590   1.908   3.226  16.638  0.3433 -0.6910 -0.4188
12725TIP3    H259591   1.990   3.199  16.763 -0.1365  0.5957  0.1787
12726TIP3   OH259592   3.651   5.107  15.656  0.2995  0.6401  0.1148
12726TIP3    H159593   3.644   5.045  15.584  1.7938  0.4513  0.1351
12726TIP3    H259594   3.638   5.193  15.616  0.5450  0.4902 -0.2826
12727TIP3   OH259595   6.637   2.509   3.667  0.5164 -0.5614  0.4872
12727TIP3    H159596   6.643   2.461   3.749 -1.7132  0.0332  1.0329
12727TIP3    H259597   6.554   2.557   3.673  0.0185 -0.9718 -2.3588
12728TIP3   OH259598   2.583   4.741   3.828 -0.1565  0.1947 -0.5259
12728TIP3    H159599   2.577   4.646   3.831 -0.0143  0.1196 -2.2479
12728TIP3    H259600   2.563   4.764   3.737 -2.2502  1.9564  0.3333
12729TIP3   OH259601   6.062   1.154  11.950  0.2271 -0.3616 -0.3808
12729TIP3    H159602   6.144   1.107  11.971 -0.0727 -0.8186 -0.2165
12729TIP3    H259603   6.079   1.195  11.865  0.9377  0.2771  0.0578
12730TIP3   OH259604   1.140   5.581  14.387 -0.2046  0.2088  0.2403
12730TIP3    H159605   1.068   5.644  14.387 -0.2314  0.1809  0.7943
12730TIP3    H259606   1.198   5.610  14.458  1.3784  1.4043 -1.5001
12731TIP3   OH259607   3.660   6.606  17.172  0.5984 -0.1654 -0.0401
12731TIP3    H159608   3.723   6.539  17.197  0.0512 -0.2700  1.1152
12731TIP3    H259609   3.641   6.588  17.080 -0.5431 -2.4364  0.5999
12732TIP3   OH259610   6.211   0.672  12.697  0.4880 -0.2500 -0.6664
12732TIP3    H159611   6.191   0.763  12.677  1.1763 -0.0384 -0.4272
12732TIP3    H259612   6.187   0.662  12.790  1.0323 -0.1273 -0.5120
12733TIP3   OH259613   6.489   4.417  16.599  0.2346 -0.8624  0.1597
12733TIP3    H159614   6.400   4.381  16.594  0.5620 -1.7369  0.4531
12733TIP3    H259615   6.502   4.437  16.691 -0.0542  0.3120 -0.0484
12734TIP3   OH259616   2.052   6.418  15.319 -0.7020 -0.5468  0.3402
12734TIP3    H159617   1.979   6.454  15.269 -0.0268  1.3043  0.6430
12734TIP3    H259618   2.128   6.429  15.261 -0.0637  0.8569  1.4149
12735TIP3   OH259619   0.116   4.130   1.598 -0.5848 -0.5513 -0.3958
12735TIP3    H159620   0.053   4.081   1.545 -0.1529 -0.2759 -1.1751
12735TIP3    H259621   0.065   4.161   1.673 -1.2439 -0.8036 -0.7320
12736TIP3   OH259622   2.131   0.843  15.217  0.0849  0.2213 -0.0168
12736TIP3    H159623   2.226   0.840  15.233  0.3280  0.3638 -1.3593
12736TIP3    H259624   2.116   0.928  15.177 -0.4130 -0.2869 -0.9428
12737TIP3   OH259625   1.428   0.413  11.268  0.5807  0.6619 -0.1154
12737TIP3    H159626   1.447   0.382  11.179 -0.7084 -1.1646  0.2191
12737TIP3    H259627   1.333   0.419  11.271  0.6550  1.5149  0.9040
12738TIP3   OH259628   0.097   3.568  12.043 -0.5012  0.1959  0.7275
12738TIP3    H159629   0.175   3.621  12.031  1.2183 -2.1421  1.2751
12738TIP3    H259630   0.083   3.567  12.138  0.0331 -1.0713  0.8048
12739TIP3   OH259631   6.008   3.607   5.897  0.4288 -0.1575  0.1033
12739TIP3    H159632   5.960   3.524   5.891 -1.3393  0.9928 -2.8829
12739TIP3    H259633   5.967   3.653   5.970 -1.0861 -0.4087 -0.5717
12740TIP3   OH259634   6.746   4.363  15.110 -0.1752 -0.3194 -0.1336
12740TIP3    H159635   6.792   4.283  15.134  0.3687 -0.2529 -0.9566
12740TIP3    H259636   6.669   4.333  15.061  0.5773 -0.2939 -1.3376
12741TIP3   OH259637   3.614   0.123  16.157  0.0447 -0.4584  0.0879
12741TIP3    H159638   3.626   0.214  16.127  2.2691 -1.2195 -1.4293
12741TIP3    H259639   3.700   0.083  16.148 -0.5592 -2.3300  2.2278
12742TIP3   OH259640   3.132   0.985   2.327  0.1345  0.2791 -0.0396
12742TIP3    H159641   3.204   1.045   2.306 -1.4307  0.8988 -4.1138
12742TIP3    H259642   3.138   0.916   2.261 -3.2832  0.6390 -0.8229
12743TIP3   OH259643   0.744   3.962   1.838  0.4279  0.1495  0.3302
12743TIP3    H159644   0.670   4.021   1.826  0.0617 -0.5000 -0.7099
12743TIP3    H259645   0.705   3.875   1.837  0.9672 -0.1264  1.7919
12744TIP3   OH259646   3.575   0.221  14.602  0.2344  0.1733  0.7048
12744TIP3    H159647   3.558   0.201  14.510 -0.0903  0.2643  0.7454
12744TIP3    H259648   3.554   0.314  14.610 -1.3870 -0.2310  1.2684
12745TIP3   OH259649   1.666   2.687   5.528 -0.5724 -0.3273  0.0340
12745TIP3    H159650   1.612   2.609   5.537 -1.1421 -0.2863 -2.7035
12745TIP3    H259651   1.627   2.735   5.455  2.4610  0.2638 -1.2752
12746TIP3   OH259652   2.376   3.890  14.509  0.0366 -0.2919 -0.7657
12746TIP3    H159653   2.412   3.879  14.421 -2.5377  1.1409 -2.0550
12746TIP3    H259654   2.288   3.853  14.503 -0.4692  0.5981  0.9793
12747TIP3   OH259655   6.418   2.033  11.677 -0.4347  0.0149  0.1700
12747TIP3    H159656   6.420   1.943  11.709 -0.3783 -0.6799 -1.7138
12747TIP3    H259657   6.510   2.056  11.664 -0.5135 -0.3330 -1.1169
12748TIP3   OH259658   3.180   5.488   1.981 -0.0974 -0.2593 -0.3279
12748TIP3    H159659   3.133   5.515   1.902 -1.7970  0.1099  0.7698
12748TIP3    H259660   3.134   5.409   2.010 -0.1209  0.1738  0.8416
12749TIP3   OH259661   6.171   6.290  17.224  0.6776  0.4401 -0.0699
12749TIP3    H159662   6.171   6.373  17.176 -1.5602 -0.2415 -1.3355
12749TIP3    H259663   6.203   6.226  17.160 -1.2869 -0.2961 -0.3363
12750TIP3   OH259664   2.119   6.109   2.317  0.3611 -0.8185 -0.0550
12750TIP3    H159665   2.126   6.175   2.385 -1.3642 -1.1341  0.4563
12750TIP3    H259666   2.205   6.107   2.276  0.1268  2.4917 -0.7880
12751TIP3   OH259667   3.823   4.208  11.302 -0.0931 -0.2454  0.3056
12751TIP3    H159668   3.886   4.194  11.372 -0.7341  1.1833  1.1988
12751TIP3    H259669   3.857   4.158  11.228  1.5076 -0.3586  1.0974
12752TIP3   OH259670   1.037   0.714   0.535 -0.5816  0.3903  0.7104
12752TIP3    H159671   1.072   0.674   0.455 -1.5334 -0.2776  0.6139
12752TIP3    H259672   1.085   0.671   0.606  1.1553  1.8835  0.4629
12753TIP3   OH259673   4.781   0.121   3.544  0.1024  0.2480 -0.4089
12753TIP3    H159674   4.746   0.101   3.631  1.2736  1.9812  0.4850
12753TIP3    H259675   4.844   0.191   3.559 -0.7234  1.5610 -2.8688
12754TIP3   OH259676   3.277   0.797   5.527 -0.4186 -0.1196  0.0846
12754TIP3    H159677   3.325   0.714   5.523  0.1759  0.1424  1.5934
12754TIP3    H259678   3.339   0.862   5.495 -0.5483 -0.1099 -0.1480
12755TIP3   OH259679   6.711   3.370  15.651  0.1389 -0.0146 -0.6677
12755TIP3    H159680   6.792   3.319  15.644  0.1339 -0.0806 -0.2737
12755TIP3    H259681   6.685   3.360  15.742  0.7226  1.5776 -0.3117
12756TIP3   OH259682   4.912   4.347  13.697 -0.2553 -0.3256 -0.3367
12756TIP3    H159683   4.999   4.324  13.667 -0.6483 -0.5053 -1.3528
12756TIP3    H259684   4.858   4.271  13.674 -0.6141 -0.3688  0.6035
12757TIP3   OH259685   5.334   1.175   1.134  0.3344  0.0088  0.0819
12757TIP3    H159686   5.269   1.123   1.182 -0.9998  1.6227  0.0693
12757TIP3    H259687   5.407   1.184   1.195  0.3096 -1.3193  0.3210
12758TIP3   OH259688   6.217   0.390  11.942 -0.8265  0.0515 -0.3365
12758TIP3    H159689   6.285   0.361  11.881 -2.1423 -0.9205 -1.3693
12758TIP3    H259690   6.168   0.456  11.894 -1.0633  0.2288  0.1465
12759TIP3   OH259691   5.725   2.647   4.944  0.2134  0.4967 -0.3343
12759TIP3    H159692   5.646   2.693   4.915  0.6268 -0.6595 -3.5393
12759TIP3    H259693   5.797   2.706   4.921  0.2964  2.1812  3.8749
12760TIP3   OH259694   0.164   5.733  14.830  0.3020 -0.2390  0.4126
12760TIP3    H159695   0.186   5.701  14.743  1.1002  0.3209  0.4009
12760TIP3    H259696   0.229   5.693  14.888  3.9147  4.3411 -0.1177
12761TIP3   OH259697   5.488   4.807  12.697 -0.0625  0.2809  0.0166
12761TIP3    H159698   5.445   4.724  12.719  1.1451 -0.6137 -0.9407
12761TIP3    H259699   5.563   4.811  12.756  1.5032 -0.6960 -1.8762
12762TIP3   OH259700   4.107   5.609   2.971 -0.2027  0.0272  0.8044
12762TIP3    H159701   4.177   5.554   3.007 -1.6828 -0.4999  2.9605
12762TIP3    H259702   4.044   5.548   2.934 -0.5400  0.4197  0.7212
12763TIP3   OH259703   4.191   4.797  11.485  0.5522 -0.2398  0.6804
12763TIP3    H159704   4.253   4.733  11.520  1.9647 -0.3421 -1.9129
12763TIP3    H259705   4.115   4.746  11.458  0.7980 -0.5457  0.5697
12764TIP3   OH259706   6.638   0.838  11.462 -0.9646 -0.2475  0.3635
12764TIP3    H159707   6.649   0.831  11.557 -3.6879  1.0929  0.8209
12764TIP3    H259708   6.572   0.907  11.451 -0.0565  0.2168 -2.5373
12765TIP3   OH259709   2.776   2.464  16.307  0.4363  0.1327 -0.6396
12765TIP3    H159710   2.726   2.504  16.237  1.6241  2.2903 -0.2851
12765TIP3    H259711   2.726   2.483  16.387 -0.4459 -1.5425 -0.7685
12766TIP3   OH259712   2.695   3.016   4.542  0.7106  0.2811 -0.2141
12766TIP3    H159713   2.714   3.057   4.626  0.9344  0.1271 -0.1900
12766TIP3    H259714   2.771   2.960   4.524 -0.5449 -1.8061  0.7924
12767TIP3   OH259715   0.831   2.046  12.959  0.1639 -0.3486 -0.3597
12767TIP3    H159716   0.796   2.122  12.912  0.5990  0.8904  1.2858
12767TIP3    H259717   0.785   1.971  12.921 -1.2739  0.8755 -1.0685
12768TIP3   OH259718   0.018   5.590  11.541  0.3269 -0.2811  0.4804
12768TIP3    H159719  -0.059   5.574  11.596 -1.1236  0.6943 -1.2471
12768TIP3    H259720  -0.000   5.672  11.497  2.5042  0.1145  0.2609
12769TIP3   OH259721   5.925   6.215  13.926 -0.1842 -0.2003  0.1463
12769TIP3    H159722   5.986   6.169  13.983 -0.0088 -0.6143 -0.3674
12769TIP3    H259723   5.851   6.155  13.916 -0.3702  0.0137  0.2081
12770TIP3   OH259724   1.610   2.175   2.237  0.1502 -0.8752  0.4496
12770TIP3    H159725   1.536   2.140   2.286 -0.2679 -1.1344 -0.3533
12770TIP3    H259726   1.620   2.115   2.163 -1.6312  1.6129 -1.8935
12771TIP3   OH259727   5.800   4.227   4.184  0.0799  0.1790 -0.0121
12771TIP3    H159728   5.804   4.323   4.179  1.0608  0.1687  0.6551
12771TIP3    H259729   5.719   4.205   4.136 -0.7211  1.3965  0.7472
12772TIP3   OH259730   2.412   5.146  16.149 -0.0823  0.2726 -0.3255
12772TIP3    H159731   2.383   5.234  16.125  0.5664  0.7679  0.6501
12772TIP3    H259732   2.338   5.109  16.198  0.1080  0.7439  0.3291
12773TIP3   OH259733   1.534   0.818   5.538  0.0927  0.3823  0.2403
12773TIP3    H159734   1.575   0.834   5.453 -0.6496  0.8886 -0.0305
12773TIP3    H259735   1.607   0.824   5.601  0.1651  3.1722 -0.0382
12774TIP3   OH259736   2.653   4.427  12.875  0.4650  0.0013  0.0112
12774TIP3    H159737   2.637   4.517  12.846 -0.6370 -0.3309 -0.4086
12774TIP3    H259738   2.730   4.434  12.931 -0.8309  1.5455  1.6514
12775TIP3   OH259739   2.546   4.241   0.574  0.3023 -0.7541  0.0171
12775TIP3    H159740   2.524   4.334   0.570 -0.2138 -0.8752  0.0560
12775TIP3    H259741   2.490   4.200   0.508 -0.9558 -1.3342  1.4074
12776TIP3   OH259742   4.044   0.643  13.274 -0.4106 -0.1219 -0.0556
12776TIP3    H159743   3.980   0.712  13.286 -1.0479 -1.0519  2.1560
12776TIP3    H259744   4.092   0.639  13.357 -0.4363 -2.3485 -0.1077
12777TIP3   OH259745   3.280   1.668  14.655  0.1032 -0.0897  0.1207
12777TIP3    H159746   3.293   1.684  14.561  1.7186 -0.0746  0.3338
12777TIP3    H259747   3.368   1.651  14.688 -0.4702 -0.1031  1.6417
12778TIP3   OH259748   2.893   2.293  16.483  0.3122 -0.5675 -0.4349
12778TIP3    H159749   2.870   2.338  16.401  1.5096  1.4877  0.3037
12778TIP3    H259750   2.920   2.364  16.542  0.1289 -2.0863  1.5167
12779TIP3   OH259751   6.645   5.592   1.005 -0.0758 -0.1823 -0.0978
12779TIP3    H159752   6.605   5.509   0.978  0.2232 -0.5169  0.4813
12779TIP3    H259753   6.722   5.566   1.056  1.4377  0.4669 -2.0188
12780TIP3   OH259754   2.631   0.575  14.359 -0.6258  0.0071  0.0917
12780TIP3    H159755   2.638   0.629  14.280 -1.4555 -1.5285 -1.0560
12780TIP3    H259756   2.669   0.629  14.428 -0.4177  1.6134 -1.2405
12781TIP3   OH259757   5.243   2.829   5.530 -0.9131  0.3205 -0.0239
12781TIP3    H159758   5.263   2.908   5.480 -0.9226  0.2588 -0.1256
12781TIP3    H259759   5.312   2.824   5.595  2.0225 -2.2877 -3.1292
12782TIP3   OH259760   2.927   0.697   3.698 -0.5143 -0.2441 -0.1063
12782TIP3    H159761   2.942   0.751   3.620  1.0880  0.5995  0.7476
12782TIP3    H259762   2.939   0.758   3.771 -1.6668 -1.1039  0.8018
12783TIP3   OH259763   1.708   5.720  16.971  0.0196 -0.3035 -0.1804
12783TIP3    H159764   1.645   5.685  16.908 -1.4109 -0.1254  1.1110
12783TIP3    H259765   1.667   5.799  17.005  0.5916 -0.5807  1.2188
12784TIP3   OH259766   1.292   2.460   1.096  0.3984  0.4772  0.0640
12784TIP3    H159767   1.331   2.426   1.176  0.0811 -0.5763 -0.2220
12784TIP3    H259768   1.219   2.401   1.078 -0.3293  1.4701 -0.2945
12785TIP3   OH259769   1.104   4.714  14.625 -0.2067  0.1764 -0.0080
12785TIP3    H159770   1.105   4.791  14.682  1.1245 -0.3683  0.7440
12785TIP3    H259771   1.193   4.679  14.632 -1.1652 -2.1984  0.7371
12786TIP3   OH259772   1.862   3.611  11.231 -0.3876 -0.1966 -0.1804
12786TIP3    H159773   1.923   3.574  11.167  1.3415 -2.4894  2.6402
12786TIP3    H259774   1.776   3.580  11.205  0.4711 -2.2435 -0.6273
12787TIP3   OH259775   4.187   1.615  14.666 -0.3464  0.0613  0.2554
12787TIP3    H159776   4.171   1.629  14.760 -0.1935 -0.4592  0.3570
12787TIP3    H259777   4.099   1.614  14.628 -0.3420  1.8762  0.1645
12788TIP3   OH259778   5.468   5.915  12.537 -0.1826 -0.6182  0.3282
12788TIP3    H159779   5.376   5.890  12.531  0.4021 -2.4737 -1.2169
12788TIP3    H259780   5.517   5.837  12.512  1.7777  0.9015 -0.7938
12789TIP3   OH259781   3.489   3.521   3.495  0.3412 -0.1456 -0.6970
12789TIP3    H159782   3.399   3.501   3.472  0.7123 -0.4682 -1.9054
12789TIP3    H259783   3.487   3.535   3.589 -1.1575  0.8783 -0.8635
12790TIP3   OH259784   0.137   4.557   3.440  0.8403 -0.2779  0.2603
12790TIP3    H159785   0.176   4.475   3.471  1.1240 -0.1259  0.3050
12790TIP3    H259786   0.097   4.595   3.518 -0.2474 -0.9122  0.0168
12791TIP3   OH259787   5.395   6.034   5.084  0.4073 -0.6061  0.0792
12791TIP3    H159788   5.385   6.034   4.989 -1.5984  0.6837  0.2703
12791TIP3    H259789   5.319   6.081   5.116  1.1101 -0.9646  2.3373
12792TIP3   OH259790   1.368   4.566   2.003  0.1805  0.3925  0.8401
12792TIP3    H159791   1.281   4.586   2.038  0.7798  0.2525  2.4599
12792TIP3    H259792   1.363   4.475   1.976 -0.5743  0.7744 -0.3207
12793TIP3   OH259793   0.049   5.090   1.606 -0.3993 -0.1833 -0.4011
12793TIP3    H159794  -0.006   5.166   1.627  0.0501  0.5560 -1.8430
12793TIP3    H259795   0.133   5.128   1.582 -0.4365 -1.0822 -1.9648
12794TIP3   OH259796   6.422   4.348  13.691 -0.2639  0.2707  0.1169
12794TIP3    H159797   6.473   4.269  13.671  0.6579  1.5443 -2.7384
12794TIP3    H259798   6.332   4.324  13.670 -0.1147 -0.2671  0.0689
12795TIP3   OH259799   3.941   4.615   0.590 -0.4715  0.3549 -0.1352
12795TIP3    H159800   3.884   4.662   0.651  0.7873 -0.2310  1.5350
12795TIP3    H259801   3.939   4.524   0.620  0.1300  0.0540 -0.9963
12796TIP3   OH259802   0.453   3.765  11.117 -0.0515  0.1481  0.1106
12796TIP3    H159803   0.458   3.757  11.022 -0.8927 -1.7564  0.2159
12796TIP3    H259804   0.482   3.855  11.134 -0.4025  0.6906 -1.9711
12797TIP3   OH259805   2.003   3.763   0.972  0.0488  0.1241  0.4763
12797TIP3    H159806   2.038   3.804   0.893 -0.0118 -0.0143  0.3793
12797TIP3    H259807   1.912   3.794   0.977  0.0106  0.0195  0.4163
12798TIP3   OH259808   4.542   6.029   5.385  0.0007 -0.4182  0.5916
12798TIP3    H159809   4.595   6.090   5.335 -0.4020  0.2216  0.9363
12798TIP3    H259810   4.453   6.065   5.381  0.0143 -0.1871  2.0125
12799TIP3   OH259811   1.786   1.156   1.288  0.5036  0.4354 -0.4201
12799TIP3    H159812   1.853   1.158   1.356 -0.5894 -1.7850  0.7453
12799TIP3    H259813   1.832   1.185   1.209  1.9781  2.2908  1.0448
12800TIP3   OH259814   5.398   0.497  16.606 -0.5990  0.8701  0.5605
12800TIP3    H159815   5.362   0.544  16.530 -0.1608  0.8111  0.3159
12800TIP3    H259816   5.420   0.566  16.669 -0.8948  0.9240  0.6063
12801TIP3   OH259817   4.899   1.172  16.568 -0.0993 -0.4275 -0.5412
12801TIP3    H159818   4.920   1.084  16.599 -0.2537 -1.1601 -2.4371
12801TIP3    H259819   4.984   1.213  16.553 -0.0279 -0.5270 -0.4119
12802TIP3   OH259820   1.000   5.389   2.832  0.0246 -0.4610  0.2996
12802TIP3    H159821   0.962   5.306   2.805  0.4035 -0.7461  0.6388
12802TIP3    H259822   0.978   5.450   2.762  2.3334 -1.5433 -1.4157
12803TIP3   OH259823   6.048   4.152  16.153 -0.6501 -0.4479  0.0022
12803TIP3    H159824   6.069   4.206  16.077  2.0787 -0.8893  0.3905
12803TIP3    H259825   6.022   4.067  16.117  1.0181 -0.7768 -0.4450
12804TIP3   OH259826   5.462   3.781   4.065 -0.1687  0.4965  0.4699
12804TIP3    H159827   5.415   3.748   3.989 -0.3654 -1.4186  1.4098
12804TIP3    H259828   5.412   3.858   4.093 -0.5245  0.7552 -0.8474
12805TIP3   OH259829   2.146   5.454  15.258  0.3065 -0.1661 -0.0464
12805TIP3    H159830   2.081   5.492  15.199 -0.0710 -3.0361 -1.5633
12805TIP3    H259831   2.230   5.465  15.213  0.3408 -0.2159  0.0064
12806TIP3   OH259832   3.804   4.228  11.792  0.4194 -0.4205 -0.4615
12806TIP3    H159833   3.819   4.238  11.698 -0.2371  1.3869 -0.3854
12806TIP3    H259834   3.709   4.238  11.802  0.7601  1.7743  0.6674
12807TIP3   OH259835   1.079   5.324   1.817 -0.3089  0.3060 -0.1426
12807TIP3    H159836   1.056   5.341   1.909 -0.8411  0.6388 -0.3412
12807TIP3    H259837   1.005   5.358   1.767  0.6171  1.3942 -0.7813
12808TIP3   OH259838   0.468   3.863  14.937  0.2284  0.0028  0.2186
12808TIP3    H159839   0.441   3.771  14.940 -2.3283  0.7684  2.1115
12808TIP3    H259840   0.451   3.890  14.847 -3.2540 -0.1955  0.7663
12809TIP3   OH259841   4.028   4.993  15.474  0.0509 -0.5542  0.1431
12809TIP3    H159842   3.999   4.924  15.414  0.1179  2.4629 -3.5472
12809TIP3    H259843   4.123   4.981  15.480  0.5840  1.2397 -3.3646
12810TIP3   OH259844   2.846   5.758  15.264 -0.2488 -0.4198  0.0764
12810TIP3    H159845   2.764   5.801  15.288  1.4714  2.7187  0.6330
12810TIP3    H259846   2.900   5.767  15.343  1.0208 -1.4862 -0.6661
12811TIP3   OH259847   3.870   4.791   5.945  0.0769 -0.9498 -0.0194
12811TIP3    H159848   3.928   4.862   5.972 -0.4886 -0.3965 -0.2421
12811TIP3    H259849   3.914   4.711   5.973  0.9566 -0.5343 -0.2045
12812TIP3   OH259850   4.589   6.711   1.547  0.0329  0.1003  0.1915
12812TIP3    H159851   4.654   6.652   1.584  0.6286 -0.5483 -1.7868
12812TIP3    H259852   4.608   6.712   1.453 -1.5981  1.4234 -0.1650
12813TIP3   OH259853   4.055   1.096   0.216  0.0520  0.2266 -0.3631
12813TIP3    H159854   4.136   1.079   0.169 -0.0385  0.2048 -0.5123
12813TIP3    H259855   3.987   1.094   0.148 -0.6021 -3.6790  0.2846
12814TIP3   OH259856   0.513   3.733   4.464  0.3488 -0.1220 -0.1946
12814TIP3    H159857   0.475   3.704   4.547 -1.2001  1.2613 -0.4069
12814TIP3    H259858   0.439   3.734   4.403  0.8046  2.0890 -0.7483
12815TIP3   OH259859   4.129   4.932   1.169 -0.0571  0.6307  0.0488
12815TIP3    H159860   4.217   4.921   1.206  0.0690  2.0221  0.1908
12815TIP3    H259861   4.084   4.989   1.232 -0.6601  0.9393 -0.6586
12816TIP3   OH259862   3.577   5.418   2.465 -0.4718  0.3413 -0.7729
12816TIP3    H159863   3.609   5.496   2.511  0.2289  0.3991 -1.3516
12816TIP3    H259864   3.614   5.425   2.377  1.9168 -2.0724 -0.0350
12817TIP3   OH259865   2.735   5.075   3.354 -0.5864  0.1105 -0.1881
12817TIP3    H159866   2.641   5.066   3.337 -0.4836  1.9209 -1.8384
12817TIP3    H259867   2.741   5.145   3.419 -0.3026  1.3065 -1.4691
12818TIP3   OH259868   3.082   2.599  17.038  0.0418 -0.2684  0.5582
12818TIP3    H159869   3.104   2.632  17.125  2.0031 -0.8955  0.3241
12818TIP3    H259870   3.131   2.517  17.030 -0.6422 -0.5636 -0.8866
12819TIP3   OH259871   6.378   5.500   2.138  0.0976  0.8084 -0.3455
12819TIP3    H159872   6.473   5.494   2.150 -0.1842 -0.5157  1.5125
12819TIP3    H259873   6.363   5.591   2.111  1.7437  1.5668  1.1535
12820TIP3   OH259874   4.566   0.112   0.451 -0.7107  0.3655  0.1007
12820TIP3    H159875   4.642   0.117   0.393 -0.1591 -0.6756  0.7166
12820TIP3    H259876   4.493   0.091   0.393  0.2096 -2.8632  0.0241
12821TIP3   OH259877   5.392   4.512   5.054 -0.0039  0.1367 -0.4856
12821TIP3    H159878   5.418   4.451   4.984 -0.2714 -0.0380 -0.4310
12821TIP3    H259879   5.313   4.474   5.092 -0.0782  0.4315 -0.3397
12822TIP3   OH259880   6.330   0.011  11.891  0.0819  0.3423  0.4641
12822TIP3    H159881   6.242  -0.010  11.920  0.7206  0.5654  2.7037
12822TIP3    H259882   6.318   0.058  11.808 -1.9233  0.9002  1.0480
12823TIP3   OH259883   1.277   1.518  14.694  0.4825 -0.2716 -0.4883
12823TIP3    H159884   1.360   1.562  14.674  1.6048 -0.5383  3.1959
12823TIP3    H259885   1.257   1.545  14.784 -2.1490 -2.2072 -0.4484
12824TIP3   OH259886   1.357   3.317   3.952  0.3193  0.9618  0.3983
12824TIP3    H159887   1.277   3.266   3.958  0.9506  0.1835  2.8851
12824TIP3    H259888   1.372   3.327   3.858 -1.4140 -0.9000 -0.1176
12825TIP3   OH259889   3.498   5.826   5.727  0.2860 -0.5336 -0.3346
12825TIP3    H159890   3.570   5.826   5.664  0.3326 -0.8966 -0.2832
12825TIP3    H259891   3.476   5.733   5.737  0.4401 -0.4945  0.3682
12826TIP3   OH259892   0.204   6.701  14.160  0.5036 -0.1298 -0.3306
12826TIP3    H159893   0.227   6.642  14.231  0.8016  0.4727  0.0739
12826TIP3    H259894   0.203   6.645  14.082  0.1956 -0.7837  0.1364
12827TIP3   OH259895   0.353   6.718  14.675 -0.5733  0.4399  0.1400
12827TIP3    H159896   0.287   6.652  14.694 -1.0947  0.4508 -1.5424
12827TIP3    H259897   0.412   6.676  14.612 -0.7289  1.4514 -0.7023
12828TIP3   OH259898   6.667   3.447   2.413 -0.0471  0.2293 -0.3693
12828TIP3    H159899   6.752   3.476   2.447  0.4819  0.2239 -1.6644
12828TIP3    H259900   6.662   3.355   2.437  0.1990  0.2980 -0.0526
12829TIP3   OH259901   4.937   5.536   1.186  0.2105 -0.4450 -0.5114
12829TIP3    H159902   4.878   5.491   1.126  0.8658 -1.2428 -0.5635
12829TIP3    H259903   4.947   5.623   1.149 -0.8477 -0.3279 -0.5573
12830TIP3   OH259904   6.372   0.670  10.742 -0.2409 -0.0584 -0.4816
12830TIP3    H159905   6.398   0.632  10.826  0.8232  0.9061 -0.3777
12830TIP3    H259906   6.277   0.682  10.750 -0.4970 -1.9849 -0.2383
12831TIP3   OH259907   5.841   1.775   3.627 -0.1180  0.1051 -0.1409
12831TIP3    H159908   5.874   1.685   3.622 -0.0734  0.0654  0.7125
12831TIP3    H259909   5.772   1.771   3.693  0.2188  0.7957  0.2556
12832TIP3   OH259910   3.983   1.224  12.649  0.2459 -0.2760  0.2478
12832TIP3    H159911   4.076   1.204  12.664  0.0427 -1.1976  0.2971
12832TIP3    H259912   3.969   1.307  12.695  0.8938 -0.4444  0.7606
12833TIP3   OH259913   5.170   6.297   5.783  0.4586 -0.2205 -0.0768
12833TIP3    H159914   5.160   6.230   5.715  2.3028  0.0358 -0.6273
12833TIP3    H259915   5.220   6.254   5.852  1.8352  0.6175 -0.5191
12834TIP3   OH259916   5.227   2.434   0.834  0.7793 -0.3641 -0.3462
12834TIP3    H159917   5.206   2.526   0.853  1.3782 -0.4114  0.5789
12834TIP3    H259918   5.269   2.437   0.748  1.5070  0.3303  0.0237
12835TIP3   OH259919   6.456   4.393  16.303 -0.6726 -0.3684  0.1526
12835TIP3    H159920   6.509   4.369  16.378  0.2162 -1.0345 -0.6766
12835TIP3    H259921   6.454   4.489  16.304  1.6883 -0.2816 -0.5880
12836TIP3   OH259922   5.800   4.681   5.027 -0.2555 -0.4640  0.1009
12836TIP3    H159923   5.871   4.720   5.078  0.8236 -2.7752  0.4502
12836TIP3    H259924   5.724   4.734   5.047  0.7651  0.3574  1.9411
12837TIP3   OH259925   1.188   1.304   5.454  0.2078 -0.4664  0.4245
12837TIP3    H159926   1.220   1.308   5.364  1.2147 -1.2818  0.7299
12837TIP3    H259927   1.144   1.388   5.468 -1.1626 -0.8837 -1.2650
12838TIP3   OH259928   1.804   5.601  12.192 -0.2871  0.8733 -0.2039
12838TIP3    H159929   1.736   5.663  12.218 -1.6209 -0.6386  0.0121
12838TIP3    H259930   1.867   5.602  12.264  0.4900  3.0610 -0.8805
12839TIP3   OH259931   1.150   3.693   1.544  0.0600  0.1912  0.2261
12839TIP3    H159932   1.099   3.618   1.577  0.1101 -0.1215 -0.3869
12839TIP3    H259933   1.091   3.767   1.552 -1.5579 -0.6367 -3.0621
12840TIP3   OH259934   6.400   1.077  14.121  0.3558  0.2987 -0.3271
12840TIP3    H159935   6.466   1.103  14.056 -0.8357 -1.1140 -2.1638
12840TIP3    H259936   6.316   1.098  14.079 -0.4745 -1.8358  0.1826
12841TIP3   OH259937   5.825   4.999  16.851 -0.7454 -0.0530  0.0532
12841TIP3    H159938   5.795   4.909  16.862 -2.2289 -0.0350 -3.3336
12841TIP3    H259939   5.920   4.992  16.837 -0.6635 -0.9523  1.0394
12842TIP3   OH259940   3.506   0.921  11.786  0.7263 -0.1468 -0.1750
12842TIP3    H159941   3.586   0.938  11.835  0.0228 -2.9459  2.1294
12842TIP3    H259942   3.436   0.936  11.849 -0.2284 -3.1901 -0.4163
12843TIP3   OH259943   5.019   0.138   3.065 -0.0687 -0.3553  0.4229
12843TIP3    H159944   5.039   0.210   3.005 -2.1264  1.0186  1.3418
12843TIP3    H259945   4.937   0.101   3.033  0.1799 -1.3077  0.8604
12844TIP3   OH259946   6.539   0.508  16.018 -0.2097  0.4562  0.1932
12844TIP3    H159947   6.506   0.536  16.104  1.3981 -0.0253  1.0052
12844TIP3    H259948   6.633   0.525  16.023  0.0831 -0.7453 -1.0283
12845TIP3   OH259949   3.761   5.718   2.387  0.0209 -0.2530 -0.0500
12845TIP3    H159950   3.771   5.692   2.295  1.7533  1.3399 -0.3403
12845TIP3    H259951   3.850   5.731   2.418 -0.6095  0.4644  1.4983
12846TIP3   OH259952   4.817   1.397  15.535  0.4759  0.2473  0.5288
12846TIP3    H159953   4.825   1.315  15.487  1.3779  1.1124 -0.8386
12846TIP3    H259954   4.906   1.433  15.537  0.0947  1.1915  1.0998
12847TIP3   OH259955   6.397   6.396   5.140  0.3557  0.2293 -0.2513
12847TIP3    H159956   6.323   6.371   5.085  0.4320  0.2583 -0.3688
12847TIP3    H259957   6.363   6.466   5.195  0.6806  1.2271 -1.2934
12848TIP3   OH259958   5.534   3.674   4.796  0.6523  0.3812 -0.3150
12848TIP3    H159959   5.451   3.627   4.806  1.7428 -1.6374 -0.4394
12848TIP3    H259960   5.568   3.682   4.884  1.4994 -1.0186 -0.5044
12849TIP3   OH259961   6.523   2.301  11.604 -0.2028  0.0233 -0.3037
12849TIP3    H159962   6.431   2.316  11.582 -1.4003 -2.8820  2.4756
12849TIP3    H259963   6.549   2.226  11.551  0.5884  0.7618 -0.9948
12850TIP3   OH259964   0.584   0.162   0.567  0.2247  0.6419  0.6070
12850TIP3    H159965   0.528   0.231   0.603 -0.9882 -0.2251  0.4074
12850TIP3    H259966   0.531   0.122   0.498  0.2226 -1.6713  1.9190
12851TIP3   OH259967   2.421   3.292  14.880 -0.4202 -0.2600  0.4507
12851TIP3    H159968   2.442   3.361  14.817 -4.2982  0.5077 -0.1310
12851TIP3    H259969   2.432   3.211  14.832 -2.0306  0.2701 -0.8789
12852TIP3   OH259970   3.463   4.293   1.887  0.0854  0.4283 -0.4767
12852TIP3    H159971   3.497   4.346   1.814 -1.5674  0.8319 -0.9763
12852TIP3    H259972   3.455   4.205   1.850  2.9123 -0.2222  0.3786
12853TIP3   OH259973   0.146   4.466   1.724  0.0782  0.0688  0.5187
12853TIP3    H159974   0.174   4.390   1.774 -0.2423 -0.8643 -0.6879
12853TIP3    H259975   0.226   4.500   1.685  0.0429 -0.4610 -0.0255
12854TIP3   OH259976   3.613   0.440  11.048  0.2850 -0.2509 -0.2031
12854TIP3    H159977   3.622   0.348  11.074  1.5538 -0.6741 -1.9945
12854TIP3    H259978   3.603   0.436  10.952 -1.7736  1.3537 -0.0836
12855TIP3   OH259979   6.738   1.686   4.312 -0.1127 -0.0286 -0.0854
12855TIP3    H159980   6.749   1.601   4.271  0.1606  0.0949 -0.2706
12855TIP3    H259981   6.739   1.668   4.406  1.1681 -0.0872 -0.1076
12856TIP3   OH259982   4.155   5.173   4.254  0.2095  0.0767 -0.5694
12856TIP3    H159983   4.112   5.258   4.245  2.4829  1.4830  1.0360
12856TIP3    H259984   4.186   5.172   4.345 -0.7961 -2.9940 -0.2041
12857TIP3   OH259985   3.271   5.719  11.714 -0.5252 -0.1391 -0.2505
12857TIP3    H159986   3.272   5.793  11.652 -0.2954  0.0992  0.0373
12857TIP3    H259987   3.304   5.645  11.663  0.6482  0.2903 -0.1214
12858TIP3   OH259988   2.910   4.740  14.433  0.3914  0.8389  0.7178
12858TIP3    H159989   2.839   4.681  14.405  0.7441  0.3744  0.7914
12858TIP3    H259990   2.871   4.827  14.430  0.3487  0.7710 -0.9966
12859TIP3   OH259991   3.432   6.495  15.310 -0.4950  0.0036  0.1060
12859TIP3    H159992   3.487   6.558  15.265 -1.2682  1.3449  1.0110
12859TIP3    H259993   3.472   6.485  15.397 -1.0016  0.0981  0.3540
12860TIP3   OH259994   0.739   2.250  13.457 -0.0524  0.0905  0.0916
12860TIP3    H159995   0.745   2.190  13.383  0.5311 -0.2088  0.3793
12860TIP3    H259996   0.781   2.331  13.427  0.9305 -0.3084  0.3775
12861TIP3   OH259997   2.394   6.208  16.952  0.3583 -0.5992  0.1078
12861TIP3    H159998   2.443   6.150  17.011 -0.5541 -1.4574  0.0328
12861TIP3    H259999   2.461   6.244  16.894  0.8792 -2.0308 -0.2151
12862TIP3   OH260000   4.476   0.636   1.656 -0.2295  0.0746  0.1247
12862TIP3    H160001   4.499   0.553   1.698 -0.4259  0.0040  0.0940
12862TIP3    H260002   4.391   0.620   1.615 -0.0271  0.1359 -0.3237
12863TIP3   OH260003   6.668   6.170  11.898  0.1990 -0.2237  0.1526
12863TIP3    H160004   6.646   6.159  11.990 -0.3158 -1.8256 -0.1411
12863TIP3    H260005   6.600   6.122  11.851 -0.5050  1.9832 -1.1531
12864TIP3   OH260006   2.787   3.815   6.430  0.3361 -0.3331  0.3622
12864TIP3    H160007   2.734   3.875   6.482 -0.2349  0.5189 -1.1648
12864TIP3    H260008   2.874   3.819   6.469 -0.6502 -1.5701  2.7553
12865TIP3   OH260009   5.048   1.241  13.284 -0.5982  0.2575  0.9766
12865TIP3    H160010   5.103   1.305  13.329  1.1308  0.0664 -0.7657
12865TIP3    H260011   5.053   1.162  13.338 -0.5482  0.7612  1.7149
12866TIP3   OH260012   4.313   5.873  15.345 -0.5346  0.5945 -0.6940
12866TIP3    H160013   4.383   5.870  15.410  0.5319  1.1250 -1.7966
12866TIP3    H260014   4.249   5.809  15.376 -0.0943  0.9074  0.9173
12867TIP3   OH260015   6.089   1.697   1.354 -0.0684 -0.5506  0.3630
12867TIP3    H160016   6.057   1.645   1.280 -0.9951  1.0391 -0.3745
12867TIP3    H260017   6.017   1.698   1.417 -0.2239  0.2123  0.1766
12868TIP3   OH260018   4.043   5.307   4.759  0.0461 -0.2707  0.5617
12868TIP3    H160019   4.072   5.221   4.729 -0.2538 -1.0026  2.3009
12868TIP3    H260020   4.092   5.369   4.705 -0.6091 -1.5298 -1.5161
12869TIP3   OH260021   6.150   2.953   3.194  0.0030  0.3434  0.0668
12869TIP3    H160022   6.184   3.041   3.205 -0.6024  0.6130 -0.2236
12869TIP3    H260023   6.113   2.952   3.105 -0.1746 -0.1420  0.1414
12870TIP3   OH260024   1.464   6.508   5.780  0.0464  0.5048  0.0436
12870TIP3    H160025   1.392   6.495   5.842  0.9391 -1.3574  0.7101
12870TIP3    H260026   1.531   6.555   5.831  0.1916  0.2782  0.0619
12871TIP3   OH260027   0.823   1.444   2.321  0.1481  0.3747  0.4720
12871TIP3    H160028   0.896   1.506   2.322 -0.0906  0.6800 -0.8871
12871TIP3    H260029   0.750   1.492   2.361  0.0946  0.8057 -0.1411
12872TIP3   OH260030   4.100   6.710   0.818 -0.0342 -0.2213  0.0678
12872TIP3    H160031   4.010   6.694   0.791 -0.7699 -1.0701  2.8101
12872TIP3    H260032   4.134   6.624   0.841  1.1835  0.2104 -0.0682
12873TIP3   OH260033   5.753   5.766   5.282 -0.5609  0.1285  0.4245
12873TIP3    H160034   5.675   5.821   5.282 -1.7406 -1.4763  0.7471
12873TIP3    H260035   5.812   5.808   5.219 -0.9903  2.2934  1.4369
12874TIP3   OH260036   6.490   1.068  15.281  0.2778  0.0090 -0.2412
12874TIP3    H160037   6.432   1.018  15.337  0.2008  1.4140  0.9742
12874TIP3    H260038   6.464   1.159  15.295  0.4899  0.4188 -2.2956
12875TIP3   OH260039   2.312   3.585   3.408 -0.4640  0.1858 -0.2031
12875TIP3    H160040   2.372   3.660   3.405  1.9028 -1.6938 -4.4934
12875TIP3    H260041   2.361   3.516   3.452 -1.7385  0.3828  1.5649
12876TIP3   OH260042   1.669   2.660  15.010 -0.5525 -0.2484  0.1397
12876TIP3    H160043   1.596   2.719  15.032  0.4940  0.5549  1.5794
12876TIP3    H260044   1.627   2.578  14.987 -1.9299  0.0810  1.3530
12877TIP3   OH260045   2.907   2.079  17.173  0.3566  0.7500  0.2708
12877TIP3    H160046   2.884   2.170  17.156  0.4500  0.2631 -2.7269
12877TIP3    H260047   2.982   2.062  17.116  1.1289 -0.8686  1.7130
12878TIP3   OH260048   0.209   6.051   0.876 -0.5328  0.0879  0.0065
12878TIP3    H160049   0.292   6.080   0.839 -1.1778  0.9239 -0.8387
12878TIP3    H260050   0.198   6.103   0.955 -0.2448 -0.0364  0.1275
12879TIP3   OH260051   4.428   6.159  15.509 -0.4774  0.0127 -0.1483
12879TIP3    H160052   4.433   6.085  15.448  0.4060 -0.9300  1.0407
12879TIP3    H260053   4.367   6.130  15.576 -1.0371  0.8391 -0.2987
12880TIP3   OH260054   3.450   5.585  15.964  0.4704  0.0214 -0.3634
12880TIP3    H160055   3.534   5.622  15.939  0.6653 -0.4733 -0.4360
12880TIP3    H260056   3.471   5.510  16.018  0.0605  0.6148  0.6468
12881TIP3   OH260057   5.190   1.798   4.682  0.8670 -0.4928  0.2667
12881TIP3    H160058   5.161   1.754   4.602  0.6572 -0.0113  0.0812
12881TIP3    H260059   5.113   1.800   4.738  0.9077 -0.4667  0.3235
12882TIP3   OH260060   6.120   2.762  14.972  0.2064 -0.2370 -0.5288
12882TIP3    H160061   6.035   2.805  14.984  0.4529  0.0263  0.2917
12882TIP3    H260062   6.120   2.735  14.880  0.2725  2.0587 -1.2455
12883TIP3   OH260063   1.202   3.477   0.859  0.1783 -0.0151 -0.6388
12883TIP3    H160064   1.204   3.547   0.925  0.6090  0.0406 -0.7109
12883TIP3    H260065   1.247   3.515   0.783 -0.7847  0.1128 -1.1559
12884TIP3   OH260066   2.705   5.425   4.351 -0.0768  0.2302 -0.0876
12884TIP3    H160067   2.669   5.342   4.385  1.2354 -0.7554 -1.0519
12884TIP3    H260068   2.694   5.487   4.424 -1.0389 -0.7876  0.6656
12885TIP3   OH260069   6.100   4.075   3.059 -0.0652 -0.1665 -0.1175
12885TIP3    H160070   6.020   4.115   3.024  0.5445 -0.8843 -2.3994
12885TIP3    H260071   6.074   3.985   3.081 -0.1563 -0.0688  0.1761
12886TIP3   OH260072   2.120   4.531  12.403 -0.5835  0.0476  0.3871
12886TIP3    H160073   2.041   4.487  12.375 -0.8900  0.4681  0.5769
12886TIP3    H260074   2.095   4.624  12.410  0.3839  0.4415 -1.2577
12887TIP3   OH260075   4.142   2.729   6.624 -0.3527 -0.0320 -0.4899
12887TIP3    H160076   4.193   2.691   6.695  1.5537  0.4673 -1.5758
12887TIP3    H260077   4.108   2.811   6.660 -1.2316 -0.8170  0.5436
12888TIP3   OH260078   1.751   5.553   0.893  0.2345  0.2030  0.3122
12888TIP3    H160079   1.719   5.464   0.886 -1.5616  0.9732 -1.9980
12888TIP3    H260080   1.835   5.552   0.848  0.4357 -0.4137  0.6983
12889TIP3   OH260081   6.531   3.860   4.170 -0.7174  0.0970 -0.6617
12889TIP3    H160082   6.587   3.932   4.139 -0.7238 -0.2336 -1.4469
12889TIP3    H260083   6.536   3.794   4.101  0.9386 -1.5560  0.9792
12890TIP3   OH260084   4.500   0.749   3.286 -0.3806  0.3252  0.0681
12890TIP3    H160085   4.579   0.754   3.232 -0.4211 -0.3383 -0.0639
12890TIP3    H260086   4.465   0.837   3.286 -0.1232  0.4292 -0.6075
12891TIP3   OH260087   0.918   0.300   2.570  0.2262  0.2354  0.2496
12891TIP3    H160088   1.007   0.335   2.563  0.2681  0.0390 -0.2566
12891TIP3    H260089   0.882   0.340   2.649  0.8102  0.2171  0.5296
12892TIP3   OH260090   4.630   2.821  14.760  0.8433  0.0198  0.1163
12892TIP3    H160091   4.556   2.767  14.733  2.1827 -1.3892 -0.8299
12892TIP3    H260092   4.614   2.841  14.852  0.3034 -1.9730  0.4700
12893TIP3   OH260093   3.880   6.509   1.613  0.3206  0.5234 -0.5886
12893TIP3    H160094   3.935   6.566   1.667 -0.1323  0.6420 -0.2542
12893TIP3    H260095   3.943   6.456   1.564  0.7401  0.5605 -0.1041
12894TIP3   OH260096   2.800   3.759   2.163 -0.6408  0.0277 -0.1830
12894TIP3    H160097   2.832   3.757   2.073 -0.9443 -0.1941 -0.2863
12894TIP3    H260098   2.759   3.845   2.173  0.1640  0.3938  0.0122
12895TIP3   OH260099   5.015   4.346   2.096  0.4161 -0.3030  0.0714
12895TIP3    H160100   4.981   4.280   2.036  0.8299 -1.9466  1.6156
12895TIP3    H260101   5.109   4.329   2.100  0.3898 -0.2040  1.1938
12896TIP3   OH260102   5.032   2.517  13.489 -0.5293 -0.3112  0.4466
12896TIP3    H160103   5.058   2.570  13.564  1.0326  1.4954 -1.3183
12896TIP3    H260104   4.939   2.502  13.501 -0.1458 -0.6780  3.1219
12897TIP3   OH260105   2.682   4.588  14.416 -0.3475 -0.0405  0.0073
12897TIP3    H160106   2.661   4.652  14.348  1.1237 -0.1674 -0.5977
12897TIP3    H260107   2.612   4.598  14.480  0.9111  3.6428  0.9445
12898TIP3   OH260108   4.881   6.056   4.400 -0.4574 -0.1018 -0.1006
12898TIP3    H160109   4.794   6.045   4.440 -1.2482 -0.3761 -1.8340
12898TIP3    H260110   4.896   5.974   4.352  0.9571 -0.2320  0.5440
12899TIP3   OH260111   2.423   4.152   3.704 -0.2269  0.1632  0.2472
12899TIP3    H160112   2.360   4.220   3.727  0.3540  0.7563  0.1159
12899TIP3    H260113   2.406   4.081   3.765 -0.0424  0.9044  1.1666
12900TIP3   OH260114   5.570   0.123  11.003 -0.2692 -0.5093  0.0583
12900TIP3    H160115   5.489   0.079  10.976 -0.0197 -1.4059  0.7417
12900TIP3    H260116   5.639   0.074  10.959 -0.1057  0.3218 -0.6074
12901TIP3   OH260117   5.607   2.627   6.624 -0.3244 -0.8168 -0.8224
12901TIP3    H160118   5.553   2.703   6.604 -0.6177 -0.7694  0.1035
12901TIP3    H260119   5.697   2.659   6.619 -0.4991  0.7551  3.8078
12902TIP3   OH260120   3.243   3.695   5.038 -0.1949 -0.4277  0.8479
12902TIP3    H160121   3.256   3.786   5.067  1.1062 -0.6265  0.9264
12902TIP3    H260122   3.155   3.673   5.068 -0.0079  0.3668  2.0424
12903TIP3   OH260123   2.135   5.582   0.057  0.2188  0.6516  0.1145
12903TIP3    H160124   2.106   5.673   0.060 -2.6804 -0.2408  0.9829
12903TIP3    H260125   2.061   5.535   0.020  0.2637 -1.8417  2.9748
12904TIP3   OH260126   3.235   4.364  16.841 -0.4726 -0.0995 -1.1679
12904TIP3    H160127   3.236   4.283  16.892 -1.7768  1.5808  1.6694
12904TIP3    H260128   3.321   4.403  16.856 -0.9286  0.4976  0.0035
12905TIP3   OH260129   1.988   6.262  11.484  0.0295 -0.2482 -0.0775
12905TIP3    H160130   1.930   6.311  11.426 -0.0710  0.8370  0.9328
12905TIP3    H260131   1.931   6.231  11.555  0.5191  0.1232  0.4858
12906TIP3   OH260132   1.068   3.969   4.830  0.1345 -0.6822 -0.2758
12906TIP3    H160133   1.161   3.974   4.855  0.1766 -1.0471 -0.3506
12906TIP3    H260134   1.032   3.901   4.887 -0.6136  1.0237  1.3611
12907TIP3   OH260135   4.529   0.935   5.845 -0.9116 -0.3774  0.2827
12907TIP3    H160136   4.599   0.937   5.780 -2.6409  1.7216 -1.6198
12907TIP3    H260137   4.565   0.981   5.920 -0.4918  1.5270 -1.0326
12908TIP3   OH260138   0.647   0.335   5.406 -0.1890 -0.4058  0.3448
12908TIP3    H160139   0.688   0.372   5.485 -0.8643 -0.5839  0.7769
12908TIP3    H260140   0.577   0.280   5.438 -0.9276  0.0804 -0.4077
12909TIP3   OH260141   0.394   0.698   0.021 -0.2470 -0.4035  0.4101
12909TIP3    H160142   0.443   0.617   0.008 -2.1804 -1.7778  1.3916
12909TIP3    H260143   0.336   0.680   0.096 -1.4257  1.5346  0.0246
12910TIP3   OH260144   3.861   3.405   3.729  0.3321  0.5936 -0.2781
12910TIP3    H160145   3.904   3.360   3.801 -2.0977 -0.7304  0.3853
12910TIP3    H260146   3.809   3.473   3.771 -1.2697 -0.3244 -0.7377
12911TIP3   OH260147   6.364   0.886   5.523  0.1911 -0.1322 -0.1165
12911TIP3    H160148   6.421   0.821   5.565  0.2677 -0.0233 -0.0505
12911TIP3    H260149   6.297   0.905   5.589  0.8352  0.7173  0.3070
12912TIP3   OH260150   2.826   3.168   3.468 -0.0068 -0.1156 -0.2533
12912TIP3    H160151   2.913   3.127   3.470  0.5329  0.8194 -2.5749
12912TIP3    H260152   2.832   3.234   3.399 -2.4726  0.2130 -0.2098
12913TIP3   OH260153   1.187   2.780  12.911 -0.3298  0.2444  1.0184
12913TIP3    H160154   1.159   2.718  12.845  1.7554 -0.4931  0.7991
12913TIP3    H260155   1.148   2.863  12.885 -0.4796 -0.2941 -0.4742
12914TIP3   OH260156   2.437   0.017  12.932  0.5092 -0.2349 -0.0913
12914TIP3    H160157   2.366   0.071  12.969  0.8753  0.2924 -0.1486
12914TIP3    H260158   2.416   0.011  12.839  0.7563  0.2783 -0.1872
12915TIP3   OH260159   1.201   3.679  14.634  0.2390 -0.2847  0.4582
12915TIP3    H160160   1.169   3.751  14.579 -1.5119 -1.9476 -0.7773
12915TIP3    H260161   1.293   3.699  14.648  0.2278  1.2576 -1.4108
12916TIP3   OH260162   3.525   0.643   0.605 -0.6882  0.2094  0.4339
12916TIP3    H160163   3.555   0.552   0.613  0.0460  0.3637 -0.6001
12916TIP3    H260164   3.490   0.649   0.517  2.3262  1.8157 -0.7286
12917TIP3   OH260165   1.632   4.694   4.672 -0.0651 -0.5187 -0.2668
12917TIP3    H160166   1.713   4.652   4.699 -1.0310 -1.7789  0.7856
12917TIP3    H260167   1.573   4.621   4.652 -1.1106  0.3647 -0.4708
12918TIP3   OH260168   4.140   0.847  16.117  0.3055 -0.1107  0.0672
12918TIP3    H160169   4.230   0.868  16.096  1.1528 -2.8057  0.7889
12918TIP3    H260170   4.099   0.828  16.033  0.6510  0.1971 -0.1685
12919TIP3   OH260171   0.256   6.539   3.688  0.0437  0.2301  0.1852
12919TIP3    H160172   0.257   6.634   3.698 -0.2192  0.3420 -0.7689
12919TIP3    H260173   0.237   6.525   3.595 -1.9541 -0.7674  0.7193
12920TIP3   OH260174   3.875   5.370   2.720  0.3862  0.0462  0.6446
12920TIP3    H160175   3.913   5.317   2.649  1.1742 -0.7855  1.6835
12920TIP3    H260176   3.795   5.407   2.682  1.0815  0.0409 -0.8580
12921TIP3   OH260177   6.606   0.919  15.543 -0.4974  0.4139  0.0509
12921TIP3    H160178   6.520   0.885  15.517 -0.1420 -0.4007 -0.0835
12921TIP3    H260179   6.668   0.870  15.488  0.0269  1.2338 -0.0845
12922TIP3   OH260180   0.834   6.506   4.874 -0.2988 -0.3624 -0.6296
12922TIP3    H160181   0.824   6.443   4.944 -0.8653  0.4979  0.0717
12922TIP3    H260182   0.782   6.472   4.802  2.0878 -2.4218 -1.4658
12923TIP3   OH260183   2.363   0.316  15.405  0.7631 -0.2278  0.2190
12923TIP3    H160184   2.271   0.335  15.388  0.5405 -1.3859  0.0646
12923TIP3    H260185   2.368   0.308  15.501  0.5489 -0.8384  0.1873
12924TIP3   OH260186   2.316   6.115   0.846  0.2440 -0.0281  0.1255
12924TIP3    H160187   2.248   6.179   0.870  1.2071  0.5541  1.3726
12924TIP3    H260188   2.365   6.158   0.777  0.8889  0.5971  0.9617
12925TIP3   OH260189   1.330   5.643  10.972 -0.0743  0.0289  0.0166
12925TIP3    H160190   1.372   5.672  10.891 -0.8977  0.1317 -0.3784
12925TIP3    H260191   1.379   5.566  10.999 -0.3235 -0.5013 -1.0355
12926TIP3   OH260192   4.451   5.582   2.147 -0.1309 -0.4840 -0.0248
12926TIP3    H160193   4.476   5.668   2.180  0.6240  0.0125 -1.8483
12926TIP3    H260194   4.484   5.521   2.213 -0.4652  0.5876  1.1632
12927TIP3   OH260195   3.799   0.422  15.096 -0.3224 -0.1563  0.0077
12927TIP3    H160196   3.830   0.397  15.009 -0.9151 -1.2804  0.1021
12927TIP3    H260197   3.823   0.514  15.105 -1.3075  0.3066 -1.8083
12928TIP3   OH260198   2.372   1.865  12.091  0.2596 -0.1623 -0.5725
12928TIP3    H160199   2.452   1.843  12.044  0.6157 -0.1854  0.0390
12928TIP3    H260200   2.371   1.804  12.165 -0.1598  0.0523 -0.4023
12929TIP3   OH260201   0.720   4.780   1.220  0.0021 -0.1032  0.3284
12929TIP3    H160202   0.770   4.843   1.166 -1.6145 -0.1014 -1.2157
12929TIP3    H260203   0.639   4.826   1.241 -0.1729 -0.8089  1.2144
12930TIP3   OH260204   4.318   5.130  12.771 -0.1504  0.0405 -0.0244
12930TIP3    H160205   4.267   5.052  12.792  0.3960 -0.7322 -1.4986
12930TIP3    H260206   4.393   5.125  12.831 -0.5351 -0.1237  0.4523
12931TIP3   OH260207   4.201   0.654  10.920  0.0208 -0.1106  0.4350
12931TIP3    H160208   4.202   0.653  10.825 -1.6662 -1.3985  0.4106
12931TIP3    H260209   4.147   0.579  10.945  1.7224 -0.7434  2.4403
12932TIP3   OH260210   1.199   2.319   4.264 -0.4032  0.2066  0.2857
12932TIP3    H160211   1.293   2.336   4.266 -0.1513 -0.9186 -0.7918
12932TIP3    H260212   1.160   2.400   4.232  0.4473 -0.1272 -1.6767
12933TIP3   OH260213   0.533   3.521   5.411 -0.2012 -0.2625  0.0142
12933TIP3    H160214   0.502   3.547   5.498  0.0199  0.5883 -0.1613
12933TIP3    H260215   0.506   3.593   5.353  0.2244 -0.5235 -0.5094
12934TIP3   OH260216   4.363   2.952  15.419  0.0968  0.7547 -0.3093
12934TIP3    H160217   4.377   2.858  15.425  1.7632  1.0899  1.3124
12934TIP3    H260218   4.305   2.973  15.493  0.5526  1.1520 -0.0613
12935TIP3   OH260219   6.746   3.626   5.392  0.1203 -0.1902 -0.4045
12935TIP3    H160220   6.702   3.547   5.360  0.3370  0.6073 -2.8173
12935TIP3    H260221   6.677   3.691   5.401  0.2690  0.0070 -0.6678
12936TIP3   OH260222   4.661   5.421  11.101 -0.2893 -0.1153 -0.3966
12936TIP3    H160223   4.603   5.454  11.170  0.2650 -2.4383  1.2571
12936TIP3    H260224   4.634   5.330  11.089  0.5794 -0.1445 -2.2455
12937TIP3   OH260225   5.015   4.189  15.185  0.5488  0.3119  0.0460
12937TIP3    H160226   4.972   4.158  15.264 -0.0208 -2.0809 -1.1526
12937TIP3    H260227   4.945   4.233  15.136  0.8033  1.4098  0.6453
12938TIP3   OH260228   5.728   1.363  14.924 -0.2928  0.0871  0.1212
12938TIP3    H160229   5.724   1.457  14.939  0.1501  0.3172 -1.1373
12938TIP3    H260230   5.637   1.335  14.920 -0.4448  0.8183 -1.6061
12939TIP3   OH260231   5.571   3.156  12.286  0.1255  1.0098  0.3922
12939TIP3    H160232   5.586   3.173  12.193 -3.1229  1.4426 -0.1341
12939TIP3    H260233   5.566   3.243  12.326  0.6353  0.8451  0.8200
12940TIP3   OH260234   2.775   4.330  14.326  0.2556  0.8708 -1.1072
12940TIP3    H160235   2.814   4.372  14.403 -0.1009 -0.4305 -0.1808
12940TIP3    H260236   2.690   4.373  14.315 -1.2171 -1.2179  1.3645
12941TIP3   OH260237   6.605   4.947  11.569 -0.1719  0.3760 -0.8386
12941TIP3    H160238   6.534   4.993  11.613  1.2682  1.8275  0.0646
12941TIP3    H260239   6.574   4.858  11.558 -1.4972  0.5815  1.0238
12942TIP3   OH260240   6.009   0.005  16.913  0.1987 -0.1098  0.2301
12942TIP3    H160241   5.986   0.006  16.820  2.2962 -1.9838 -0.3746
12942TIP3    H260242   6.097   0.043  16.916  0.8297 -1.5818  1.1881
12943TIP3   OH260243   0.768   3.345  15.096  0.0400 -0.7059 -0.6864
12943TIP3    H160244   0.847   3.394  15.072  0.0772 -1.6051 -2.3963
12943TIP3    H260245   0.799   3.257  15.115 -0.3377 -0.6406  0.2721
12944TIP3   OH260246   3.926   0.540  16.671 -0.4465  0.4013 -0.5898
12944TIP3    H160247   3.915   0.478  16.599  0.7920  0.7225 -1.0471
12944TIP3    H260248   4.019   0.560  16.673 -0.4543  0.3551  1.1383
12945TIP3   OH260249   0.856   5.987   3.600  0.4148  0.1288  0.4016
12945TIP3    H160250   0.936   6.004   3.649  0.4791  4.3206 -0.9737
12945TIP3    H260251   0.881   5.992   3.508 -0.9713 -1.0159 -0.0692
12946TIP3   OH260252   1.141   4.426  12.216  0.2747  0.4305 -0.1314
12946TIP3    H160253   1.120   4.405  12.125 -1.0578 -0.9474  0.4715
12946TIP3    H260254   1.232   4.401  12.226 -0.0308 -0.9372 -0.6667
12947TIP3   OH260255   6.580   3.244  10.251 -0.2368  0.4580  0.5481
12947TIP3    H160256   6.675   3.240  10.260 -0.4496 -1.5171  2.2478
12947TIP3    H260257   6.561   3.185  10.179 -0.2166  0.3497  0.6305
12948TIP3   OH260258   4.521   5.172  12.967 -0.0029  0.1431  0.2378
12948TIP3    H160259   4.580   5.229  13.016 -0.4914  0.5270  0.3944
12948TIP3    H260260   4.542   5.084  12.996  1.8325  0.1067 -1.1657
12949TIP3   OH260261   3.639   3.202   3.617  0.1771 -0.7023 -0.1733
12949TIP3    H160262   3.699   3.143   3.572 -0.3216  0.3784 -2.3409
12949TIP3    H260263   3.694   3.272   3.651  0.2855 -0.2274 -1.3004
12950TIP3   OH260264   4.408   2.357   3.939  0.1650  0.7255 -0.3848
12950TIP3    H160265   4.366   2.439   3.965 -3.5553 -0.9863 -0.6722
12950TIP3    H260266   4.402   2.301   4.017  0.5768 -0.0566 -0.9089
12951TIP3   OH260267   5.683   3.751  11.898 -0.4394  0.0022  0.3115
12951TIP3    H160268   5.763   3.722  11.942  0.7875  2.1154 -0.4751
12951TIP3    H260269   5.673   3.691  11.824  1.8527  1.2706 -1.0784
12952TIP3   OH260270   4.429   4.806  15.735 -0.7424 -0.2921 -0.1426
12952TIP3    H160271   4.413   4.880  15.795  0.7568 -0.9903  1.1693
12952TIP3    H260272   4.524   4.798  15.733 -0.8009 -0.7751 -2.0656
12953TIP3   OH260273   4.287   3.307  14.683 -0.3288 -0.3882 -0.0602
12953TIP3    H160274   4.332   3.229  14.649  1.8629  0.5560  0.6189
12953TIP3    H260275   4.296   3.301  14.778 -0.8605  0.2747  0.0370
12954TIP3   OH260276   1.481   5.592  10.424  0.0358  0.1318 -0.2478
12954TIP3    H160277   1.414   5.645  10.467 -1.8117 -1.0082 -1.6982
12954TIP3    H260278   1.507   5.528  10.491  1.2183  1.8909  1.0149
12955TIP3   OH260279   2.974   1.129  14.579  0.4641 -0.5138 -0.2017
12955TIP3    H160280   2.964   1.067  14.507  0.6291 -1.8997  0.9468
12955TIP3    H260281   2.959   1.077  14.658 -1.5711  1.3817  0.7097
12956TIP3   OH260282   1.905   4.369   2.558  0.4421  0.5817 -0.6536
12956TIP3    H160283   1.876   4.395   2.646  0.3203  0.1606 -0.5711
12956TIP3    H260284   1.829   4.382   2.502  0.6063  1.1392 -0.7581
12957TIP3   OH260285   3.856   4.228   3.368 -0.3827  0.7101  0.0267
12957TIP3    H160286   3.946   4.257   3.348  0.3742  0.3708  2.6906
12957TIP3    H260287   3.851   4.232   3.464 -3.0476  0.1584 -0.0578
12958TIP3   OH260288   2.245   1.815   1.965  0.1176 -0.7309 -0.0715
12958TIP3    H160289   2.282   1.780   2.045  0.1981  1.3372  0.8157
12958TIP3    H260290   2.210   1.901   1.989 -1.8474 -0.9959 -1.7365
12959TIP3   OH260291   5.976   4.775  13.654 -0.2583  0.2385 -0.5763
12959TIP3    H160292   5.991   4.721  13.732 -0.9205 -0.5130 -0.9554
12959TIP3    H260293   5.884   4.800  13.660 -0.4456 -0.2354 -1.3612
12960TIP3   OH260294   0.129   0.035   4.917 -0.2620  0.2370 -0.6222
12960TIP3    H160295   0.092   0.103   4.972  0.0448  0.5188 -0.7648
12960TIP3    H260296   0.133  -0.042   4.974 -0.5147  0.3643 -0.4316
12961TIP3   OH260297   3.615   2.955  12.222 -0.0387  0.5563 -0.9017
12961TIP3    H160298   3.526   2.978  12.249  0.1874  1.3061 -0.7823
12961TIP3    H260299   3.602   2.897  12.147 -0.6361  0.4292 -0.7031
12962TIP3   OH260300   5.294   2.490   3.472  0.3246 -0.4124  0.0816
12962TIP3    H160301   5.359   2.425   3.446 -0.8308 -1.8061  0.5975
12962TIP3    H260302   5.229   2.488   3.401 -0.5312 -0.9719  0.8785
12963TIP3   OH260303   0.786   6.063  15.130 -0.6907 -0.0676 -0.3388
12963TIP3    H160304   0.744   6.113  15.200  1.3838  0.6261  0.4610
12963TIP3    H260305   0.779   6.119  15.053  0.4346  0.9166  0.2437
12964TIP3   OH260306   3.273   4.913   4.975  0.2192  0.0645 -0.0497
12964TIP3    H160307   3.274   4.818   4.962 -0.2997 -0.1476  1.3231
12964TIP3    H260308   3.192   4.942   4.934 -1.4183 -0.5959  2.5978
12965TIP3   OH260309   5.871   3.862  11.694  0.1569 -0.1197  0.4878
12965TIP3    H160310   5.821   3.918  11.634 -0.7279 -0.4715  0.8913
12965TIP3    H260311   5.813   3.789  11.712  0.6643 -0.3195  1.3026
12966TIP3   OH260312   6.573   4.510   0.636 -0.0737 -0.2203 -0.0249
12966TIP3    H160313   6.650   4.489   0.690 -0.5261  0.9818  1.1087
12966TIP3    H260314   6.524   4.574   0.688 -0.5684  0.8947 -1.8353
12967TIP3   OH260315   2.082   3.142   0.643 -0.1342 -0.0054  0.0071
12967TIP3    H160316   2.092   3.225   0.689 -2.1220 -0.1450  0.7499
12967TIP3    H260317   2.146   3.083   0.682 -0.0981  0.6065  0.8603
12968TIP3   OH260318   1.560   4.279   1.073 -0.1124  0.1542  0.8126
12968TIP3    H160319   1.644   4.320   1.092  0.7116 -1.0883 -0.1630
12968TIP3    H260320   1.568   4.244   0.985 -1.0136 -1.5855  1.3870
12969TIP3   OH260321   5.064   6.169   2.655  0.5416 -0.5953  0.6715
12969TIP3    H160322   5.139   6.227   2.646 -0.5332  0.8184  0.6271
12969TIP3    H260323   5.060   6.148   2.748  0.0043  0.7026  0.9556
12970TIP3   OH260324   3.288   5.085   5.278  0.1779 -0.8143 -0.1831
12970TIP3    H160325   3.306   5.014   5.340  0.5742 -1.0722 -0.5944
12970TIP3    H260326   3.340   5.064   5.201 -0.5394 -0.6423 -0.7189
12971TIP3   OH260327   1.032   0.550   4.646  0.1023  0.7696  0.7794
12971TIP3    H160328   1.074   0.619   4.595  0.9061 -1.2089 -1.3403
12971TIP3    H260329   1.102   0.485   4.660 -1.0913 -0.4702  1.1300
12972TIP3   OH260330   3.454   4.063   0.467  0.4947 -0.5890 -0.3089
12972TIP3    H160331   3.402   4.133   0.505 -1.4803 -1.6409 -1.0416
12972TIP3    H260332   3.536   4.105   0.441 -0.7354  1.4938 -0.9145
12973TIP3   OH260333   3.190   1.395  15.773  0.0056  0.1444 -0.0126
12973TIP3    H160334   3.203   1.303  15.797  1.8936  0.1662 -0.8937
12973TIP3    H260335   3.277   1.434  15.778 -0.6697  1.7352 -0.3171
12974TIP3   OH260336   6.635   6.558  15.428 -0.0267 -0.1257  0.2532
12974TIP3    H160337   6.652   6.649  15.401 -3.4125  0.1712 -1.0565
12974TIP3    H260338   6.617   6.564  15.522 -0.1650  0.5202  0.1890
12975TIP3   OH260339   5.344   5.486   0.931 -0.0610  0.0404  0.5619
12975TIP3    H160340   5.382   5.559   0.882 -1.4285  0.9183  0.7883
12975TIP3    H260341   5.420   5.439   0.965  0.8953  0.0624 -1.4243
12976TIP3   OH260342   0.824   4.125   0.206 -0.2268  0.7048  0.3831
12976TIP3    H160343   0.799   4.210   0.242 -1.5719  1.0581 -1.3124
12976TIP3    H260344   0.793   4.128   0.115  1.7336 -0.7310 -0.3606
12977TIP3   OH260345   5.174   4.741   3.888  0.1486 -0.3649 -0.5418
12977TIP3    H160346   5.238   4.670   3.887  0.2907 -0.2572  0.4140
12977TIP3    H260347   5.163   4.762   3.980  0.8191  1.5079 -0.8606
12978TIP3   OH260348   4.611   0.960  12.688 -0.0188 -0.0878 -0.1916
12978TIP3    H160349   4.580   1.013  12.761  1.0703  0.7259 -0.3139
12978TIP3    H260350   4.614   0.871  12.722 -0.9757  0.0525  0.2919
12979TIP3   OH260351   2.634   3.993   2.430  0.1385 -0.3457 -0.0550
12979TIP3    H160352   2.557   3.962   2.477 -0.0483 -2.1140 -1.5022
12979TIP3    H260353   2.605   4.008   2.341  1.0463  0.7496 -0.1850
12980TIP3   OH260354   4.874   1.107   1.322  0.0291 -0.1635 -0.3661
12980TIP3    H160355   4.906   1.061   1.244  1.0663 -4.4329  2.4051
12980TIP3    H260356   4.943   1.171   1.342  0.8535 -0.6411 -1.6014
12981TIP3   OH260357   5.979   3.650   3.341  0.8997 -0.2335  0.1654
12981TIP3    H160358   5.938   3.565   3.321  0.8012 -0.2974  0.6152
12981TIP3    H260359   5.939   3.676   3.425 -0.2914  1.0496 -0.7769
12982TIP3   OH260360   3.300   3.771  16.822  0.1097 -0.6693 -0.5405
12982TIP3    H160361   3.266   3.708  16.758  0.0819  0.7738 -1.9561
12982TIP3    H260362   3.226   3.830  16.838  0.9412  0.5384 -1.1601
12983TIP3   OH260363   6.162   2.393   6.006  0.0330  0.6835  0.3637
12983TIP3    H160364   6.196   2.305   6.018 -1.5445  0.0219  0.0847
12983TIP3    H260365   6.240   2.449   6.008  0.9844 -0.6357  1.1478
12984TIP3   OH260366   1.913   2.370  11.362  0.1041 -0.2426  0.4550
12984TIP3    H160367   2.007   2.381  11.368  0.2278 -1.3226  0.5192
12984TIP3    H260368   1.900   2.294  11.306 -0.7032 -0.7424  1.2960
12985TIP3   OH260369   4.049   1.886  12.362 -0.6201  0.0224 -0.2654
12985TIP3    H160370   4.089   1.823  12.422 -0.0617  0.8226  0.2278
12985TIP3    H260371   4.109   1.892  12.288 -1.0784 -0.6213 -0.6953
12986TIP3   OH260372   5.258   0.629  14.268  0.0827  0.0404  0.4162
12986TIP3    H160373   5.248   0.635  14.173 -0.7413  2.2721  0.6198
12986TIP3    H260374   5.185   0.576  14.297  0.7601 -1.2967 -0.2503
12987TIP3   OH260375   2.460   0.330  13.236 -0.3824 -0.3054  0.0657
12987TIP3    H160376   2.385   0.300  13.289 -0.7431 -1.7070 -1.2007
12987TIP3    H260377   2.530   0.268  13.258  0.1489  0.4609  0.5646
12988TIP3   OH260378   0.882   5.850   5.811  0.5037  0.0846  0.0313
12988TIP3    H160379   0.947   5.902   5.764 -0.5728  1.9021  0.5421
12988TIP3    H260380   0.841   5.797   5.742  1.5197 -0.0488 -0.4982
12989TIP3   OH260381   3.489   0.694   3.509 -0.3935  0.3232 -0.6380
12989TIP3    H160382   3.452   0.624   3.455  0.5256 -0.8782  0.2460
12989TIP3    H260383   3.528   0.755   3.447 -0.9139 -0.1256 -1.4103
12990TIP3   OH260384   4.519   2.481  13.108  0.2491  0.6145 -0.2775
12990TIP3    H160385   4.469   2.557  13.079 -1.3911  0.2620  1.5867
12990TIP3    H260386   4.603   2.517  13.137  0.1527  1.4965 -1.0683
12991TIP3   OH260387   4.438   3.567   1.163 -0.2798 -0.0981 -0.3169
12991TIP3    H160388   4.481   3.603   1.086 -0.2745  2.4700  0.8372
12991TIP3    H260389   4.426   3.642   1.221 -1.6652 -1.7062  1.5410
12992TIP3   OH260390   3.025   1.246   3.401  0.4787 -0.9517  0.1266
12992TIP3    H160391   2.966   1.186   3.356  0.0130  0.6494 -1.4530
12992TIP3    H260392   3.099   1.257   3.341  0.1994  0.6084  0.0242
12993TIP3   OH260393   2.520   1.782   3.532 -0.1658 -0.3171 -0.0237
12993TIP3    H160394   2.559   1.695   3.531 -0.0790 -0.2746 -1.6542
12993TIP3    H260395   2.441   1.773   3.586  0.5378 -1.0815  0.8840
12994TIP3   OH260396   4.990   1.944   3.035 -0.6786  0.1875  0.2772
12994TIP3    H160397   4.960   1.965   2.946  0.4883 -2.5739 -0.8412
12994TIP3    H260398   5.054   2.011   3.056 -1.6033  1.3664 -0.6261
12995TIP3   OH260399   1.553   2.394  14.906 -0.6417 -0.1800  0.0601
12995TIP3    H160400   1.479   2.431  14.858 -0.9328 -1.6003 -0.6068
12995TIP3    H260401   1.521   2.379  14.994 -1.1162 -0.6668 -0.1933
12996TIP3   OH260402   1.147   2.721  13.901 -0.4774 -0.2279 -0.3265
12996TIP3    H160403   1.122   2.632  13.925  0.9471 -1.3180 -2.7799
12996TIP3    H260404   1.067   2.758  13.862 -0.9390 -0.5650  0.2850
12997TIP3   OH260405   6.121   2.752   5.300 -0.2387  0.6491  0.1363
12997TIP3    H160406   6.138   2.660   5.318  0.7367  0.8571  0.3283
12997TIP3    H260407   6.162   2.798   5.373 -0.6116  1.2432 -0.0261
12998TIP3   OH260408   5.289   4.367  13.008 -0.4570  0.0310  0.2313
12998TIP3    H160409   5.200   4.401  12.997 -0.8299 -0.2186  2.3295
12998TIP3    H260410   5.328   4.425  13.073 -0.1230 -1.7729  1.6482
12999TIP3   OH260411   2.536   5.133  15.002  0.4913 -0.6020 -0.4107
12999TIP3    H160412   2.573   5.156  15.087  0.0316  1.5821 -0.7731
12999TIP3    H260413   2.611   5.109  14.948  0.8062 -1.7657  0.5199
13000TIP3   OH260414   3.349   3.071  12.957  0.5211  0.1440 -0.0060
13000TIP3    H160415   3.353   3.064  12.862  1.5043 -2.0225  0.1589
13000TIP3    H260416   3.266   3.031  12.981  1.6705 -2.1380  0.2467
13001TIP3   OH260417   0.434   5.517  14.263  0.2047  0.3181  0.3267
13001TIP3    H160418   0.431   5.434  14.215 -2.3428  0.0521  0.9105
13001TIP3    H260419   0.524   5.523  14.294  0.7722 -1.5734 -0.8673
13002TIP3   OH260420   3.558   3.479  16.998  0.1127  0.1494 -0.5839
13002TIP3    H160421   3.652   3.496  16.994  0.2417 -0.3323  0.2195
13002TIP3    H260422   3.552   3.388  17.028 -0.6261  0.4429  0.1625
13003TIP3   OH260423   4.549   0.092  16.334  0.8590  0.0888 -0.1626
13003TIP3    H160424   4.562  -0.003  16.325 -2.2012 -0.5821  1.7217
13003TIP3    H260425   4.581   0.112  16.422 -0.6745  0.3479  0.3475
13004TIP3   OH260426   5.300   1.506  10.712 -0.1686  0.0450  0.3577
13004TIP3    H160427   5.234   1.572  10.692 -0.9204 -0.3614  1.4652
13004TIP3    H260428   5.357   1.505  10.635 -2.3519 -0.7174 -1.2950
13005TIP3   OH260429   5.791   1.271   6.163  0.5217 -0.7993  0.0728
13005TIP3    H160430   5.707   1.254   6.121 -0.4767  1.8860  0.8344
13005TIP3    H260431   5.845   1.308   6.093  0.9668 -2.1998 -0.3331
13006TIP3   OH260432   5.991   0.503  11.629 -0.2540 -0.0384 -0.0969
13006TIP3    H160433   5.981   0.595  11.652 -1.7311 -0.2800  0.2898
13006TIP3    H260434   5.914   0.460  11.667  1.3756 -1.7431  1.3733
13007TIP3   OH260435   6.051   1.616   3.347  0.3592  0.0216  0.3716
13007TIP3    H160436   6.066   1.543   3.407  0.4869 -0.0843  0.2120
13007TIP3    H260437   5.971   1.592   3.300  1.3331 -0.8185 -0.8783
13008TIP3   OH260438   0.796   4.664   2.424  0.3829  0.6032  0.2363
13008TIP3    H160439   0.733   4.736   2.411 -0.8863 -0.5196  0.0622
13008TIP3    H260440   0.870   4.687   2.368 -0.0291  1.7682  0.1519
13009TIP3   OH260441   0.494   3.642   4.937 -0.9601 -0.3352 -0.4740
13009TIP3    H160442   0.490   3.563   4.991 -0.9830 -1.1470 -1.6566
13009TIP3    H260443   0.489   3.714   5.001  0.6304 -1.2562  0.7372
13010TIP3   OH260444   1.433   5.412  13.225 -0.1156 -0.4362 -0.1096
13010TIP3    H160445   1.392   5.336  13.184 -1.9821  0.7142 -0.4293
13010TIP3    H260446   1.476   5.458  13.153  1.0312 -1.1771  0.0875
13011TIP3   OH260447   5.956   6.314   4.181 -0.0148 -0.6590  0.2159
13011TIP3    H160448   5.961   6.339   4.273  0.7060 -1.2552  0.3457
13011TIP3    H260449   5.917   6.389   4.137  0.2911 -0.0981  0.8990
13012TIP3   OH260450   1.214   5.045   0.533  0.5267 -0.0729 -0.0924
13012TIP3    H160451   1.259   5.119   0.572 -2.5499  2.0723 -0.4653
13012TIP3    H260452   1.178   4.997   0.608  1.0169 -0.2024  0.0606
13013TIP3   OH260453   2.462   6.755  14.732  0.4982  0.5491 -0.3948
13013TIP3    H160454   2.550   6.787  14.750  0.8963 -0.3382 -0.7838
13013TIP3    H260455   2.463   6.664  14.759 -0.7546  0.9354  1.0938
13014TIP3   OH260456   1.036   5.465  14.687 -0.2644 -0.3323 -0.1556
13014TIP3    H160457   1.006   5.391  14.739  0.8656 -0.6541  0.0576
13014TIP3    H260458   1.109   5.502  14.737 -0.1412  0.2732 -0.7691
13015TIP3   OH260459   2.289   3.732  15.409  0.1531  0.6139 -0.2716
13015TIP3    H160460   2.349   3.666  15.376 -0.3255  0.1044 -0.1338
13015TIP3    H260461   2.338   3.781  15.474  0.5758  0.5396 -0.5363
13016TIP3   OH260462   3.583   4.372   3.693  0.5404 -0.6977 -0.4538
13016TIP3    H160463   3.537   4.398   3.614  1.9086 -0.2838 -1.1157
13016TIP3    H260464   3.517   4.325   3.744 -0.8542  0.6256 -0.9976
13017TIP3   OH260465   2.971   4.597   3.818 -0.1957  0.4102 -0.2635
13017TIP3    H160466   3.065   4.612   3.832  0.0070 -1.2910  0.2898
13017TIP3    H260467   2.966   4.540   3.742 -0.7718  0.3257 -0.1679
13018TIP3   OH260468   0.166   2.581   1.988  0.3758 -0.8074 -0.3195
13018TIP3    H160469   0.187   2.510   1.928 -0.3312 -0.8601 -0.5105
13018TIP3    H260470   0.127   2.649   1.933 -1.6023 -1.4262  0.2659
13019TIP3   OH260471   6.721   2.758   3.454  0.0271 -0.3943  0.2358
13019TIP3    H160472   6.650   2.705   3.418 -0.9832  1.1122 -0.0120
13019TIP3    H260473   6.703   2.762   3.548 -1.1463  1.3196 -0.0349
13020TIP3   OH260474   0.182   4.694  14.179  0.1354  0.3263  0.2417
13020TIP3    H160475   0.250   4.743  14.224 -0.9448 -0.7604  3.2066
13020TIP3    H260476   0.167   4.617  14.234 -3.8129  0.7810 -0.0264
13021TIP3   OH260477   2.294   1.201  13.642 -0.1430  0.3281  0.3008
13021TIP3    H160478   2.377   1.248  13.648 -0.4188  1.3536 -2.7738
13021TIP3    H260479   2.227   1.265  13.665 -0.2331  0.1458  0.5499
13022TIP3   OH260480   1.127   6.149  15.207 -0.2667 -0.4814  0.1165
13022TIP3    H160481   1.093   6.074  15.159 -1.0182 -0.4868  0.6488
13022TIP3    H260482   1.067   6.160  15.281  1.2793 -0.9335  1.4815
13023TIP3   OH260483   0.419   5.177   3.747 -0.1344  0.1188 -0.2614
13023TIP3    H160484   0.467   5.249   3.706  0.5744 -0.7599 -0.9663
13023TIP3    H260485   0.431   5.192   3.841  0.0366  0.9063 -0.4028
13024TIP3   OH260486   1.008   0.183   1.940 -0.2433 -0.4552  0.5324
13024TIP3    H160487   1.050   0.102   1.969  0.3768  0.2281  1.5885
13024TIP3    H260488   0.915   0.163   1.938 -0.0386 -1.3945  0.1016
13025TIP3   OH260489   2.618   2.038  16.631 -0.5209  0.4847  0.0046
13025TIP3    H160490   2.590   2.080  16.550 -1.3764  0.3891  0.2420
13025TIP3    H260491   2.537   2.023  16.680 -0.1500 -0.6147  0.3155
13026TIP3   OH260492   5.911   6.605  12.749 -0.4697  0.1260  0.1489
13026TIP3    H160493   5.978   6.545  12.782 -1.9480 -0.7837  1.5248
13026TIP3    H260494   5.881   6.653  12.826  0.5255  2.5137 -0.8950
13027TIP3   OH260495   4.406   0.376  11.718 -0.1479 -0.1397 -0.1344
13027TIP3    H160496   4.474   0.311  11.735 -0.4986 -0.2185  1.0409
13027TIP3    H260497   4.451   0.460  11.724 -0.1440 -0.1921  0.6452
13028TIP3   OH260498   2.707   2.695   4.451  0.4769  0.5930 -0.3702
13028TIP3    H160499   2.778   2.634   4.431  0.7194  0.8742 -0.3665
13028TIP3    H260500   2.716   2.713   4.544  0.3252  0.5352 -0.3440
13029TIP3   OH260501   1.402   4.425   2.573  0.0360  0.0693  0.0704
13029TIP3    H160502   1.353   4.344   2.584  1.2773 -0.5434  1.2865
13029TIP3    H260503   1.471   4.420   2.639  0.6043  1.7568 -0.3720
13030TIP3   OH260504   6.483   6.200  17.185 -0.4040  0.1634 -0.2642
13030TIP3    H160505   6.423   6.162  17.249  1.2746 -0.1417  1.1814
13030TIP3    H260506   6.559   6.141  17.187  0.0202  0.6373 -1.9216
13031TIP3   OH260507   2.605   1.535  11.167  0.4460  0.2102  0.0116
13031TIP3    H160508   2.585   1.443  11.186 -0.2980  0.4664  0.4979
13031TIP3    H260509   2.692   1.533  11.127 -0.0606 -0.8256 -1.0809
13032TIP3   OH260510   2.258   1.140   3.471 -0.0786  0.2562  0.1474
13032TIP3    H160511   2.270   1.235   3.470  0.3613  0.2039 -1.0037
13032TIP3    H260512   2.295   1.111   3.387  0.1654 -0.9733  0.6748
13033TIP3   OH260513   0.349   3.924  14.159 -0.0809  0.1780  0.0761
13033TIP3    H160514   0.354   4.008  14.114 -0.5655 -0.0108 -0.3327
13033TIP3    H260515   0.274   3.879  14.119  0.1629 -0.4410  0.3024
13034TIP3   OH260516   0.059   4.896   1.226  0.2736 -1.2682  0.3491
13034TIP3    H160517   0.147   4.873   1.257  0.7138  0.2751  0.2588
13034TIP3    H260518   0.060   4.874   1.133  0.8722 -0.3594  0.1425
13035TIP3   OH260519   4.058   2.598   3.735  0.5415 -0.4152  0.0928
13035TIP3    H160520   4.088   2.571   3.648  0.0568 -0.8942  0.0736
13035TIP3    H260521   4.054   2.693   3.731  2.3897 -0.3121  0.1888
13036TIP3   OH260522   0.682   2.835   0.055 -0.0803 -0.5349  0.3726
13036TIP3    H160523   0.767   2.826   0.013 -0.4509 -0.0810 -0.4969
13036TIP3    H260524   0.701   2.858   0.146  0.7216 -0.6805  0.2403
13037TIP3   OH260525   2.086   1.345   2.006  0.4048 -0.4932  0.0128
13037TIP3    H160526   2.129   1.420   1.966 -0.0391 -1.2737 -1.9777
13037TIP3    H260527   2.152   1.309   2.065  1.0866  0.6729 -0.0242
13038TIP3   OH260528   3.313   2.450  13.917  0.0647  0.0175  0.7206
13038TIP3    H160529   3.300   2.544  13.904  0.5651  0.3045  2.1380
13038TIP3    H260530   3.376   2.424  13.850 -0.9748  0.4531 -0.4232
13039TIP3   OH260531   0.726   0.208  13.512 -0.0410  0.4733  0.3355
13039TIP3    H160532   0.638   0.245  13.521  0.0332  0.9632 -0.8111
13039TIP3    H260533   0.772   0.237  13.590 -0.9226  0.1670  0.9750
13040TIP3   OH260534   1.167   3.038   2.734 -0.0412 -0.3898  0.0251
13040TIP3    H160535   1.162   3.127   2.769  0.7315 -0.2476 -0.2019
13040TIP3    H260536   1.194   2.985   2.808 -0.4825 -0.4258  0.1561
13041TIP3   OH260537   0.859   3.908  15.713 -0.3948  0.1513 -0.0856
13041TIP3    H160538   0.812   3.963  15.651 -0.2240  1.5772  1.0317
13041TIP3    H260539   0.950   3.910  15.683 -0.3586  0.6197  0.0557
13042TIP3   OH260540   2.508   4.325   4.671 -0.4678  0.9771 -0.1458
13042TIP3    H160541   2.521   4.315   4.577 -1.9913  1.3704 -0.4050
13042TIP3    H260542   2.427   4.277   4.690 -1.0504  2.2545  0.6797
13043TIP3   OH260543   1.689   1.935   6.372  0.2498 -0.2366 -0.5947
13043TIP3    H160544   1.693   2.030   6.360 -3.6244  0.5128  2.8242
13043TIP3    H260545   1.749   1.917   6.444 -0.2614 -0.0968 -0.1263
13044TIP3   OH260546   0.135   5.687  12.462 -0.3448  0.1024  0.1094
13044TIP3    H160547   0.089   5.658  12.383 -1.4714  0.6395  0.5545
13044TIP3    H260548   0.218   5.721  12.429 -0.6276 -0.0655 -0.8109
13045TIP3   OH260549   1.016   3.054  11.307  0.4763 -0.6295 -0.3336
13045TIP3    H160550   1.070   3.013  11.239  0.1907  0.0158 -0.9541
13045TIP3    H260551   0.931   3.068  11.265 -0.2345 -1.7556  0.6759
13046TIP3   OH260552   6.087   5.628   3.274 -0.1834 -0.0169  0.6055
13046TIP3    H160553   6.027   5.555   3.258 -0.5302  0.3281  0.3152
13046TIP3    H260554   6.165   5.587   3.311 -0.4389 -0.5171  0.6007
13047TIP3   OH260555   1.179   6.634  11.807 -0.5178 -0.0268 -0.7278
13047TIP3    H160556   1.165   6.567  11.741  2.8097  0.7975 -2.3961
13047TIP3    H260557   1.230   6.590  11.875 -0.6007  0.1323 -0.5595
13048TIP3   OH260558   5.951   3.885  16.227 -0.0872 -0.1804 -0.0622
13048TIP3    H160559   6.036   3.878  16.271 -0.1055  0.9560  0.1554
13048TIP3    H260560   5.903   3.807  16.256  1.1267 -1.2055 -0.7493
13049TIP3   OH260561   1.382   5.168  14.557  0.8424  0.6784 -0.6786
13049TIP3    H160562   1.457   5.129  14.512  0.6136  3.1192 -3.3754
13049TIP3    H260563   1.399   5.262  14.554 -1.0932  1.1203  1.0169
13050TIP3   OH260564   0.868   4.035  12.513  0.5976 -0.4290 -0.0499
13050TIP3    H160565   0.937   4.092  12.478  1.4723 -0.6838  1.2345
13050TIP3    H260566   0.789   4.088  12.513  1.3551  0.7123  0.9204
13051TIP3   OH260567   4.662   4.397   5.480  0.2142 -0.0959 -0.0898
13051TIP3    H160568   4.604   4.438   5.416  1.0883  2.4606  0.6958
13051TIP3    H260569   4.730   4.354   5.428 -1.1774 -1.2873 -0.9496
13052TIP3   OH260570   2.369   2.139  11.265  0.1200 -0.5877  0.4943
13052TIP3    H160571   2.298   2.077  11.282  0.5918 -1.4288 -0.5583
13052TIP3    H260572   2.446   2.099  11.305  0.3695 -0.5388  0.0579
13053TIP3   OH260573   6.703   5.795   3.154 -0.2705  0.2106  0.8619
13053TIP3    H160574   6.624   5.846   3.138  0.4631  0.8071 -0.9450
13053TIP3    H260575   6.679   5.735   3.225 -2.8965 -0.7929 -0.7932
13054TIP3   OH260576   0.774   2.649   6.776  0.0524  0.1432  0.2643
13054TIP3    H160577   0.820   2.679   6.697  2.0976  0.1558  1.4323
13054TIP3    H260578   0.807   2.561   6.791 -0.1715  0.2230  1.2479
13055TIP3   OH260579   1.251   1.345   4.506 -0.9354 -0.0577 -0.3014
13055TIP3    H160580   1.261   1.397   4.585 -1.4060  0.1535 -0.3770
13055TIP3    H260581   1.205   1.403   4.445 -2.5361 -0.9482  0.0091
13056TIP3   OH260582   1.590   1.637  12.401  0.5622 -0.1332  0.1824
13056TIP3    H160583   1.649   1.617  12.329  0.7999  1.1022  0.0158
13056TIP3    H260584   1.530   1.702  12.365 -0.4019 -0.7875  0.5872
13057TIP3   OH260585   3.638   3.139  15.976 -0.1594  0.3426  0.0973
13057TIP3    H160586   3.634   3.047  15.950 -0.3998  0.1359  0.8688
13057TIP3    H260587   3.578   3.183  15.915  2.8721  0.6207 -2.8726
13058TIP3   OH260588   6.212   2.972   0.713  0.0203 -0.1400 -0.0907
13058TIP3    H160589   6.148   2.993   0.782 -0.3725  0.6717 -0.6890
13058TIP3    H260590   6.240   2.883   0.733 -0.2689  0.0006  0.9831
13059TIP3   OH260591   4.892   3.919   0.399  0.1830  0.7071  0.1082
13059TIP3    H160592   4.867   3.924   0.306  1.5957  1.2828 -0.2579
13059TIP3    H260593   4.854   3.837   0.430 -1.5725  1.2359 -0.5901
13060TIP3   OH260594   5.510   6.326   0.924  0.3653  0.5719 -0.0339
13060TIP3    H160595   5.571   6.375   0.979  0.0130  1.4349 -0.4117
13060TIP3    H260596   5.516   6.236   0.957  1.0266  0.8582  0.6487
13061TIP3   OH260597   4.744   1.861  15.026  0.0842 -0.5471 -0.3561
13061TIP3    H160598   4.723   1.770  15.047 -0.5988 -0.3061  0.0092
13061TIP3    H260599   4.684   1.883  14.955 -0.8316  0.0952  0.5926
13062TIP3   OH260600   1.338   0.821   3.090 -0.1205 -0.5335  0.2283
13062TIP3    H160601   1.380   0.898   3.131 -1.3200  0.1997  0.0908
13062TIP3    H260602   1.372   0.820   3.001 -0.8327  0.4142 -0.0656
13063TIP3   OH260603   0.262   2.130  14.328 -0.1122  0.2394  0.0083
13063TIP3    H160604   0.259   2.082  14.410 -0.6780  0.4725  0.1229
13063TIP3    H260605   0.171   2.150  14.307 -0.1461 -1.4730 -1.6575
13064TIP3   OH260606   6.652   5.688   6.500  0.0147 -0.1309 -0.4002
13064TIP3    H160607   6.608   5.603   6.503  0.0870 -0.2801 -2.9212
13064TIP3    H260608   6.584   5.751   6.522 -0.7716 -0.6044 -1.4358
13065TIP3   OH260609   4.554   5.995   3.810  0.2411 -0.0473 -0.0754
13065TIP3    H160610   4.486   5.991   3.877 -1.2256 -0.0933 -1.5176
13065TIP3    H260611   4.608   6.070   3.834 -0.2796 -0.0595  1.1398
13066TIP3   OH260612   5.280   6.592   3.417 -0.1712  0.2703 -0.4126
13066TIP3    H160613   5.294   6.590   3.322  0.1946 -3.0597 -0.3529
13066TIP3    H260614   5.268   6.685   3.437 -0.1533  1.0646 -3.6885
13067TIP3   OH260615   3.967   1.920  16.936  0.4333  0.1837 -0.3112
13067TIP3    H160616   3.900   1.975  16.977 -0.8037 -1.2059 -0.4331
13067TIP3    H260617   4.000   1.973  16.863 -2.1320  0.0464 -1.6348
13068TIP3   OH260618   2.155   0.246   4.593 -0.7238  0.7374 -0.7211
13068TIP3    H160619   2.226   0.291   4.548  1.7380 -0.5667  1.6768
13068TIP3    H260620   2.155   0.157   4.557 -1.4063  0.8292 -0.9652
13069TIP3   OH260621   5.021   2.217   2.408  0.0710  0.1036 -0.4797
13069TIP3    H160622   4.965   2.150   2.369 -1.1790  1.6004 -1.2960
13069TIP3    H260623   5.010   2.205   2.503 -0.8221 -0.2912 -0.6262
13070TIP3   OH260624   4.131   6.700   5.127  0.3320 -0.1719 -0.8334
13070TIP3    H160625   4.168   6.758   5.193  0.3185 -3.0483  1.7794
13070TIP3    H260626   4.152   6.612   5.157 -1.7647 -1.6390 -3.4379
13071TIP3   OH260627   5.255   1.931  10.854  0.1452  0.9179 -0.3563
13071TIP3    H160628   5.323   1.922  10.921 -1.0782 -2.5176  0.5691
13071TIP3    H260629   5.203   2.006  10.882  0.3432  0.2388  1.9578
13072TIP3   OH260630   2.526   5.406   5.759  0.5512 -0.1903 -0.1324
13072TIP3    H160631   2.601   5.347   5.765 -0.3460 -1.4953 -1.5838
13072TIP3    H260632   2.453   5.356   5.795 -0.3104 -0.1292 -1.7850
13073TIP3   OH260633   1.123   3.220   0.975 -0.4848  0.1289  0.7473
13073TIP3    H160634   1.203   3.167   0.975 -0.8193 -0.4211  3.0528
13073TIP3    H260635   1.140   3.288   0.910  0.6989 -1.6778 -0.9327
13074TIP3   OH260636   6.186   5.036  15.977 -0.0288  0.4224  0.6219
13074TIP3    H160637   6.227   5.032  15.891  1.3533  1.9733  1.1595
13074TIP3    H260638   6.093   5.020  15.962  0.0900  1.4239 -1.2595
13075TIP3   OH260639   4.140   4.819  16.204  0.5439  0.3865  0.1001
13075TIP3    H160640   4.173   4.752  16.265  0.0844  1.4566  1.5648
13075TIP3    H260641   4.069   4.775  16.157  1.1665 -0.5863  0.0501
13076TIP3   OH260642   4.673   2.080  13.086  0.5805  0.2470  0.2470
13076TIP3    H160643   4.746   2.101  13.144 -1.9753  1.6619  3.1381
13076TIP3    H260644   4.635   2.001  13.123  0.2471 -0.0889 -0.8168
13077TIP3   OH260645   2.625   1.875  15.861  0.2321  0.4737 -0.3180
13077TIP3    H160646   2.612   1.968  15.882  0.5125  0.4857 -0.1979
13077TIP3    H260647   2.634   1.832  15.945  2.1247  0.6355 -0.4144
13078TIP3   OH260648   1.644   3.957   5.451 -0.4871  0.1679  0.0577
13078TIP3    H160649   1.577   4.017   5.483 -0.5033  0.2486 -0.1282
13078TIP3    H260650   1.631   3.877   5.503  1.0820  1.1272  2.0228
13079TIP3   OH260651   3.616   2.768   3.078 -0.0819 -0.4168 -0.0366
13079TIP3    H160652   3.701   2.771   3.035 -0.4623  0.5320 -0.7204
13079TIP3    H260653   3.611   2.678   3.113  1.3072 -0.3934  0.2682
13080TIP3   OH260654   2.936   5.696   5.462  0.1420  0.0200  0.3008
13080TIP3    H160655   3.015   5.688   5.515  0.8597  0.0153 -0.7543
13080TIP3    H260656   2.963   5.747   5.386 -0.2180 -2.1200 -1.3146
13081TIP3   OH260657   6.232   5.311  15.467 -0.4804  0.1098  0.4301
13081TIP3    H160658   6.296   5.242  15.484 -0.5523 -0.3458 -1.1017
13081TIP3    H260659   6.224   5.357  15.551  3.2380  1.3674  0.2114
13082TIP3   OH260660   4.226   3.535   5.571  0.1497 -0.1377 -0.3589
13082TIP3    H160661   4.319   3.557   5.577  0.1677 -0.5119  0.7693
13082TIP3    H260662   4.210   3.477   5.645 -0.3823 -2.1912 -2.0143
13083TIP3   OH260663   4.481   3.462   3.400 -0.1905 -0.0535  0.2088
13083TIP3    H160664   4.435   3.444   3.482 -0.5058  0.1363  0.0769
13083TIP3    H260665   4.510   3.376   3.369 -0.6273 -0.1986  0.1973
13084TIP3   OH260666   0.042   2.404   2.640  0.1197 -0.0345  0.2395
13084TIP3    H160667   0.054   2.498   2.627 -2.2224  0.2180 -0.3996
13084TIP3    H260668   0.014   2.396   2.731 -1.1513  0.0604 -0.1332
13085TIP3   OH260669   5.041   1.671   0.008 -0.0464 -0.2808 -0.1811
13085TIP3    H160670   5.102   1.730  -0.037 -1.6610  2.6950  1.3888
13085TIP3    H260671   5.095   1.624   0.071  1.3488 -0.8847 -1.7852
13086TIP3   OH260672   0.789   5.635   4.633  0.6711 -0.5599  0.1300
13086TIP3    H160673   0.757   5.709   4.684  1.5690 -0.4206  0.5001
13086TIP3    H260674   0.884   5.649   4.628  0.8713 -1.7789  0.3734
13087TIP3   OH260675   4.507   1.418  16.136  0.2726  0.2093 -0.0208
13087TIP3    H160676   4.479   1.335  16.097  1.5971 -0.1577 -0.1940
13087TIP3    H260677   4.428   1.451  16.180 -0.1780 -1.2951  0.3244
13088TIP3   OH260678   2.373   5.950  13.858 -0.1566  0.2766  0.7193
13088TIP3    H160679   2.310   5.921  13.923 -0.4066 -0.8943 -0.0402
13088TIP3    H260680   2.446   5.985  13.909 -0.5640 -0.1904  1.6175
13089TIP3   OH260681   1.187   4.794   5.345 -0.3216 -0.1349 -0.2992
13089TIP3    H160682   1.236   4.772   5.424 -0.1180 -1.3519 -0.7622
13089TIP3    H260683   1.145   4.712   5.319 -0.4277  0.2768 -1.4260
13090TIP3   OH260684   5.628   1.425  15.210  0.0704 -0.0570  0.2739
13090TIP3    H160685   5.534   1.445  15.208 -0.0528 -0.7162 -0.6397
13090TIP3    H260686   5.635   1.337  15.172  1.1335  0.2746 -0.3117
13091TIP3   OH260687   2.903   5.958   4.608 -0.3907  0.1171  0.5572
13091TIP3    H160688   2.823   5.978   4.657 -0.3062 -1.7079  1.4722
13091TIP3    H260689   2.960   5.916   4.672  0.5360 -0.3980 -0.6025
13092TIP3   OH260690   0.183   5.919  12.282 -0.6234  0.4855  0.1899
13092TIP3    H160691   0.256   5.877  12.328  0.0270  0.4691 -0.8363
13092TIP3    H260692   0.224   5.991  12.234 -1.2342  0.2610 -0.6683
13093TIP3   OH260693   5.624   3.799  15.191 -0.1314  0.3505 -0.0313
13093TIP3    H160694   5.598   3.888  15.214 -0.8337 -0.0832  0.9065
13093TIP3    H260695   5.611   3.749  15.272 -2.8007 -1.2693 -1.3908
13094TIP3   OH260696   5.327   0.844  11.010 -0.5372 -0.2606  0.1314
13094TIP3    H160697   5.297   0.880  10.927 -1.7568 -0.5542  0.4378
13094TIP3    H260698   5.256   0.863  11.072  0.8930  1.0697  1.3964
13095TIP3   OH260699   6.323   4.467  14.420 -0.1586  0.0654 -0.2003
13095TIP3    H160700   6.232   4.480  14.445 -0.2760  0.1717 -0.6883
13095TIP3    H260701   6.368   4.450  14.503 -0.5838  0.2204  0.0650
13096TIP3   OH260702   0.499   2.268  14.742  0.0830  0.5832 -0.1878
13096TIP3    H160703   0.453   2.186  14.759  1.3769  0.1016  1.0578
13096TIP3    H260704   0.451   2.333  14.794  0.4304  0.1996  0.6155
13097TIP3   OH260705   3.719   2.185   3.101  0.1090  0.2618 -0.5670
13097TIP3    H160706   3.681   2.194   3.188  1.2983  0.2742 -0.0340
13097TIP3    H260707   3.795   2.244   3.102  0.7412 -0.5222 -1.2469
13098TIP3   OH260708   4.144   0.937  16.614 -0.0659  0.3033  0.0995
13098TIP3    H160709   4.109   1.024  16.632  0.2214  0.1878  1.2695
13098TIP3    H260710   4.150   0.896  16.700 -0.2918 -0.9087 -0.4640
13099TIP3   OH260711   1.929   6.292  11.197  0.1216 -0.7834 -0.1762
13099TIP3    H160712   1.946   6.224  11.132  0.7075 -0.4098 -0.4172
13099TIP3    H260713   1.946   6.375  11.151 -2.8923 -0.3467 -0.5993
13100TIP3   OH260714   4.576   1.786  11.751 -0.2517 -0.5275 -0.5370
13100TIP3    H160715   4.665   1.763  11.723  0.2550 -0.6455  1.1173
13100TIP3    H260716   4.587   1.867  11.801 -1.4510  0.9580 -2.5779
13101TIP3   OH260717   3.989   3.986  11.024  0.2215 -0.6367  0.2419
13101TIP3    H160718   4.046   4.056  10.992  0.8060 -0.4766  1.6025
13101TIP3    H260719   4.037   3.906  11.005  0.8652 -0.5066  1.3027
13102TIP3   OH260720   2.236   4.911   2.312 -0.3526  0.3732 -0.3455
13102TIP3    H160721   2.320   4.928   2.354  0.0756 -2.9350  0.1883
13102TIP3    H260722   2.176   4.891   2.383 -1.2553  1.2256 -0.8449
13103TIP3   OH260723   2.278   5.721  16.097  0.3684  0.3302 -0.2703
13103TIP3    H160724   2.287   5.812  16.128 -2.3403  0.4399  0.3403
13103TIP3    H260725   2.363   5.681  16.115  1.1176  2.3445  0.8445
13104TIP3   OH260726   5.930   3.355   3.541  0.0469  0.0550  0.3872
13104TIP3    H160727   5.886   3.303   3.608 -2.0080 -1.7115 -2.2193
13104TIP3    H260728   6.009   3.388   3.584 -1.1201 -1.1350  3.5838
13105TIP3   OH260729   1.489   5.320   3.565 -0.9591 -0.0124 -0.1973
13105TIP3    H160730   1.527   5.301   3.480 -1.7211 -1.6363 -0.2068
13105TIP3    H260731   1.394   5.317   3.551 -1.2207  4.8589 -0.3753
13106TIP3   OH260732   6.157   2.298  12.029  0.4710  0.2068 -0.2292
13106TIP3    H160733   6.092   2.264  12.090  0.9822 -1.1606 -0.4292
13106TIP3    H260734   6.118   2.287  11.943  0.5718  0.2942 -0.2881
13107TIP3   OH260735   0.316   5.522  16.847 -0.1362 -0.1128  0.4502
13107TIP3    H160736   0.370   5.461  16.898  0.0419 -1.3940 -1.2546
13107TIP3    H260737   0.241   5.470  16.818 -0.2233  0.5934 -0.6290
13108TIP3   OH260738   6.533   1.603  12.881  0.1695  0.0718 -0.1459
13108TIP3    H160739   6.531   1.565  12.969  1.9374 -0.6973 -0.4160
13108TIP3    H260740   6.601   1.670  12.885  0.5245 -0.2216 -1.0051
13109TIP3   OH260741   5.373   3.196  15.870  0.0912  0.5797  0.5890
13109TIP3    H160742   5.354   3.145  15.791  1.6845 -1.0062  1.1941
13109TIP3    H260743   5.333   3.282  15.853 -1.8352 -0.5444 -0.8441
13110TIP3   OH260744   3.013   6.716  14.376 -0.4725 -0.3463 -0.2299
13110TIP3    H160745   2.946   6.730  14.443  0.0177 -1.2915  0.4747
13110TIP3    H260746   3.014   6.797  14.325 -1.4599  0.0498  0.3677
13111TIP3   OH260747   5.600   0.814   1.149 -0.2725 -0.2141 -0.2396
13111TIP3    H160748   5.535   0.877   1.118  0.7752  0.6211 -0.7620
13111TIP3    H260749   5.562   0.728   1.129 -1.4232  0.2571 -0.0994
13112TIP3   OH260750   4.676   2.441  12.289 -0.3491  0.2555 -0.3189
13112TIP3    H160751   4.632   2.519  12.256  0.3420  1.1261  0.7856
13112TIP3    H260752   4.765   2.470  12.309 -0.9229 -0.0732  2.9235
13113TIP3   OH260753   0.243   1.890  11.728 -0.0403  0.2988 -0.1694
13113TIP3    H160754   0.272   1.979  11.708  1.0760  0.4602  1.9298
13113TIP3    H260755   0.202   1.897  11.815  0.1013 -1.2349  0.0398
13114TIP3   OH260756   1.713   0.096  15.954  0.2506  0.4805  0.3373
13114TIP3    H160757   1.746   0.159  15.889 -3.1623  1.0433 -0.9648
13114TIP3    H260758   1.696   0.016  15.904  0.4808 -0.0866  1.1543
13115TIP3   OH260759   2.505   1.826   6.506 -0.4698 -0.3726  0.1146
13115TIP3    H160760   2.512   1.833   6.411 -0.4629  1.3601  0.2272
13115TIP3    H260761   2.512   1.732   6.523 -2.8182 -0.9314 -1.7643
13116TIP3   OH260762   0.566   2.876   4.563  1.0620 -0.8454  0.6042
13116TIP3    H160763   0.579   2.846   4.473  2.2176 -3.6567  1.6528
13116TIP3    H260764   0.566   2.972   4.557  3.0498 -0.9586 -2.1327
13117TIP3   OH260765   6.471   0.468   5.826  0.4167  1.0642  0.3402
13117TIP3    H160766   6.487   0.452   5.919 -0.4806 -0.0712  0.3127
13117TIP3    H260767   6.558   0.473   5.787  0.7786  0.2227  1.0297
13118TIP3   OH260768   1.046   3.955  13.269  0.5077  0.3954  0.3766
13118TIP3    H160769   1.066   4.044  13.299  2.0261  0.2489 -0.1637
13118TIP3    H260770   1.080   3.951  13.180  0.2949 -0.6813  0.3375
13119TIP3   OH260771   5.887   3.227   5.593  0.0531  0.3288 -0.1167
13119TIP3    H160772   5.899   3.152   5.535  2.3802  0.3628  0.2734
13119TIP3    H260773   5.966   3.280   5.581 -0.2037  1.2039  1.8112
13120TIP3   OH260774   2.763   1.960  10.929 -0.4871 -0.1237 -0.0920
13120TIP3    H160775   2.846   1.957  10.883  0.0641  0.6946  0.8203
13120TIP3    H260776   2.709   2.021  10.879 -0.2503 -0.0306 -0.2318
13121TIP3   OH260777   1.085   6.330   1.936 -0.4810 -0.0500  0.0523
13121TIP3    H160778   1.090   6.374   1.852  0.2524 -0.0345  0.1010
13121TIP3    H260779   1.047   6.395   1.995 -0.4424  0.1372 -0.1299
13122TIP3   OH260780   6.514   5.328  15.749 -0.3805 -0.5574  0.0773
13122TIP3    H160781   6.476   5.409  15.783  2.5693  1.0456 -0.2862
13122TIP3    H260782   6.515   5.340  15.654 -1.2359 -1.6663 -0.0884
13123TIP3   OH260783   0.032   4.943   1.893 -0.0292  0.2230  0.1943
13123TIP3    H160784  -0.057   4.924   1.921  0.1016 -0.3060  0.2554
13123TIP3    H260785   0.043   5.036   1.911 -0.2953  0.1177  0.9447
13124TIP3   OH260786   2.783   1.551   4.768  0.0519  0.3978  0.0900
13124TIP3    H160787   2.701   1.597   4.752  0.0604  0.7507  1.0188
13124TIP3    H260788   2.850   1.620   4.764  0.0548  0.4845  1.5923
13125TIP3   OH260789   2.029   3.413   0.711  0.3972 -0.4595 -0.1183
13125TIP3    H160790   2.015   3.505   0.690 -1.6164 -1.0550 -1.5767
13125TIP3    H260791   1.969   3.395   0.784 -1.2796 -1.2550 -1.6480
13126TIP3   OH260792   4.172   1.532   4.726  0.4809 -0.1161  0.8680
13126TIP3    H160793   4.118   1.471   4.676  0.2865  0.8940 -0.1652
13126TIP3    H260794   4.254   1.538   4.676 -0.3707  2.2529 -0.3263
13127TIP3   OH260795   6.292   6.465  12.400 -0.0794 -0.3720 -0.0850
13127TIP3    H160796   6.361   6.402  12.420 -0.2388 -0.6266 -0.3381
13127TIP3    H260797   6.339   6.545  12.377  0.1442 -0.7610 -0.9859
13128TIP3   OH260798   3.976   1.984   0.569  0.0264 -0.3512 -0.0816
13128TIP3    H160799   4.058   1.955   0.609 -0.7092 -0.9338  1.0574
13128TIP3    H260800   3.985   2.079   0.561  1.0689 -0.4919 -0.5680
13129TIP3   OH260801   4.211   6.460  17.193 -0.2613  0.0145  0.7200
13129TIP3    H160802   4.242   6.548  17.215  3.9287 -1.2802  0.4873
13129TIP3    H260803   4.229   6.450  17.099  1.3971 -1.8104  1.1871
13130TIP3   OH260804   5.407   3.241  11.810 -0.5042 -0.4392 -0.0750
13130TIP3    H160805   5.360   3.237  11.727 -0.4916 -0.9680 -0.0576
13130TIP3    H260806   5.380   3.162  11.857  0.6819 -0.9484 -0.2273
13131TIP3   OH260807   6.032   0.955   1.128 -0.6542  0.2478 -0.2421
13131TIP3    H160808   6.097   0.936   1.060 -1.7979  0.0840 -1.2985
13131TIP3    H260809   6.062   1.037   1.167  0.0524  0.3092 -0.9005
13132TIP3   OH260810   4.743   5.250  14.789 -0.4067  0.1051 -0.6794
13132TIP3    H160811   4.671   5.241  14.851  2.1642 -0.8257  2.3059
13132TIP3    H260812   4.732   5.175  14.730 -0.8970 -1.0342  0.8173
13133TIP3   OH260813   0.522   5.420  14.760  0.1270 -0.2023 -0.3280
13133TIP3    H160814   0.476   5.454  14.684 -2.3812 -3.0852 -0.2095
13133TIP3    H260815   0.511   5.488  14.827  0.1672  1.2414 -1.7702
13134TIP3   OH260816   2.677   1.774  17.056 -0.1795 -0.2289  0.1134
13134TIP3    H160817   2.698   1.853  17.006  0.9199 -1.2315 -1.0568
13134TIP3    H260818   2.620   1.724  16.998  2.1907 -2.0192 -0.7477
13135TIP3   OH260819   3.672   4.844   2.014 -0.3880  0.4220  0.0258
13135TIP3    H160820   3.578   4.863   2.021 -1.2518 -3.0409 -1.1302
13135TIP3    H260821   3.696   4.875   1.926 -0.7169  0.3437 -0.0940
13136TIP3   OH260822   5.624   1.629   1.866  0.5236  0.2434 -0.0776
13136TIP3    H160823   5.658   1.541   1.881  0.7015  0.1071 -1.2607
13136TIP3    H260824   5.701   1.684   1.851  0.3668  0.4268 -0.2286
13137TIP3   OH260825   2.263   0.066   4.867  0.0555 -0.0717  0.2975
13137TIP3    H160826   2.262   0.158   4.896 -0.5125 -0.2513  0.8588
13137TIP3    H260827   2.170   0.041   4.864  0.2312 -0.7712  0.6139
13138TIP3   OH260828   4.415   6.597   5.466 -0.0672 -0.5696 -0.2184
13138TIP3    H160829   4.404   6.692   5.470  1.3127 -0.3585 -1.0239
13138TIP3    H260830   4.389   6.566   5.553  1.8753  0.8113  0.8963
13139TIP3   OH260831   4.610   2.013   2.000  0.2695  0.3689  0.0688
13139TIP3    H160832   4.638   1.951   1.933 -0.3504 -0.3843  0.4974
13139TIP3    H260833   4.677   2.082   1.999  1.5702 -0.8585  0.3524
13140TIP3   OH260834   5.373   5.559  12.793  0.0663 -0.3802  0.3824
13140TIP3    H160835   5.401   5.471  12.767 -1.2107 -0.8358  0.5244
13140TIP3    H260836   5.349   5.602  12.711 -0.7526 -0.6782  0.4635
13141TIP3   OH260837   0.065   2.389  14.976  0.6925 -0.2868 -0.3716
13141TIP3    H160838   0.084   2.295  14.968 -0.8427 -0.7143  0.7084
13141TIP3    H260839  -0.030   2.395  14.967  0.6899  1.0662  0.4384
13142TIP3   OH260840   1.453   5.651  10.736  0.3381  0.4305  0.3427
13142TIP3    H160841   1.457   5.561  10.705 -0.0605  0.1355  1.1251
13142TIP3    H260842   1.398   5.697  10.672  0.8973  0.2174 -0.2892
13143TIP3   OH260843   0.951   6.319   2.313 -0.2112 -0.0566  0.6844
13143TIP3    H160844   0.872   6.330   2.366 -0.5507 -0.6298  0.3003
13143TIP3    H260845   0.972   6.226   2.320  0.3758  0.0745  0.7044
13144TIP3   OH260846   3.667   6.514  16.280  0.2595 -1.1420 -0.0457
13144TIP3    H160847   3.692   6.570  16.354  0.6430 -0.2082 -0.8716
13144TIP3    H260848   3.751   6.487  16.242  0.0635 -1.7188 -0.0612
13145TIP3   OH260849   3.131   3.320  11.782 -0.2147  0.1624  0.0653
13145TIP3    H160850   3.081   3.258  11.835  0.2409 -1.5477 -1.4639
13145TIP3    H260851   3.079   3.332  11.703  1.5190 -1.3135 -1.3549
13146TIP3   OH260852   1.687   4.413  15.293  0.4745  0.5010  0.0575
13146TIP3    H160853   1.611   4.356  15.305 -1.8609  3.3439 -0.5055
13146TIP3    H260854   1.738   4.402  15.373 -0.2934 -1.7876  0.2703
13147TIP3   OH260855   1.403   6.740  12.817 -0.3675 -0.1916 -0.6263
13147TIP3    H160856   1.386   6.809  12.881 -0.7765 -0.5271 -0.3742
13147TIP3    H260857   1.475   6.689  12.854 -1.8515 -1.5217  0.4637
13148TIP3   OH260858   0.673   2.853   2.484  0.0749  0.0090  0.3140
13148TIP3    H160859   0.729   2.909   2.537  1.3185 -2.0791  1.3078
13148TIP3    H260860   0.681   2.766   2.525  0.2366 -1.4443 -2.6458
13149TIP3   OH260861   6.176   5.672   4.129  0.0489 -0.4272 -0.0420
13149TIP3    H160862   6.152   5.758   4.094  2.6518 -0.1102 -1.1935
13149TIP3    H260863   6.153   5.611   4.059 -0.8098 -0.5589  0.3485
13150TIP3   OH260864   4.494   3.476   2.955  0.0822  0.1014 -0.2757
13150TIP3    H160865   4.553   3.458   3.029  0.0888 -0.1467 -0.3420
13150TIP3    H260866   4.448   3.393   2.941 -1.9151  0.8953  1.2399
13151TIP3   OH260867   3.367   0.080  16.798 -0.1329 -0.6851  0.2346
13151TIP3    H160868   3.343   0.155  16.852  0.2493 -0.9702  0.8083
13151TIP3    H260869   3.288   0.060  16.747 -0.0815  0.3990 -0.2746
13152TIP3   OH260870   0.243   4.789  12.915 -0.0995  0.0377  0.2749
13152TIP3    H160871   0.200   4.720  12.863 -0.4676 -0.3967  1.1454
13152TIP3    H260872   0.287   4.844  12.850  0.4827 -1.2128 -0.4087
13153TIP3   OH260873   2.084   4.296   1.467  0.1968  0.7123  0.8778
13153TIP3    H160874   2.044   4.382   1.464 -0.3783  0.4749  1.5348
13153TIP3    H260875   2.022   4.242   1.517  1.1404  0.2400  1.5586
13154TIP3   OH260876   2.265   1.889  15.619 -0.3051 -0.1194 -0.1310
13154TIP3    H160877   2.323   1.848  15.683 -3.0216 -1.5300  1.5351
13154TIP3    H260878   2.318   1.897  15.540  2.8797  0.8684  2.0043
13155TIP3   OH260879   6.721   6.650  13.034  0.0385 -0.0296 -0.3233
13155TIP3    H160880   6.781   6.682  13.101  0.5204  0.7436 -1.1112
13155TIP3    H260881   6.654   6.718  13.027  1.3699  1.1476 -2.4031
13156TIP3   OH260882   0.063   1.768  11.938  0.5534 -0.3379 -0.0936
13156TIP3    H160883   0.066   1.841  12.000  0.3998 -0.4620  0.0613
13156TIP3    H260884  -0.014   1.718  11.964  0.5121 -0.4146 -0.3602
13157TIP3   OH260885   3.767   2.376  16.810  0.4649 -0.0561  0.4097
13157TIP3    H160886   3.701   2.321  16.767 -0.1975  0.3170  0.9337
13157TIP3    H260887   3.717   2.425  16.876  0.9621  1.5347 -0.3746
13158TIP3   OH260888   1.721   0.183   6.519 -0.4737 -0.0899 -0.1785
13158TIP3    H160889   1.673   0.170   6.601  0.5397  2.8797  0.9706
13158TIP3    H260890   1.660   0.155   6.451 -1.9938 -0.9936  1.5114
13159TIP3   OH260891   6.218   6.325   5.453  0.2879  0.1136  0.4294
13159TIP3    H160892   6.276   6.400   5.458  0.4315  0.1610 -1.5505
13159TIP3    H260893   6.154   6.339   5.523 -0.7327  2.9867 -0.9843
13160TIP3   OH260894   6.308   6.563  16.580  0.7421 -0.5043  0.0524
13160TIP3    H160895   6.325   6.523  16.665 -0.4913 -0.2873  0.4108
13160TIP3    H260896   6.220   6.535  16.557  1.2670 -1.0066 -1.4154
13161TIP3   OH260897   4.464   2.639   0.204  0.0673 -0.7569  0.6998
13161TIP3    H160898   4.397   2.698   0.238  1.1575  0.7988  0.1956
13161TIP3    H260899   4.528   2.696   0.161  1.3032 -2.2722  0.4517
13162TIP3   OH260900   4.113   1.667  13.076  0.8628 -0.4885 -0.0130
13162TIP3    H160901   4.032   1.626  13.106  0.9472 -0.0259  0.8601
13162TIP3    H260902   4.096   1.690  12.984  0.1563 -0.7667  0.0472
13163TIP3   OH260903   5.867   4.163  15.818 -0.2115  0.1140  0.0106
13163TIP3    H160904   5.891   4.252  15.843 -1.7237  0.9172 -1.3220
13163TIP3    H260905   5.834   4.124  15.900  1.7724  0.2765  0.9253
13164TIP3   OH260906   3.478   5.460  13.176 -0.0425  0.2312  0.1477
13164TIP3    H160907   3.504   5.518  13.105 -0.4136  2.0075  1.4321
13164TIP3    H260908   3.557   5.449  13.229  0.1952 -0.9663 -0.4384
13165TIP3   OH260909   5.948   1.684  12.876 -0.2398 -0.3266  0.0695
13165TIP3    H160910   6.032   1.713  12.911  0.1006 -0.5895 -0.5137
13165TIP3    H260911   5.883   1.731  12.928  0.2907  1.2969 -0.6663
13166TIP3   OH260912   4.592   5.472   2.829 -0.0074  0.2569 -0.2785
13166TIP3    H160913   4.513   5.456   2.777  0.2664 -1.1836 -0.2520
13166TIP3    H260914   4.587   5.410   2.901  0.9183  0.4878 -0.0034
13167TIP3   OH260915   1.271   5.688  16.625  0.4780  0.4431 -0.0044
13167TIP3    H160916   1.275   5.613  16.685  0.5599 -1.4869 -2.3571
13167TIP3    H260917   1.312   5.759  16.674  1.9368 -1.4727  1.6810
13168TIP3   OH260918   1.978   5.199  13.027  0.2806  0.7485  0.0059
13168TIP3    H160919   1.966   5.194  12.932 -0.1896  3.3939 -0.1225
13168TIP3    H260920   1.902   5.154  13.064  0.8240 -0.9238 -0.8345
13169TIP3   OH260921   4.896   6.753   1.861 -0.4445 -0.0576 -0.0849
13169TIP3    H160922   4.933   6.665   1.863  0.0537  0.1639  0.5772
13169TIP3    H260923   4.904   6.780   1.770  0.3018 -0.3280 -0.1078
13170TIP3   OH260924   3.579   4.975   4.709  0.0128  0.0162 -0.6655
13170TIP3    H160925   3.504   4.915   4.703  0.4222 -0.4017 -1.8546
13170TIP3    H260926   3.615   4.978   4.619 -0.2398  2.3675 -0.7175
13171TIP3   OH260927   0.790   3.993   1.338 -0.0085 -0.0722  0.2476
13171TIP3    H160928   0.874   3.958   1.310  0.1772 -0.3477  1.1111
13171TIP3    H260929   0.753   3.925   1.394 -2.0858 -1.1538 -2.3273
13172TIP3   OH260930   6.694   4.332   1.718 -0.1183 -0.4134  0.1579
13172TIP3    H160931   6.615   4.384   1.728 -0.3346 -1.0270  1.7551
13172TIP3    H260932   6.766   4.395   1.716 -0.6171  0.1335 -1.1688
13173TIP3   OH260933   1.672   1.728  14.104 -0.1746  0.1396  0.0132
13173TIP3    H160934   1.681   1.822  14.120  1.6618 -0.1124  0.5836
13173TIP3    H260935   1.701   1.717  14.013 -0.7053  0.1571 -0.1627
13174TIP3   OH260936   4.275   4.024  11.544  0.3846 -0.6137  0.4504
13174TIP3    H160937   4.303   4.115  11.547  1.0083 -0.7707 -0.2117
13174TIP3    H260938   4.284   3.993  11.634 -0.7089  0.2298  0.8545
13175TIP3   OH260939   5.361   5.855   6.019 -0.0288 -0.1247  0.0490
13175TIP3    H160940   5.432   5.825   6.076 -0.3833 -1.9955 -0.4501
13175TIP3    H260941   5.307   5.910   6.076  0.8292 -0.1871  0.9354
13176TIP3   OH260942   4.615   0.139  12.376 -0.3523  0.1893 -0.3672
13176TIP3    H160943   4.636   0.048  12.358  0.1511  0.3143 -0.4116
13176TIP3    H260944   4.660   0.188  12.307 -0.9111  0.4449 -0.5535
13177TIP3   OH260945   4.356   5.728  16.151  0.4002 -0.2190 -0.0797
13177TIP3    H160946   4.451   5.724  16.164  0.2263  1.0162  1.8527
13177TIP3    H260947   4.322   5.654  16.201  0.1910  0.6936  1.1433
13178TIP3   OH260948   2.617   5.806  13.565  0.1147 -0.1790 -0.7859
13178TIP3    H160949   2.538   5.861  13.566 -1.1278 -1.8481 -2.9937
13178TIP3    H260950   2.677   5.853  13.507  0.5547  0.8242  0.4677
13179TIP3   OH260951   1.449   5.641  14.958  0.3469 -0.0913 -0.2461
13179TIP3    H160952   1.520   5.585  14.928  0.2128 -0.2952 -0.1842
13179TIP3    H260953   1.486   5.691  15.030  1.3034  1.9038 -2.0430
13180TIP3   OH260954   3.858   4.715   1.674 -0.0033  0.3729  0.6894
13180TIP3    H160955   3.866   4.792   1.731  0.5299  1.0871 -0.3436
13180TIP3    H260956   3.764   4.704   1.663 -0.2189 -1.1468  3.5519
13181TIP3   OH260957   2.764   3.021   0.497 -0.3939  0.0969  0.8405
13181TIP3    H160958   2.840   2.997   0.445 -1.1628 -2.4838  0.8226
13181TIP3    H260959   2.714   3.081   0.440  0.3023 -0.2818 -0.1841
13182TIP3   OH260960   5.096   0.707  14.530  0.3184  0.1347  0.2561
13182TIP3    H160961   5.111   0.774  14.597  3.3099  1.5252 -1.6842
13182TIP3    H260962   5.029   0.744  14.474  1.2485  1.1238 -0.2337
13183TIP3   OH260963   4.019   1.524  16.287 -0.5584  0.5722 -0.1082
13183TIP3    H160964   3.934   1.545  16.248 -1.2918  0.0675  1.1772
13183TIP3    H260965   4.000   1.453  16.349  0.7461  0.6683  0.4243
13184TIP3   OH260966   4.905   3.839  15.514  0.2106 -0.5201 -0.2451
13184TIP3    H160967   4.928   3.862  15.604  2.2068 -0.8120 -0.6535
13184TIP3    H260968   4.848   3.910  15.485  1.8791  1.0818  0.3037
13185TIP3   OH260969   6.190   4.199  14.543  0.1083 -0.1857  0.2677
13185TIP3    H160970   6.240   4.118  14.534 -0.1971 -0.3936  0.4156
13185TIP3    H260971   6.210   4.230  14.631  0.7885  0.2848 -0.0471
13186TIP3   OH260972   5.193   3.337  12.276  0.7044  0.0005 -0.0654
13186TIP3    H160973   5.106   3.333  12.237  0.3662  0.4758  0.6292
13186TIP3    H260974   5.248   3.374  12.207 -0.1172  1.9212  0.2955
13187TIP3   OH260975   4.903   4.930  15.484  0.4427  0.3106 -0.3276
13187TIP3    H160976   4.886   4.842  15.451  2.8278 -0.0054 -0.8003
13187TIP3    H260977   4.910   4.985  15.406  0.6921  0.5822 -0.1179
13188TIP3   OH260978   2.002   0.168   1.445 -0.0992  0.1242 -0.1226
13188TIP3    H160979   2.001   0.243   1.505  0.1062  1.2296 -1.4869
13188TIP3    H260980   1.997   0.206   1.358 -1.7977 -1.5369 -0.7957
13189TIP3   OH260981   5.238   2.039  11.128 -0.2975 -0.2493 -0.1603
13189TIP3    H160982   5.168   2.098  11.154  0.1852  0.1422  0.2548
13189TIP3    H260983   5.312   2.096  11.109 -0.8456 -0.4449 -3.1998
13190TIP3   OH260984   4.813   0.938  15.710  0.0935  0.2917 -0.3238
13190TIP3    H160985   4.843   1.008  15.768 -0.7519  0.8667 -0.5685
13190TIP3    H260986   4.813   0.860  15.765  0.8173  0.5239  0.0157
13191TIP3   OH260987   3.471   0.910   5.340 -0.6350 -0.6368  0.2487
13191TIP3    H160988   3.454   0.863   5.258 -0.8128 -1.4328  0.7438
13191TIP3    H260989   3.409   0.983   5.339 -0.6992 -0.6991 -0.2805
13192TIP3   OH260990   5.342   2.841   3.887 -0.1192 -0.2013  0.0003
13192TIP3    H160991   5.317   2.792   3.808 -0.7618  0.4896 -0.2366
13192TIP3    H260992   5.437   2.832   3.891 -0.2619 -1.7696  0.1746
13193TIP3   OH260993   2.634   5.368   5.049  0.0985 -0.0753 -0.1823
13193TIP3    H160994   2.654   5.456   5.083  1.0945  0.0667 -1.1322
13193TIP3    H260995   2.701   5.312   5.088  0.9916  0.0177 -1.5683
13194TIP3   OH260996   5.919   3.473   0.798 -0.4219 -0.1381 -0.0965
13194TIP3    H160997   5.884   3.547   0.749  2.0535  1.0598 -0.1435
13194TIP3    H260998   5.894   3.396   0.747 -3.1014  0.6274 -0.0005
13195TIP3   OH260999   2.904   1.271  15.781 -0.1162  0.0068 -0.1855
13195TIP3    H161000   2.980   1.247  15.834  0.9105  1.5261 -0.9436
13195TIP3    H261001   2.862   1.341  15.830 -1.2376 -1.0646  0.3998
13196TIP3   OH261002   3.261   4.222  12.662 -0.7103 -0.0719  0.2714
13196TIP3    H161003   3.259   4.254  12.752  0.9956  0.0806  0.2673
13196TIP3    H261004   3.281   4.300  12.610  1.5557 -0.7625  0.0771
13197TIP3   OH261005   4.937   6.653  13.915 -0.0201 -0.0785 -0.7013
13197TIP3    H161006   4.905   6.737  13.881 -0.8652  0.0258  0.3183
13197TIP3    H261007   4.946   6.667  14.010 -0.7520 -1.3133 -0.4363
13198TIP3   OH261008   1.820   1.925  16.407  0.6176  0.0128  0.3423
13198TIP3    H161009   1.825   1.913  16.313 -1.1704 -2.0958  0.4802
13198TIP3    H261010   1.727   1.913  16.428  1.0260  0.1801  2.3982
13199TIP3   OH261011   2.892   5.771  15.896  0.5684  0.3170  0.3896
13199TIP3    H161012   2.879   5.850  15.842  2.0795  0.3132 -0.0150
13199TIP3    H261013   2.943   5.801  15.971 -0.9529  0.1863  1.4979
13200TIP3   OH261014   5.935   0.657  12.555 -0.4873  0.0400 -0.2829
13200TIP3    H161015   5.923   0.752  12.547  2.5275  0.4174 -0.7648
13200TIP3    H261016   5.861   0.629  12.610 -0.2787  2.9624  1.6207
13201TIP3   OH261017   2.608   5.374  12.157 -0.0511 -0.3329  0.4951
13201TIP3    H161018   2.569   5.288  12.172 -0.3654 -0.5920 -1.6871
13201TIP3    H261019   2.680   5.358  12.096 -0.4730  1.0214 -0.3936
13202TIP3   OH261020   0.441   3.603   0.776  0.1873 -0.1949 -0.1179
13202TIP3    H161021   0.473   3.555   0.852 -1.6710 -1.0916  0.1384
13202TIP3    H261022   0.511   3.596   0.711  0.4107 -2.3186  0.3126
13203TIP3   OH261023   2.406   3.915   6.343 -0.3240 -0.2027 -0.7372
13203TIP3    H161024   2.360   3.893   6.262 -1.4840  1.7198 -0.6422
13203TIP3    H261025   2.354   3.876   6.413 -2.0165  2.1803 -0.6118
13204TIP3   OH261026   0.555   2.715  12.748  0.1416 -0.4790  0.1525
13204TIP3    H161027   0.582   2.803  12.772 -0.1015 -0.9957  2.4392
13204TIP3    H261028   0.616   2.658  12.796 -0.4531 -1.5603 -0.3641
13205TIP3   OH261029   0.744   3.013  11.249  0.4636 -0.3934 -0.1049
13205TIP3    H161030   0.732   3.023  11.154  2.2758 -0.4837 -0.3589
13205TIP3    H261031   0.656   2.995  11.282 -0.6153  2.1571 -1.4374
13206TIP3   OH261032   3.587   6.326  15.540  0.8347 -0.0747 -0.4639
13206TIP3    H161033   3.645   6.389  15.583  1.5003 -1.8075  1.2528
13206TIP3    H261034   3.584   6.252  15.600 -1.7238 -0.7642 -1.3880
13207TIP3   OH261035   3.431   3.536   5.178  0.1858  0.3397 -0.1921
13207TIP3    H161036   3.376   3.590   5.121 -0.2241  1.6577  1.4395
13207TIP3    H261037   3.495   3.597   5.214  2.3151 -1.0503 -1.5212
13208TIP3   OH261038   0.082   3.452   4.540 -0.4690 -0.0269  0.2904
13208TIP3    H161039   0.165   3.408   4.523 -1.2638 -1.5601  0.2254
13208TIP3    H261040   0.075   3.454   4.635 -1.1690 -1.5259  0.2878
13209TIP3   OH261041   5.356   3.342   0.300 -0.2743  0.6413  0.3616
13209TIP3    H161042   5.340   3.270   0.361  0.5963 -0.1240 -0.3050
13209TIP3    H261043   5.316   3.418   0.342 -0.0756  0.0336  1.6739
13210TIP3   OH261044   1.441   3.374   4.828 -0.4712  0.1959 -0.4869
13210TIP3    H161045   1.413   3.285   4.847 -1.2191  0.5261 -0.0357
13210TIP3    H261046   1.368   3.429   4.856  0.3285  1.0095  0.0077
13211TIP3   OH261047   1.121   3.208  14.955  0.9625 -0.1439  0.0667
13211TIP3    H161048   1.070   3.127  14.962  1.8920 -0.8264 -0.9280
13211TIP3    H261049   1.210   3.182  14.977  1.2537  0.6176 -0.2118
13212TIP3   OH261050   3.568   4.465   6.286 -0.0172  0.2426 -0.3189
13212TIP3    H161051   3.502   4.526   6.319  0.8767  1.5635 -0.9202
13212TIP3    H261052   3.520   4.408   6.226 -1.1749 -0.6822  1.4153
13213TIP3   OH261053   6.374   0.083  10.737  0.7032 -0.4114 -0.1247
13213TIP3    H161054   6.370  -0.011  10.718  0.2801 -0.2396 -0.9378
13213TIP3    H261055   6.449   0.115  10.686 -0.3102  0.0196 -1.3663
13214TIP3   OH261056   1.725   3.549  16.737  0.2243  0.5538  0.1525
13214TIP3    H161057   1.752   3.626  16.687 -1.0248  0.9179  0.0107
13214TIP3    H261058   1.660   3.583  16.799  0.3728 -0.2198  0.7349
13215TIP3   OH261059   3.454   5.615  14.489  0.2850  0.3428  0.4164
13215TIP3    H161060   3.433   5.592  14.580  2.5818 -1.8528  0.4349
13215TIP3    H261061   3.445   5.710  14.486 -2.9970  0.1356  2.0853
13216TIP3   OH261062   5.714   2.162   6.117 -0.1148  0.7370  0.0382
13216TIP3    H161063   5.641   2.211   6.155 -0.0255  1.1349 -0.3080
13216TIP3    H261064   5.749   2.219   6.049  0.5812  0.5888  0.2640
13217TIP3   OH261065   6.224   4.238   2.889 -0.1722  0.4830  0.2709
13217TIP3    H161066   6.207   4.187   2.968  1.2364  0.6861  0.7179
13217TIP3    H261067   6.312   4.274   2.902  0.6523 -0.5985 -1.9677
13218TIP3   OH261068   0.625   0.793  15.601  0.3362  0.0387 -0.1330
13218TIP3    H161069   0.610   0.707  15.641 -1.4272  0.6565  0.6037
13218TIP3    H261070   0.573   0.791  15.521  0.7552  0.2233 -0.4110
13219TIP3   OH261071   0.110   0.407   0.941  0.1030  0.2891 -0.3669
13219TIP3    H161072   0.167   0.482   0.956 -0.7349  0.9769 -0.5484
13219TIP3    H261073   0.142   0.340   1.001  1.7878  0.2786 -1.2443
13220TIP3   OH261074   0.103   4.939  11.482 -0.5669  0.2093 -0.4260
13220TIP3    H161075   0.133   5.026  11.505  1.1020 -0.2910 -0.6383
13220TIP3    H261076   0.012   4.937  11.510 -0.0391  1.3214  1.4736
13221TIP3   OH261077   2.946   5.088  11.582  0.5332 -0.5459  0.3800
13221TIP3    H161078   2.868   5.035  11.569  0.9575 -0.8451 -1.0533
13221TIP3    H261079   2.915   5.167  11.626 -0.5942 -0.5707 -0.3750
13222TIP3   OH261080   1.467   3.873  11.878 -0.0460 -0.1463 -0.7480
13222TIP3    H161081   1.527   3.875  11.953 -0.4847  3.2184 -0.4080
13222TIP3    H261082   1.389   3.829  11.912  0.4303 -0.2394  0.2672
13223TIP3   OH261083   6.073   5.230   1.853  0.3015 -0.2639 -0.3977
13223TIP3    H161084   6.028   5.274   1.925  0.5634 -2.4709  1.1874
13223TIP3    H261085   6.035   5.268   1.774 -0.4837  1.7362  0.9012
13224TIP3   OH261086   6.604   6.299  16.565 -0.0245  0.3949  0.1634
13224TIP3    H161087   6.698   6.318  16.571  0.8144 -3.1988 -0.3217
13224TIP3    H261088   6.574   6.351  16.490  1.6985  1.1428 -0.0346
13225TIP3   OH261089   4.453   6.679   3.008 -0.3900  0.4174  0.0754
13225TIP3    H161090   4.454   6.751   2.944 -1.1784  1.6737  1.4474
13225TIP3    H261091   4.364   6.680   3.043 -0.8491 -2.1924 -0.9131
13226TIP3   OH261092   3.537   2.487  16.607  0.4225  0.4685 -0.3133
13226TIP3    H161093   3.618   2.538  16.605  1.9042 -1.8184 -1.6183
13226TIP3    H261094   3.517   2.478  16.700  0.9683  2.0989 -0.0130
13227TIP3   OH261095   0.579   3.909   0.449 -0.2257  0.4133 -0.2079
13227TIP3    H161096   0.569   3.999   0.417  1.9470  1.2157  1.2249
13227TIP3    H261097   0.520   3.903   0.524  0.9769  1.2564  0.8269
13228TIP3   OH261098   6.404   5.453   5.990  0.1564  0.0057  0.0348
13228TIP3    H161099   6.402   5.358   5.981 -0.2202 -0.1565  1.7113
13228TIP3    H261100   6.318   5.482   5.959  0.2456 -0.2000 -0.4086
13229TIP3   OH261101   4.294   2.149  13.520  0.2974 -0.1806  0.0922
13229TIP3    H161102   4.291   2.056  13.501 -0.0898 -0.1773  0.1406
13229TIP3    H261103   4.306   2.191  13.434  1.4554 -0.3203  0.1665
13230TIP3   OH261104   2.124   6.314   2.057 -1.0414 -0.0078  0.9123
13230TIP3    H161105   2.051   6.270   2.101 -1.3262 -1.4318 -0.8802
13230TIP3    H261106   2.108   6.299   1.964  1.1131  0.3511  0.4477
13231TIP3   OH261107   4.369   5.895  15.853 -0.0536 -0.0301 -0.0716
13231TIP3    H161108   4.310   5.875  15.926 -0.4395 -0.0591 -0.3908
13231TIP3    H261109   4.437   5.950  15.892 -1.5669  1.9714 -0.1707
13232TIP3   OH261110   2.739   2.506  12.999 -0.1998  0.2355 -0.0666
13232TIP3    H161111   2.764   2.455  13.076  1.3096  0.3239 -0.4684
13232TIP3    H261112   2.644   2.502  12.996 -0.2363 -0.1885  1.5162
13233TIP3   OH261113   0.219   5.035   2.897 -0.4858 -0.3146 -0.1059
13233TIP3    H161114   0.287   4.988   2.945 -0.0992  0.4958  0.1572
13233TIP3    H261115   0.194   5.107   2.955  0.3019  0.9400 -1.2852
13234TIP3   OH261116   3.832   4.489  11.288 -0.3086  0.4740 -0.1621
13234TIP3    H161117   3.841   4.394  11.297  1.9244  0.7016  0.3177
13234TIP3    H261118   3.748   4.501  11.245 -0.4279 -1.7483 -0.6188
13235TIP3   OH261119   6.734   5.517  13.365 -0.2126 -0.0572  0.2731
13235TIP3    H161120   6.696   5.530  13.278 -2.2201 -1.7183  0.8563
13235TIP3    H261121   6.694   5.585  13.419 -0.8494 -0.5465  0.4286
13236TIP3   OH261122   2.736   0.519  16.763 -0.4096  0.0074  0.1524
13236TIP3    H161123   2.777   0.452  16.817  0.5072  1.0782  0.7891
13236TIP3    H261124   2.671   0.470  16.711 -1.1712 -1.0701  2.0409
13237TIP3   OH261125   4.232   1.929  12.177 -0.4446 -0.1959  0.5268
13237TIP3    H161126   4.294   1.969  12.238  1.9601 -3.6566  0.4289
13237TIP3    H261127   4.262   1.956  12.090 -0.2643 -0.2597  0.5695
13238TIP3   OH261128   5.121   6.004   6.059  0.1174  0.1304  0.6556
13238TIP3    H161129   5.081   6.029   6.142 -0.6030 -0.7383  0.5784
13238TIP3    H261130   5.062   5.938   6.023  0.4032  0.5140 -0.5614
13239TIP3   OH261131   4.672   3.227  13.466  0.2922 -0.6280  0.0855
13239TIP3    H161132   4.647   3.150  13.516 -1.2057  0.4112  0.9746
13239TIP3    H261133   4.604   3.291  13.485  1.8935  1.1629 -0.0677
13240TIP3   OH261134   6.461   5.252  12.915 -0.5329 -0.0420 -0.0231
13240TIP3    H161135   6.421   5.185  12.970  1.2600 -0.3061  1.0108
13240TIP3    H261136   6.409   5.331  12.933 -1.4631 -0.6981  0.2029
13241TIP3   OH261137   1.976   4.968   4.385  0.5351  0.2857 -0.2266
13241TIP3    H161138   1.921   4.962   4.463 -0.2547  1.1349 -0.7074
13241TIP3    H261139   1.918   5.001   4.317  1.7071  1.4895 -0.6767
13242TIP3   OH261140   1.608   3.714   1.564  0.0322 -0.3377  0.4251
13242TIP3    H161141   1.656   3.772   1.624 -1.5828 -0.5174  1.9105
13242TIP3    H261142   1.675   3.654   1.531  1.6965  2.1548 -0.9374
13243TIP3   OH261143   1.100   2.001  14.634 -0.2647  0.0970 -0.2320
13243TIP3    H161144   1.150   2.069  14.590  1.7233 -0.2118  1.4478
13243TIP3    H261145   1.028   2.047  14.677 -0.0755  0.8671 -0.7382
13244TIP3   OH261146   2.200   2.297  12.191  0.0507 -0.2777 -0.0490
13244TIP3    H161147   2.145   2.376  12.188  0.6746  0.1810  0.4132
13244TIP3    H261148   2.278   2.321  12.141  0.2185 -0.6262  0.0452
13245TIP3   OH261149   4.767   3.099  12.631  0.1578 -0.4457  0.0527
13245TIP3    H161150   4.711   3.052  12.693 -0.3780 -0.3861 -0.3855
13245TIP3    H261151   4.744   3.191  12.643  0.7504 -0.3490  0.4531
13246TIP3   OH261152   2.367   1.706  11.380 -0.5481 -0.2248  0.0031
13246TIP3    H161153   2.366   1.740  11.469  1.0721  1.6194 -0.6638
13246TIP3    H261154   2.326   1.775  11.328  1.7682  0.2965 -1.1952
13247TIP3   OH261155   4.439   3.981   4.843  0.1683 -0.7758 -0.7505
13247TIP3    H161156   4.433   3.890   4.871  0.5423 -0.6801 -0.3524
13247TIP3    H261157   4.398   4.031   4.913  2.9319 -0.3590  0.6713
13248TIP3   OH261158   1.762   5.653   5.428 -0.4654 -0.1764 -0.1211
13248TIP3    H161159   1.823   5.704   5.375 -2.1162  2.2147  0.2059
13248TIP3    H261160   1.682   5.648   5.376 -1.0350 -0.5644  0.7741
13249TIP3   OH261161   4.711   2.406   5.342  0.3055  0.1342 -0.4820
13249TIP3    H161162   4.784   2.453   5.302 -1.3523  0.5863 -3.1345
13249TIP3    H261163   4.719   2.317   5.310  1.0267 -0.4055  1.1474
13250TIP3   OH261164   1.685   4.097  15.109  0.6875 -0.4175 -0.3806
13250TIP3    H161165   1.718   4.009  15.126  1.7245 -0.1956 -1.1942
13250TIP3    H261166   1.643   4.123  15.191  1.9628 -0.9704  0.4681
13251TIP3   OH261167   0.644   2.990  13.908 -0.2870 -0.3578  0.2696
13251TIP3    H161168   0.690   3.066  13.944 -0.4875 -0.5174  0.8660
13251TIP3    H261169   0.568   2.979  13.965  1.1949 -2.6884  1.9137
13252TIP3   OH261170   6.649   6.235   2.958  0.3827  0.4335  0.6217
13252TIP3    H161171   6.700   6.163   2.922  1.6303  0.9660  1.2893
13252TIP3    H261172   6.631   6.208   3.049 -1.2562 -0.1200  0.1649
13253TIP3   OH261173   1.638   5.033  11.000 -0.5700 -0.7342 -0.1129
13253TIP3    H161174   1.584   5.008  11.075  0.1534  0.6169  0.8974
13253TIP3    H261175   1.717   5.072  11.039 -0.0301 -0.3125 -1.5682
13254TIP3   OH261176   4.082   5.800  14.946 -0.1457  0.1871 -0.0090
13254TIP3    H161177   4.166   5.787  14.990 -0.2438 -1.5763 -0.2671
13254TIP3    H261178   4.044   5.877  14.987  1.6718  1.1133 -0.0034
13255TIP3   OH261179   6.332   2.833  16.422 -0.2386  0.2369  0.3894
13255TIP3    H161180   6.416   2.878  16.430 -0.0759  0.0902 -0.4581
13255TIP3    H261181   6.267   2.902  16.431  0.0121  0.6654 -1.0093
13256TIP3   OH261182   4.119   5.318  12.734 -0.7770  0.1162  0.1504
13256TIP3    H161183   4.153   5.389  12.679 -0.7034  1.3299  1.7430
13256TIP3    H261184   4.189   5.252  12.733  0.2027  1.1255  0.6249
13257TIP3   OH261185   1.405   4.387  16.879  0.2408 -0.4179  0.2670
13257TIP3    H161186   1.453   4.342  16.949  0.0789 -0.6123  0.2555
13257TIP3    H261187   1.464   4.382  16.803  1.0732  1.1296  0.7874
13258TIP3   OH261188   2.966   1.017   1.310 -0.4329 -0.2473 -0.2612
13258TIP3    H161189   2.979   0.923   1.312 -2.8915 -0.6042 -0.1779
13258TIP3    H261190   2.924   1.034   1.225 -2.3971  0.4397  0.8307
13259TIP3   OH261191   2.750   1.455   3.070  0.3563 -0.0415 -0.0248
13259TIP3    H161192   2.739   1.373   3.023  1.1995  0.4576 -1.1036
13259TIP3    H261193   2.691   1.448   3.145 -0.5373 -1.0831 -0.8212
13260TIP3   OH261194   6.688   0.113   2.691  0.1463 -0.1424 -0.1079
13260TIP3    H161195   6.633   0.035   2.686  0.1792 -0.2778  1.4768
13260TIP3    H261196   6.700   0.139   2.600 -0.0365 -1.8581 -0.6475
13261TIP3   OH261197   0.620   3.370   1.579  0.1826  0.2837  0.3912
13261TIP3    H161198   0.552   3.416   1.628  1.2454  2.2371  0.1220
13261TIP3    H261199   0.679   3.335   1.646 -0.2584 -0.0814  0.5868
13262TIP3   OH261200   3.171   3.024  15.125 -0.2525  0.1230 -0.1440
13262TIP3    H161201   3.222   2.992  15.200  0.5027 -1.4575 -1.3242
13262TIP3    H261202   3.172   2.952  15.062 -0.3852  1.6512 -1.9379
13263TIP3   OH261203   6.668   4.994   4.328  0.0915  0.0776  0.5281
13263TIP3    H161204   6.743   4.958   4.283 -1.3806 -0.7370 -1.3422
13263TIP3    H261205   6.614   4.918   4.351 -1.0191  0.7571  0.2486
13264TIP3   OH261206   4.691   4.651  14.082 -0.2227 -0.1842 -0.0845
13264TIP3    H161207   4.751   4.588  14.042 -2.0418 -0.7043 -2.0954
13264TIP3    H261208   4.700   4.730  14.028 -3.5887 -1.2807 -2.4201
13265TIP3   OH261209   1.027   1.566   5.073  0.3749  0.0069 -0.0342
13265TIP3    H161210   0.971   1.629   5.028  1.7201 -0.2090 -2.0875
13265TIP3    H261211   0.971   1.490   5.089 -0.4177  0.5326 -0.2930
13266TIP3   OH261212   4.354   5.298   1.488 -0.4552 -0.1333  0.1025
13266TIP3    H161213   4.388   5.237   1.554  2.7117  1.5829  0.1579
13266TIP3    H261214   4.363   5.384   1.529 -2.0538  0.6220 -1.1141
13267TIP3   OH261215   5.395   0.861   5.746  0.0568 -0.4784  0.1962
13267TIP3    H161216   5.427   0.815   5.824  0.9745  1.4745  0.9973
13267TIP3    H261217   5.439   0.817   5.674 -1.2562 -2.7018  0.6841
13268TIP3   OH261218   1.581   1.696  13.409 -0.1623 -0.4613 -0.2973
13268TIP3    H161219   1.593   1.781  13.367  0.5590 -1.5655 -2.4199
13268TIP3    H261220   1.667   1.674  13.444 -0.9003  0.7167  2.3238
13269TIP3   OH261221   5.210   0.629  15.182  0.7355 -0.3051 -0.0671
13269TIP3    H161222   5.139   0.655  15.124  1.8558  1.9340 -0.4735
13269TIP3    H261223   5.167   0.613  15.266 -0.0332  2.9412  0.2140
13270TIP3   OH261224   0.116   0.600  14.727  0.5119  0.0295 -0.4610
13270TIP3    H161225   0.057   0.656  14.677  1.7025  1.9065  0.1942
13270TIP3    H261226   0.145   0.655  14.800  2.8208 -0.9693 -0.5911
13271TIP3   OH261227   4.957   4.265  12.574 -0.8446  0.3722 -0.1519
13271TIP3    H161228   4.948   4.327  12.501 -1.6814  2.2339  1.4705
13271TIP3    H261229   5.034   4.296  12.623 -0.2652 -0.8781 -0.2602
13272TIP3   OH261230   4.118   3.109   5.832 -0.1097 -0.1977  0.1755
13272TIP3    H161231   4.037   3.100   5.783 -0.7388  1.0963  0.9498
13272TIP3    H261232   4.138   3.020   5.861  0.3545 -1.0013 -2.4959
13273TIP3   OH261233   3.919   1.059  13.697  0.3378  0.4747  0.5282
13273TIP3    H161234   3.895   1.142  13.740  0.5028  1.6435 -1.5497
13273TIP3    H261235   4.014   1.054  13.707  0.4254  0.9436  0.0027
13274TIP3   OH261236   5.702   1.231   2.320 -0.6883 -0.3356  0.4883
13274TIP3    H161237   5.687   1.146   2.362 -0.0567 -1.4863 -1.5598
13274TIP3    H261238   5.654   1.226   2.237 -2.7173  2.2545  1.4270
13275TIP3   OH261239   4.063   2.942   5.025  0.2884 -0.5024 -0.2805
13275TIP3    H161240   4.096   2.904   4.943 -1.4019 -0.8946 -0.7952
13275TIP3    H261241   4.137   2.933   5.086  1.5404 -0.2856 -1.7209
13276TIP3   OH261242   5.431   6.004   3.061  0.2574  0.3506 -0.3017
13276TIP3    H161243   5.391   6.089   3.080 -0.9893 -0.3695  0.3844
13276TIP3    H261244   5.483   5.984   3.138 -1.2176 -0.5058  0.5018
13277TIP3   OH261245   5.346   5.253   5.836  0.5115 -0.5612 -0.2267
13277TIP3    H161246   5.296   5.294   5.766  0.3433  0.0723  0.2635
13277TIP3    H261247   5.317   5.297   5.916  0.5663 -1.4014  0.2669
13278TIP3   OH261248   5.015   3.669   3.581  0.3580 -0.2618 -0.5156
13278TIP3    H161249   5.046   3.584   3.551  0.0646 -0.4901 -0.1710
13278TIP3    H261250   4.987   3.714   3.501  2.2339  0.2236 -0.9329
13279TIP3   OH261251   4.159   2.648   5.567 -0.0388  0.1832  0.0083
13279TIP3    H161252   4.217   2.704   5.515 -0.8143 -0.1504 -1.2154
13279TIP3    H261253   4.216   2.578   5.598  0.1969 -0.1828 -1.2477
13280TIP3   OH261254   3.068   5.223  11.124 -0.0689 -0.6193  0.0379
13280TIP3    H161255   2.996   5.281  11.150  0.1773 -0.4015  0.2427
13280TIP3    H261256   3.025   5.148  11.084 -0.3461  0.3122 -1.4519
13281TIP3   OH261257   0.259   5.997  14.880  1.0223  0.4376 -0.1588
13281TIP3    H161258   0.225   5.931  14.819  2.5481 -0.1794 -0.3642
13281TIP3    H261259   0.343   6.022  14.842  1.2977  1.1312  0.9224
13282TIP3   OH261260   6.403   3.142  12.540 -0.1086 -0.3524  0.1626
13282TIP3    H161261   6.455   3.190  12.604  0.2785  1.8199 -1.7059
13282TIP3    H261262   6.467   3.110  12.476 -0.4780 -2.5446  0.8898
13283TIP3   OH261263   5.752   2.494   5.807  0.0779  0.8948 -0.5100
13283TIP3    H161264   5.682   2.542   5.851 -1.4312  0.2615 -2.1342
13283TIP3    H261265   5.732   2.504   5.714  1.5452 -0.2255 -0.9622
13284TIP3   OH261266   3.344   2.698  13.857  0.0724 -0.0051 -0.1463
13284TIP3    H161267   3.280   2.764  13.884 -0.4492  0.0072 -1.3864
13284TIP3    H261268   3.429   2.738  13.876 -0.2446  0.9801 -0.7481
13285TIP3   OH261269   3.736   2.794  15.608  0.3034  0.7241 -0.4532
13285TIP3    H161270   3.823   2.776  15.643  0.4943  0.7775 -0.8865
13285TIP3    H261271   3.738   2.756  15.520  0.0571  1.1653 -0.6503
13286TIP3   OH261272   1.369   6.390  17.072 -0.2790 -0.0716 -0.1425
13286TIP3    H161273   1.335   6.301  17.062 -1.2588  0.2545  0.2063
13286TIP3    H261274   1.412   6.390  17.157 -1.9537  0.3030  0.7222
13287TIP3   OH261275   6.619   3.707  11.309  0.1698  0.3468  0.0182
13287TIP3    H161276   6.568   3.672  11.236  0.7172  0.4942 -0.4418
13287TIP3    H261277   6.573   3.677  11.387  0.8955 -1.7985 -0.3467
13288TIP3   OH261278   3.581   5.909  17.027 -0.1406  0.2958 -0.0462
13288TIP3    H161279   3.598   5.958  17.108 -1.5049  2.6849 -1.1536
13288TIP3    H261280   3.496   5.868  17.042  0.8116 -1.4717  0.7172
13289TIP3   OH261281   6.471   0.157  14.555  0.5760  0.1609  0.5239
13289TIP3    H161282   6.462   0.077  14.504  3.6352  0.4604 -0.5921
13289TIP3    H261283   6.486   0.128  14.644  0.3532 -0.5036  0.3432
13290TIP3   OH261284   5.000   3.361  14.582 -0.0719 -0.5356  0.3730
13290TIP3    H161285   4.970   3.437  14.532 -0.1320  0.5077  1.9299
13290TIP3    H261286   4.934   3.350  14.651 -0.3729 -2.3783 -0.1975
13291TIP3   OH261287   4.553   5.225   2.589 -0.0693 -0.5674  0.2742
13291TIP3    H161288   4.636   5.271   2.603 -0.3796  0.2565 -0.5734
13291TIP3    H261289   4.494   5.262   2.656 -0.1311 -0.1982  0.0183
13292TIP3   OH261290   4.004   6.752   3.798 -0.7789 -0.0706 -0.0684
13292TIP3    H161291   4.045   6.675   3.836 -0.3556  0.2143  0.0475
13292TIP3    H261292   3.918   6.756   3.839 -1.1205 -0.9395 -0.6596
13293TIP3   OH261293   0.675   3.744  17.038 -0.0290  0.6666 -0.2943
13293TIP3    H161294   0.641   3.822  17.082  0.1978  0.2096  0.7073
13293TIP3    H261295   0.625   3.739  16.956 -0.8002  1.2594  0.1317
13294TIP3   OH261296   2.963   5.853  12.387 -0.4495  0.4841  0.1485
13294TIP3    H161297   2.880   5.848  12.435 -0.5471  0.2909 -0.0371
13294TIP3    H261298   2.937   5.878  12.298 -0.2554  1.0141  0.2408
13295TIP3   OH261299   0.236   4.210   0.064 -0.0845  0.1978 -0.0225
13295TIP3    H161300   0.196   4.184   0.147 -0.8530  1.7744  0.1290
13295TIP3    H261301   0.330   4.213   0.083 -0.3242  1.4807  1.0942
13296TIP3   OH261302   3.099   6.275   2.948  0.6493  0.2520  0.4419
13296TIP3    H161303   3.037   6.207   2.922 -1.5466  2.0135  0.8168
13296TIP3    H261304   3.161   6.281   2.876 -0.2992 -0.7854 -0.4827
13297TIP3   OH261305   0.910   6.200   0.065  1.2810 -0.4163 -0.1011
13297TIP3    H161306   0.950   6.225  -0.018 -0.1483 -1.0617 -1.0010
13297TIP3    H261307   0.958   6.122   0.092  3.3151  1.1190  0.8888
13298TIP3   OH261308   3.960   6.404  12.222 -0.0609 -0.2731  0.1518
13298TIP3    H161309   4.033   6.381  12.164  0.5574 -1.0123  1.2025
13298TIP3    H261310   3.895   6.336  12.205  0.3929 -0.8802  0.7928
13299TIP3   OH261311   0.889   1.151  12.632 -0.3817  0.6588  0.2265
13299TIP3    H161312   0.931   1.237  12.639  0.0007  0.4581  0.4685
13299TIP3    H261313   0.903   1.124  12.541  1.9565 -0.3682  0.8539
13300TIP3   OH261314   4.490   6.355  16.339 -0.3507  0.0886 -0.0021
13300TIP3    H161315   4.552   6.328  16.271 -0.5021  1.1309 -0.5628
13300TIP3    H261316   4.508   6.447  16.353 -0.0297 -0.2307  1.7152
13301TIP3   OH261317   3.108   5.989  12.806 -0.2224 -0.2081 -0.3658
13301TIP3    H161318   3.017   6.019  12.801  0.4453  2.5667  2.4633
13301TIP3    H261319   3.154   6.041  12.740 -0.3644 -0.3515 -0.5801
13302TIP3   OH261320   3.227   6.493   3.082 -0.4206  0.1957  0.4277
13302TIP3    H161321   3.241   6.554   3.010  1.5023 -1.1359 -0.3638
13302TIP3    H261322   3.165   6.429   3.048 -1.4690  0.9751  0.8376
13303TIP3   OH261323   1.346   5.980   2.106  0.1553  0.1387 -0.3699
13303TIP3    H161324   1.431   5.940   2.090  0.2084  0.5392 -1.0944
13303TIP3    H261325   1.321   6.019   2.022 -0.4044  0.6647  0.0360
13304TIP3   OH261326   3.661   5.851   3.542 -0.4540 -0.9899 -0.0337
13304TIP3    H161327   3.582   5.868   3.594  0.0079  1.4090 -0.0673
13304TIP3    H261328   3.629   5.849   3.451 -0.7094 -1.5612  0.0679
13305TIP3   OH261329   6.771   1.498   4.113 -0.1543 -0.1753  0.0801
13305TIP3    H161330   6.692   1.545   4.086 -0.3835  0.3154  1.5420
13305TIP3    H261331   6.743   1.407   4.123 -0.4924 -0.0317  0.4391
13306TIP3   OH261332   5.572   3.525   2.439  0.6552 -0.4205 -0.3416
13306TIP3    H161333   5.636   3.481   2.382  0.0910  0.1721 -1.4512
13306TIP3    H261334   5.495   3.469   2.435  0.2985  0.1008 -0.9129
13307TIP3   OH261335   2.634   1.213   3.643 -0.0701 -0.4757 -0.2744
13307TIP3    H161336   2.673   1.174   3.565 -1.3026  0.4148 -1.3603
13307TIP3    H261337   2.699   1.200   3.712 -0.1539 -3.8303 -0.7571
13308TIP3   OH261338   5.132   3.183   0.502 -0.4004  0.1868 -0.1530
13308TIP3    H161339   5.108   3.248   0.569  0.1887  1.0401 -0.7667
13308TIP3    H261340   5.054   3.127   0.495 -1.6832  2.0203 -1.0345
13309TIP3   OH261341   5.291   2.596   1.641  0.5211  0.6176  1.0326
13309TIP3    H161342   5.347   2.533   1.595 -0.7742 -0.8003  1.3615
13309TIP3    H261343   5.242   2.639   1.572 -0.5077 -0.6184  0.9754
13310TIP3   OH261344   1.285   3.794  12.925  0.1833 -0.1203 -0.0237
13310TIP3    H161345   1.251   3.710  12.894  1.8433 -0.7434 -0.2046
13310TIP3    H261346   1.207   3.848  12.937 -0.7958 -1.1514 -1.4690
13311TIP3   OH261347   5.949   4.093   3.920 -0.0339 -0.3482  0.0572
13311TIP3    H161348   5.960   4.076   3.827 -0.0876 -1.4820  0.2474
13311TIP3    H261349   5.862   4.057   3.941  0.3435 -0.9049  0.7141
13312TIP3   OH261350   5.655   4.373   3.368 -0.1562 -0.0924  0.5601
13312TIP3    H161351   5.689   4.401   3.283  0.8305  1.3383  1.4144
13312TIP3    H261352   5.564   4.404   3.369  0.1477  0.7848  0.4518
13313TIP3   OH261353   4.691   3.202   6.242  0.1329 -0.3055  0.0086
13313TIP3    H161354   4.706   3.156   6.326 -0.0991 -1.3915 -0.5375
13313TIP3    H261355   4.779   3.224   6.212  0.3980 -2.1934 -0.6998
13314TIP3   OH261356   4.893   4.550   2.529 -0.1332 -0.3105 -0.1458
13314TIP3    H161357   4.978   4.525   2.493 -0.1333  2.3049 -2.0954
13314TIP3    H261358   4.910   4.566   2.622  1.5340  0.2336 -0.5336
13315TIP3   OH261359   2.413   1.685  15.382  0.0850  0.3041  0.1062
13315TIP3    H161360   2.488   1.626  15.387 -0.7496 -0.7194  0.5482
13315TIP3    H261361   2.343   1.640  15.428 -0.7729  1.3190 -0.1776
13316TIP3   OH261362   6.293   0.065  14.979  0.2390  1.1324  0.0112
13316TIP3    H161363   6.254   0.105  15.057  0.2307 -0.9750  1.1242
13316TIP3    H261364   6.239  -0.012  14.962  2.6955 -0.7261  0.3939
13317TIP3   OH261365   2.043   5.615  13.950  0.0289 -0.0057 -0.4197
13317TIP3    H161366   1.958   5.631  13.908  0.9323  1.8200 -1.5949
13317TIP3    H261367   2.079   5.541  13.901 -0.3796 -0.0402 -0.6755
13318TIP3   OH261368   5.635   2.223   0.354 -0.0942  0.5434 -0.7508
13318TIP3    H161369   5.547   2.262   0.352 -0.2045  0.2387 -2.0220
13318TIP3    H261370   5.670   2.238   0.266  1.3045  1.0517 -0.1197
13319TIP3   OH261371   4.090   5.273  11.448  0.3210  0.2438 -0.2193
13319TIP3    H161372   4.121   5.183  11.435  1.4293  0.4228  1.0669
13319TIP3    H261373   4.012   5.262  11.503  1.0018  0.1141  0.7406
13320TIP3   OH261374   0.358   5.694  17.097 -0.1497  0.1080 -0.4467
13320TIP3    H161375   0.337   5.670  17.007  0.5353 -0.9422 -0.3347
13320TIP3    H261376   0.286   5.657  17.149  1.1275 -2.1736 -0.2261
13321TIP3   OH261377   1.958   4.407  13.710  0.8270  0.9485  0.6591
13321TIP3    H161378   2.037   4.410  13.656 -1.0660 -0.8084 -2.3287
13321TIP3    H261379   1.899   4.471  13.671  0.1666  1.0947  1.8676
13322TIP3   OH261380   2.401   2.510   0.490  0.4541 -0.6417  0.2489
13322TIP3    H161381   2.467   2.561   0.538  0.9500 -0.1093 -0.9808
13322TIP3    H261382   2.372   2.443   0.552 -0.2648  1.1799  1.9400
13323TIP3   OH261383   0.758   3.079  14.517 -0.5873 -0.0839  0.3043
13323TIP3    H161384   0.721   3.062  14.604 -0.9634 -0.1455  0.1372
13323TIP3    H261385   0.710   3.156  14.485 -1.3363 -0.8069 -0.3555
13324TIP3   OH261386   3.424   6.653   2.655  0.3438  0.4881 -0.2514
13324TIP3    H161387   3.410   6.746   2.640  1.7667  1.1012  2.0352
13324TIP3    H261388   3.504   6.648   2.707 -0.6580 -1.9000  1.1613
13325TIP3   OH261389   2.221   6.355   0.732  0.3638 -0.1414  0.3714
13325TIP3    H161390   2.126   6.368   0.723  0.7044  0.4390 -3.0569
13325TIP3    H261391   2.258   6.443   0.728  1.1819 -0.5197 -0.9094
13326TIP3   OH261392   6.393   5.927   1.023 -0.0301  0.3470 -0.1156
13326TIP3    H161393   6.362   5.920   0.933 -0.5695 -0.0232  0.0916
13326TIP3    H261394   6.394   5.836   1.055  0.7109  0.4186  0.0670
13327TIP3   OH261395   3.965   5.136   3.608  0.6559  0.0291  0.0468
13327TIP3    H161396   3.991   5.097   3.525  2.3521  0.3109  0.4195
13327TIP3    H261397   3.916   5.066   3.652  0.9487 -0.6046 -0.6094
13328TIP3   OH261398   5.710   3.299  12.859  0.4496 -0.2366  0.4040
13328TIP3    H161399   5.699   3.374  12.917 -1.0711 -1.0064  1.1528
13328TIP3    H261400   5.699   3.223  12.916 -0.2014 -1.0120 -0.7389
13329TIP3   OH261401   2.331   3.927   2.398 -0.2009  0.1521  0.5724
13329TIP3    H161402   2.364   3.870   2.468  1.7458 -0.0752 -0.5004
13329TIP3    H261403   2.251   3.886   2.369  1.4174 -2.3332 -0.5134
13330TIP3   OH261404   3.313   1.195   3.871 -0.2510  0.3361 -0.5703
13330TIP3    H161405   3.274   1.218   3.787  0.0163  1.1388 -0.4821
13330TIP3    H261406   3.399   1.158   3.848 -1.0685 -1.5017 -0.7677
13331TIP3   OH261407   1.153   0.527   1.776  0.1380  1.0873 -0.0153
13331TIP3    H161408   1.057   0.530   1.771  0.1463  0.9102 -0.3464
13331TIP3    H261409   1.181   0.553   1.688  0.4142  2.1305  0.3850
13332TIP3   OH261410   4.808   2.721  14.546 -0.4318 -0.2487 -0.2472
13332TIP3    H161411   4.878   2.744  14.606  0.2338  0.2714 -1.2020
13332TIP3    H261412   4.727   2.736  14.595  0.1270 -1.1548  0.9645
13333TIP3   OH261413   5.934   2.200  16.280 -0.4714 -0.5695  0.1664
13333TIP3    H161414   5.866   2.264  16.258  2.2189  1.3907 -2.9107
13333TIP3    H261415   6.007   2.253  16.313  1.0616 -2.1975 -0.5030
13334TIP3   OH261416   5.425   0.421  12.016 -0.3737 -0.3879  0.2640
13334TIP3    H161417   5.453   0.510  11.995  0.0948 -0.7696 -0.7216
13334TIP3    H261418   5.356   0.433  12.081  0.7342  0.6353  1.2798
13335TIP3   OH261419   4.212   4.248  16.071 -0.3135  0.0422  0.5806
13335TIP3    H161420   4.274   4.224  16.003 -1.8626  0.2428 -0.9591
13335TIP3    H261421   4.210   4.174  16.131 -0.3870 -0.9850 -0.6868
13336TIP3   OH261422   5.255   0.256  17.103 -0.6877  0.1923 -0.1537
13336TIP3    H161423   5.290   0.292  17.185  1.3980 -1.3631 -0.3259
13336TIP3    H261424   5.239   0.333  17.048  2.1756  1.0123  0.0738
13337TIP3   OH261425   1.453   0.668  11.376 -0.0399  0.5763 -0.9686
13337TIP3    H161426   1.377   0.710  11.336  0.4591  0.1382 -2.3736
13337TIP3    H261427   1.444   0.575  11.356 -0.7890  0.0543  1.5760
13338TIP3   OH261428   0.440   1.689   4.140  0.3748  0.3421 -0.0149
13338TIP3    H161429   0.347   1.684   4.119  0.8895 -1.1670 -2.0997
13338TIP3    H261430   0.468   1.774   4.106 -0.4160  1.2422  1.5185
13339TIP3   OH261431   3.024   1.699   5.096  0.2357 -0.2004  0.0808
13339TIP3    H161432   3.094   1.675   5.157  0.6661 -0.2582 -0.4376
13339TIP3    H261433   3.014   1.622   5.039  0.4578  0.1997 -0.5033
13340TIP3   OH261434   2.747   3.543  11.174  0.7001  0.4896 -0.3244
13340TIP3    H161435   2.665   3.591  11.162  1.8253  2.3257 -0.8930
13340TIP3    H261436   2.771   3.512  11.087  1.5794  1.6127 -0.4952
13341TIP3   OH261437   1.825   6.313   1.300  0.2713 -0.0427  0.2459
13341TIP3    H161438   1.783   6.301   1.215  2.2434 -1.7815 -0.5437
13341TIP3    H261439   1.851   6.405   1.301  0.3901 -0.0447 -1.1235
13342TIP3   OH261440   0.167   6.459   2.416 -0.0078  0.2882 -0.2097
13342TIP3    H161441   0.119   6.477   2.496 -0.3555  0.1765 -0.3932
13342TIP3    H261442   0.134   6.522   2.352  2.2480  2.2538  0.4872
13343TIP3   OH261443   0.504   0.278   5.738  0.1540  0.4245 -0.0256
13343TIP3    H161444   0.497   0.367   5.772  0.9311  0.9077 -1.0890
13343TIP3    H261445   0.573   0.237   5.790  1.2866  1.1363 -0.9454
13344TIP3   OH261446   5.142   4.363  14.865 -0.1268 -0.2394  0.1475
13344TIP3    H161447   5.098   4.448  14.861 -0.1488 -0.2920 -0.7468
13344TIP3    H261448   5.179   4.350  14.778 -0.2253 -1.2032  0.2371
13345TIP3   OH261449   5.004   5.722  10.904  0.4764  0.0238  0.3343
13345TIP3    H161450   4.946   5.646  10.903 -0.5061  0.7846  0.0639
13345TIP3    H261451   4.953   5.791  10.945  0.8820  0.9470 -0.7045
13346TIP3   OH261452   4.934   4.417  15.776  0.3252 -0.1434 -0.2492
13346TIP3    H161453   4.858   4.408  15.719  0.2376  3.0616 -0.7387
13346TIP3    H261454   5.008   4.431  15.717  0.9444 -1.0057  0.2993
13347TIP3   OH261455   4.583   5.017   0.659 -0.0430 -0.2926 -0.0652
13347TIP3    H161456   4.641   4.968   0.717  0.2486  0.3181  0.1712
13347TIP3    H261457   4.530   4.951   0.615  2.1630 -1.0039 -1.7295
13348TIP3   OH261458   5.522   6.434  13.683 -0.7269  0.4971  0.4852
13348TIP3    H161459   5.572   6.393  13.612 -0.1288 -0.4660  1.4457
13348TIP3    H261460   5.474   6.362  13.724 -2.6608  1.3580 -0.2018
13349TIP3   OH261461   5.634   5.083   0.448 -0.1955 -0.2906  0.1207
13349TIP3    H161462   5.550   5.036   0.454 -0.1397 -0.6074 -1.3692
13349TIP3    H261463   5.683   5.054   0.524  0.3714 -3.7436 -1.4800
13350TIP3   OH261464   1.012   1.048  15.074 -0.1831 -0.0127  0.1068
13350TIP3    H161465   1.028   1.109  15.002 -0.1004 -1.7875 -1.4354
13350TIP3    H261466   1.027   0.961  15.035 -1.7932 -1.0954  1.8152
13351TIP3   OH261467   2.284   3.584  11.948 -0.2383  0.5404  0.2299
13351TIP3    H161468   2.361   3.618  11.993 -0.4661 -0.1534  1.1456
13351TIP3    H261469   2.319   3.534  11.874  0.1333  1.6497 -0.3566
13352TIP3   OH261470   3.198   1.126   1.625 -0.7676 -0.5726 -0.2100
13352TIP3    H161471   3.106   1.103   1.638 -0.7160 -0.3074  0.7072
13352TIP3    H261472   3.207   1.138   1.531 -2.0137  0.8209 -0.1736
13353TIP3   OH261473   4.442   4.648   2.107  0.3409 -0.1635  0.2943
13353TIP3    H161474   4.456   4.702   2.185 -0.4278  0.1679  0.2108
13353TIP3    H261475   4.513   4.672   2.048  1.1378 -0.6750  1.0297
13354TIP3   OH261476   0.059   4.907  15.917 -0.3372  0.7139 -0.7346
13354TIP3    H161477   0.026   4.988  15.955  0.4901  1.1385 -0.8919
13354TIP3    H261478   0.145   4.931  15.881  1.1602 -0.8691  1.6621
13355TIP3   OH261479   3.794   3.585   2.230 -0.0773 -0.8528  0.0189
13355TIP3    H161480   3.799   3.679   2.208 -2.8849 -0.0466  2.5299
13355TIP3    H261481   3.838   3.577   2.314  0.7065 -1.9160 -0.4847
13356TIP3   OH261482   5.579   1.332  12.968 -0.2364 -0.1060  1.2580
13356TIP3    H161483   5.501   1.277  12.966 -0.0307 -0.3726  0.2460
13356TIP3    H261484   5.603   1.344  12.876 -0.8906  2.5608  1.4025
13357TIP3   OH261485   2.283   4.084  14.258 -0.2931 -0.2800  0.1778
13357TIP3    H161486   2.188   4.097  14.263 -0.2694  0.3000 -0.7301
13357TIP3    H261487   2.297   4.048  14.171  0.2022 -1.5086  0.7524
13358TIP3   OH261488   1.111   5.565   5.844 -0.1580  0.1649 -0.6259
13358TIP3    H161489   1.044   5.568   5.776 -2.1213  1.6274  1.2818
13358TIP3    H261490   1.093   5.483   5.892 -0.0716  0.1416 -0.6337
13359TIP3   OH261491   2.850   5.797  14.906  0.1711  0.0533 -0.3827
13359TIP3    H161492   2.918   5.784  14.972  0.2357 -0.8538 -0.6171
13359TIP3    H261493   2.769   5.809  14.956  0.3183 -0.0192 -0.1293
13360TIP3   OH261494   6.043   6.059  12.035  0.0304 -0.2219  0.7703
13360TIP3    H161495   5.998   5.979  12.062  0.3435 -0.6716 -0.0434
13360TIP3    H261496   6.032   6.118  12.109 -2.4282 -0.1189  0.3805
13361TIP3   OH261497   4.529   4.833   6.514  0.0487 -0.0255 -0.2765
13361TIP3    H161498   4.588   4.902   6.544 -0.0599 -0.3111  0.5930
13361TIP3    H261499   4.456   4.835   6.575  0.5738 -1.6425  0.4114
13362TIP3   OH261500   1.232   4.720  13.021  0.1188 -0.2684 -0.0930
13362TIP3    H161501   1.220   4.802  12.974  1.8754 -1.0966 -2.0917
13362TIP3    H261502   1.199   4.653  12.961 -1.1369 -1.0574  1.4418
13363TIP3   OH261503   4.231   2.670  16.591  0.2401  0.4209 -0.2281
13363TIP3    H161504   4.180   2.604  16.542  0.9993 -0.2503 -0.1230
13363TIP3    H261505   4.231   2.638  16.681  0.1058  0.8809 -0.0614
13364TIP3   OH261506   4.074   6.158   0.077  0.2524  0.3071  0.2036
13364TIP3    H161507   4.162   6.127   0.056  0.2998 -0.3609  1.3461
13364TIP3    H261508   4.044   6.201  -0.003  1.0179 -0.8063 -0.6883
13365TIP3   OH261509   2.012   2.214   2.965 -0.6509 -0.2421  0.0590
13365TIP3    H161510   2.013   2.187   3.057  0.2657  0.3241  0.2244
13365TIP3    H261511   1.938   2.167   2.927  0.4341 -2.3879  0.5126
13366TIP3   OH261512   1.398   1.027  14.553 -0.5315  0.0158  0.3665
13366TIP3    H161513   1.360   1.105  14.594 -0.0222  1.3096 -1.5760
13366TIP3    H261514   1.486   1.021  14.589  0.0608  1.3935 -0.8121
13367TIP3   OH261515   3.401   6.409   0.498 -0.2764 -0.3186 -0.2033
13367TIP3    H161516   3.356   6.487   0.465 -1.2930 -0.7671  0.0772
13367TIP3    H261517   3.343   6.376   0.566  0.1318 -1.3389 -0.3450
13368TIP3   OH261518   4.212   1.745  15.905 -0.2626  0.4671  0.1195
13368TIP3    H161519   4.277   1.691  15.951 -0.3446 -0.2841 -0.6458
13368TIP3    H261520   4.177   1.802  15.973 -1.3162 -1.5280  1.3022
13369TIP3   OH261521   0.351   0.758   0.859 -0.1393  0.2728  0.0507
13369TIP3    H161522   0.276   0.717   0.901  0.1116  0.3188  0.5509
13369TIP3    H261523   0.317   0.841   0.824 -0.4042  0.1200 -0.0544
13370TIP3   OH261524   3.685   4.787   2.949 -0.1902  0.4848 -0.3061
13370TIP3    H161525   3.667   4.698   2.980  0.3447  0.8902  1.2298
13370TIP3    H261526   3.780   4.791   2.941 -0.2950  0.5205 -1.6480
13371TIP3   OH261527   4.599   1.024   1.942  0.5676  0.2744 -0.3457
13371TIP3    H161528   4.614   0.959   1.874  1.6467  0.3778 -0.2213
13371TIP3    H261529   4.558   0.975   2.014  0.4175 -0.0519 -0.6547
13372TIP3   OH261530   3.921   5.363  16.977 -0.1436  0.7429 -0.1317
13372TIP3    H161531   3.983   5.395  17.043 -0.4399  1.5262 -0.2250
13372TIP3    H261532   3.976   5.332  16.905  0.2229 -1.1603  0.9396
13373TIP3   OH261533   2.617   1.599   1.496 -0.2283  0.2074  0.4943
13373TIP3    H161534   2.626   1.652   1.575  3.7801 -0.1824  0.4368
13373TIP3    H261535   2.676   1.640   1.433  1.6465 -3.2066 -0.1274
13374TIP3   OH261536   3.238   6.222   2.711  0.5333  0.0817  0.5151
13374TIP3    H161537   3.284   6.277   2.648  1.0979 -0.8186  0.1328
13374TIP3    H261538   3.307   6.171   2.752 -0.0064 -0.4426  0.7667
13375TIP3   OH261539   2.995   0.773   1.409 -0.4566  0.4158 -0.2584
13375TIP3    H161540   2.961   0.694   1.451  0.6442  0.6874  1.1908
13375TIP3    H261541   3.083   0.749   1.379  1.1353  1.9005  2.9205
13376TIP3   OH261542   4.468   4.208  16.328  0.3812  0.6086 -0.1321
13376TIP3    H161543   4.430   4.123  16.310 -0.6215  1.1073 -0.4194
13376TIP3    H261544   4.556   4.189  16.360 -0.6362 -0.6452  2.0348
13377TIP3   OH261545   4.177   3.368   5.781  0.1911 -0.8267  0.4296
13377TIP3    H161546   4.195   3.416   5.862 -2.2268  0.8326  0.0423
13377TIP3    H261547   4.157   3.279   5.809  1.2810 -0.7639  1.4606
13378TIP3   OH261548   5.815   5.486   2.954  0.1373  0.9704 -0.4999
13378TIP3    H161549   5.748   5.492   3.022  0.9197  1.0028  0.2724
13378TIP3    H261550   5.882   5.549   2.981  0.7368  0.5396 -0.9829
13379TIP3   OH261551   0.318   3.098  12.612 -0.3742 -0.1562 -0.1821
13379TIP3    H161552   0.375   3.133  12.544  1.4572 -0.7872  1.0084
13379TIP3    H261553   0.296   3.009  12.582 -0.1064 -0.1938 -0.2649
13380TIP3   OH261554   1.866   2.881  11.293 -0.2678  0.6141  0.1497
13380TIP3    H161555   1.880   2.855  11.202 -2.5195  0.1407 -0.0828
13380TIP3    H261556   1.898   2.806  11.344 -1.1482 -0.1055 -0.3329
13381TIP3   OH261557   2.895   3.558  13.185  0.2571 -0.0019  0.2947
13381TIP3    H161558   2.848   3.617  13.244 -0.8780 -1.1378  0.5624
13381TIP3    H261559   2.826   3.520  13.129  0.6851 -2.4397  1.3413
13382TIP3   OH261560   5.404   5.078   1.532  0.1274 -0.2175 -0.2909
13382TIP3    H161561   5.341   5.025   1.580 -0.7813  0.0180 -1.2197
13382TIP3    H261562   5.422   5.027   1.452 -2.9032  2.1062 -2.5882
13383TIP3   OH261563   0.496   6.023  11.253 -0.2548 -0.3449  0.0016
13383TIP3    H161564   0.583   5.985  11.264 -0.8380 -1.9919 -1.0355
13383TIP3    H261565   0.463   5.987  11.171 -1.3504  1.3919 -0.3581
13384TIP3   OH261566   1.705   4.915  16.636  0.7889 -0.4718  0.1411
13384TIP3    H161567   1.635   4.918  16.701  2.1325  2.1384  1.5392
13384TIP3    H261568   1.682   4.984  16.574  0.1968 -2.0949 -1.4838
13385TIP3   OH261569   2.804   5.201   0.212  0.3654 -0.0533  0.0996
13385TIP3    H161570   2.807   5.278   0.269  0.2292 -0.3688  0.5376
13385TIP3    H261571   2.724   5.155   0.238 -0.0203  0.1210 -0.7689
13386TIP3   OH261572   5.445   0.822   4.524  0.2876  0.2893  0.2386
13386TIP3    H161573   5.455   0.882   4.598  2.8577 -1.3564  1.2966
13386TIP3    H261574   5.355   0.790   4.531 -0.0919  1.6126  1.5197
13387TIP3   OH261575   1.025   6.681   3.366  0.1437 -0.5915  0.2663
13387TIP3    H161576   1.006   6.615   3.434 -0.1084  0.2891  1.0616
13387TIP3    H261577   0.940   6.723   3.350  0.5950  0.5879  0.8915
13388TIP3   OH261578   2.352   2.190   3.225  0.2860  0.1672 -0.3028
13388TIP3    H161579   2.258   2.206   3.237 -0.1913 -0.5148 -2.8297
13388TIP3    H261580   2.372   2.225   3.138  2.5143  0.8567  0.4527
13389TIP3   OH261581   3.135   3.066  15.602 -0.4540 -0.3999  0.0487
13389TIP3    H161582   3.116   2.991  15.546 -0.0384 -0.7179  0.3350
13389TIP3    H261583   3.049   3.105  15.619 -0.6550 -0.7205 -0.2172
13390TIP3   OH261584   0.716   1.215  14.793  0.2442  0.3713  0.2685
13390TIP3    H161585   0.703   1.166  14.712 -1.3773  2.9631 -1.1105
13390TIP3    H261586   0.810   1.229  14.798  0.3334  0.4213 -1.3228
13391TIP3   OH261587   1.948   6.118  14.809 -0.4494 -0.0498 -0.0610
13391TIP3    H161588   1.867   6.092  14.853  1.2438 -2.2676  1.9561
13391TIP3    H261589   2.010   6.134  14.881  1.9749 -2.2439 -1.5656
13392TIP3   OH261590   1.528   2.289   0.583  0.7204  0.1146  0.0443
13392TIP3    H161591   1.441   2.328   0.581  0.8178  0.4622  1.9071
13392TIP3    H261592   1.580   2.341   0.522 -0.6456 -0.7951 -1.9451
13393TIP3   OH261593   4.891   3.520  12.587  0.1290 -0.1805 -0.1089
13393TIP3    H161594   4.987   3.512  12.587  0.2067  0.1059 -2.9479
13393TIP3    H261595   4.867   3.504  12.496 -2.5587 -0.3963  0.6169
13394TIP3   OH261596   4.990   0.240  15.864  0.2581 -0.4223 -0.3838
13394TIP3    H161597   5.000   0.209  15.774  1.4848 -0.3461 -0.2845
13394TIP3    H261598   5.052   0.188  15.914 -0.8975 -0.9389  0.5433
13395TIP3   OH261599   2.603   1.936  13.237 -0.1291  0.2381  0.3842
13395TIP3    H161600   2.600   2.029  13.216 -1.5986  0.0259 -0.3441
13395TIP3    H261601   2.695   1.921  13.262  0.2332  1.7601  0.0439
13396TIP3   OH261602   6.696   4.045  11.580 -0.1061  0.2668 -0.7010
13396TIP3    H161603   6.766   4.045  11.646  0.9426  1.8204 -1.7585
13396TIP3    H261604   6.672   4.137  11.571  1.0493  0.3232 -3.7608
13397TIP3   OH261605   6.197   4.094  15.586 -0.3085 -0.3559 -0.2664
13397TIP3    H161606   6.258   4.020  15.581  0.8021  0.5069  0.3872
13397TIP3    H261607   6.249   4.170  15.564 -1.7782  0.1077 -2.3301
13398TIP3   OH261608   5.074   0.588  11.928  0.0195  0.0569  0.5478
13398TIP3    H161609   4.984   0.610  11.952 -0.3405 -1.0159  0.2236
13398TIP3    H261610   5.109   0.668  11.889 -1.6250 -0.2518 -1.6570
13399TIP3   OH261611   5.556   1.295   4.071 -0.5842  0.0462 -0.2015
13399TIP3    H161612   5.501   1.235   4.122 -0.7274  0.8759  0.6341
13399TIP3    H261613   5.644   1.259   4.080 -0.9421 -1.2149 -1.4349
13400TIP3   OH261614   4.898   1.097  14.724 -0.0267 -0.7116  0.0802
13400TIP3    H161615   4.852   1.041  14.787  1.6949  0.1803  2.1904
13400TIP3    H261616   4.860   1.184  14.737  1.4433 -0.1995  1.0414
13401TIP3   OH261617   3.256   6.667   2.873  0.3219 -0.5287  0.1773
13401TIP3    H161618   3.193   6.736   2.849  1.2230  1.2719  2.7879
13401TIP3    H261619   3.313   6.661   2.796 -0.9477  0.2332 -0.8727
13402TIP3   OH261620   0.920   3.588  15.174 -0.1106 -0.0515 -0.4563
13402TIP3    H161621   0.828   3.571  15.191 -0.4108  0.3765 -1.6272
13402TIP3    H261622   0.940   3.540  15.093  0.6178  0.0807 -0.3654
13403TIP3   OH261623   3.963   3.857   1.333 -0.0599  0.2888 -0.4638
13403TIP3    H161624   3.958   3.762   1.325  0.5275  0.2365 -0.2304
13403TIP3    H261625   3.887   3.881   1.385  0.4108 -0.1669  0.4324
13404TIP3   OH261626   1.592   6.464   2.194 -0.4564  0.6100  0.1443
13404TIP3    H161627   1.516   6.465   2.136  0.5495  3.6004 -1.1997
13404TIP3    H261628   1.587   6.546   2.243  0.5025 -0.3644  1.9505
13405TIP3   OH261629   3.760   5.256   4.799 -0.5348  0.4368  0.2041
13405TIP3    H161630   3.763   5.184   4.736 -1.6677  1.0054 -0.5131
13405TIP3    H261631   3.842   5.302   4.788 -0.3024 -0.0584 -0.1458
13406TIP3   OH261632   4.097   6.291   3.194  0.6916  0.1224 -0.2477
13406TIP3    H161633   4.035   6.363   3.180  1.8577  1.4071  1.0729
13406TIP3    H261634   4.181   6.326   3.165  1.3639 -0.5175  0.9058
13407TIP3   OH261635   5.724   5.025  16.129  0.2188 -0.6566 -0.1297
13407TIP3    H161636   5.757   5.066  16.049  0.4707  1.7013  1.1533
13407TIP3    H261637   5.801   4.980  16.166  0.4517 -0.5272 -0.4523
13408TIP3   OH261638   5.487   2.415   6.483 -0.5143 -0.6827  0.1579
13408TIP3    H161639   5.410   2.444   6.435 -0.2730  0.9928  0.7343
13408TIP3    H261640   5.517   2.493   6.529  0.6742 -1.6677  1.0976
13409TIP3   OH261641   6.630   1.607  14.064  0.0838 -0.0607  0.0649
13409TIP3    H161642   6.685   1.529  14.074  0.6344  0.0298 -2.0949
13409TIP3    H261643   6.540   1.575  14.073  0.3924 -0.5524  1.5153
13410TIP3   OH261644   1.486   3.055   5.232 -0.9658  0.0755 -0.4821
13410TIP3    H161645   1.419   3.019   5.173 -0.2249 -1.8070 -0.2060
13410TIP3    H261646   1.538   3.113   5.176 -1.3774 -0.2872 -1.2497
13411TIP3   OH261647   5.676   3.936  15.472  0.0232  0.1034 -0.3959
13411TIP3    H161648   5.768   3.954  15.491 -0.2427  0.2949  0.7444
13411TIP3    H261649   5.667   3.842  15.484 -0.5772  0.4652  2.4789
13412TIP3   OH261650   0.657   4.118   4.067 -0.5488  0.0438  0.0310
13412TIP3    H161651   0.740   4.147   4.104  0.2818 -1.3681 -0.6651
13412TIP3    H261652   0.662   4.022   4.071 -1.6863 -0.0687 -1.0017
13413TIP3   OH261653   4.799   5.106   4.271 -0.2780  0.4815  0.4208
13413TIP3    H161654   4.794   5.134   4.179  1.5933  0.3625  0.2742
13413TIP3    H261655   4.878   5.148   4.304 -0.7547  0.2277  1.8969
13414TIP3   OH261656   0.059   3.533  14.306 -0.2984  0.3223  0.0201
13414TIP3    H161657   0.036   3.536  14.213  2.4091  0.4055 -0.7090
13414TIP3    H261658  -0.002   3.593  14.348 -1.9889 -0.2126 -1.6103
13415TIP3   OH261659   6.064   6.692  12.249 -0.2298 -0.1229 -0.0752
13415TIP3    H161660   6.049   6.668  12.340  0.2328  1.4935  0.4432
13415TIP3    H261661   6.012   6.629  12.199 -0.8426 -0.7469  1.3165
13416TIP3   OH261662   5.754   5.089   5.572  0.4231 -0.5622 -0.3713
13416TIP3    H161663   5.702   5.167   5.550  0.7748  0.0016  0.7504
13416TIP3    H261664   5.831   5.124   5.617  0.5236 -1.5797  0.2473
13417TIP3   OH261665   2.147   2.047  12.104  0.2066  0.3972 -0.5377
13417TIP3    H161666   2.155   2.138  12.134  1.3060 -0.2296  1.1713
13417TIP3    H261667   2.237   2.021  12.082 -0.1640 -0.1517 -1.4376
13418TIP3   OH261668   0.617   3.470  16.615  0.1679 -0.0671 -0.1724
13418TIP3    H161669   0.531   3.429  16.623  0.7481 -1.1102  0.7391
13418TIP3    H261670   0.676   3.411  16.660  1.1776  1.2684  0.2628
13419TIP3   OH261671   4.266   2.973  14.273  0.4237 -0.0009 -0.2161
13419TIP3    H161672   4.202   2.939  14.210  0.5399  0.9013 -0.8259
13419TIP3    H261673   4.344   2.919  14.259  0.3855  0.0658 -0.7094
13420TIP3   OH261674   2.656   1.665  13.934  0.1640  0.5378  0.1318
13420TIP3    H161675   2.644   1.712  14.016 -0.1930  1.4430 -0.4310
13420TIP3    H261676   2.588   1.698  13.877 -0.7933 -1.4647  0.0513
13421TIP3   OH261677   6.182   0.944  11.594  0.2820 -0.6263 -0.2161
13421TIP3    H161678   6.262   0.960  11.645 -0.8318 -0.2645  1.4453
13421TIP3    H261679   6.158   1.031  11.561 -0.2528 -0.4797  0.5450
13422TIP3   OH261680   2.243   3.092  17.234  0.3152 -0.1105 -0.0162
13422TIP3    H161681   2.304   3.079  17.161 -1.1200 -0.6455 -1.1675
13422TIP3    H261682   2.279   3.165  17.284  1.0600  0.6192 -1.5876
13423TIP3   OH261683   2.217   5.779   1.744 -0.5067 -0.2498  0.0004
13423TIP3    H161684   2.200   5.711   1.808 -0.1392 -0.1178  0.2390
13423TIP3    H261685   2.306   5.761   1.712 -1.0012 -0.8161 -1.0868
13424TIP3   OH261686   1.076   2.533   3.196 -0.1543  0.7785 -0.1411
13424TIP3    H161687   1.136   2.476   3.147  0.3611 -0.0782  1.4324
13424TIP3    H261688   1.129   2.609   3.220  0.0392  0.4912  0.3700
13425TIP3   OH261689   5.557   5.511   6.411  0.5193  0.0684  0.3646
13425TIP3    H161690   5.593   5.440   6.358  2.3529  1.1392  0.1138
13425TIP3    H261691   5.634   5.551   6.453 -0.4212  2.1160  0.2085
13426TIP3   OH261692   1.909   4.462   0.406 -0.3493 -0.5517 -0.4766
13426TIP3    H161693   1.895   4.430   0.317  0.0083  1.4853 -1.2833
13426TIP3    H261694   1.825   4.448   0.450 -0.6398 -1.2195 -1.2285
13427TIP3   OH261695   4.907   2.569   5.250  0.2172  0.2088  1.0368
13427TIP3    H161696   4.832   2.594   5.196  0.4481 -0.8907  0.1944
13427TIP3    H261697   4.933   2.651   5.294 -0.5196  0.9218  0.1671
13428TIP3   OH261698   0.863   2.449   3.357 -0.4352 -0.2039  0.1457
13428TIP3    H161699   0.941   2.488   3.317  1.1619 -1.0732  2.3201
13428TIP3    H261700   0.802   2.438   3.284  1.3000  0.8791 -1.5319
13429TIP3   OH261701   0.569   0.588  15.832 -0.1084  0.2179  0.1380
13429TIP3    H161702   0.659   0.593  15.866 -0.5232  0.6441  1.1804
13429TIP3    H261703   0.525   0.526  15.889  0.5712 -3.0813 -2.8051
13430TIP3   OH261704   3.248   0.834   1.610 -0.4737 -0.0535  0.1209
13430TIP3    H161705   3.236   0.929   1.614  1.1488  0.1632  0.2212
13430TIP3    H261706   3.281   0.818   1.521  4.0053  0.0993  1.6247
13431TIP3   OH261707   5.347   6.750  14.618  0.4111  0.2844  0.4836
13431TIP3    H161708   5.353   6.834  14.665 -1.7365  0.7325  0.0226
13431TIP3    H261709   5.253   6.736  14.607  0.7707 -2.0633  0.2911
13432TIP3   OH261710   2.256   2.797   0.954 -0.5915  0.2693  0.2419
13432TIP3    H161711   2.250   2.843   1.038  0.6262  0.8086  0.0321
13432TIP3    H261712   2.345   2.763   0.950 -0.9042 -0.5046 -0.4541
13433TIP3   OH261713   1.778   1.394  11.777 -0.2942  0.5988  0.3591
13433TIP3    H161714   1.727   1.338  11.835  0.2064  0.6635  0.8698
13433TIP3    H261715   1.752   1.483  11.801 -0.0638  0.6264  0.5135
13434TIP3   OH261716   3.512   5.419   1.843  0.4585  0.2365  0.3334
13434TIP3    H161717   3.517   5.412   1.748  1.8479 -1.1684  0.4776
13434TIP3    H261718   3.502   5.513   1.860 -0.2403  0.4532 -1.2048
13435TIP3   OH261719   1.393   3.344  11.952  0.3142 -0.4920 -0.3315
13435TIP3    H161720   1.380   3.264  12.003 -1.8545 -0.0312 -0.1239
13435TIP3    H261721   1.424   3.314  11.867 -2.5264 -1.7272 -0.9768
13436TIP3   OH261722   4.031   5.320  12.256 -0.5122  0.5553 -0.2640
13436TIP3    H161723   3.962   5.365  12.304 -2.1805 -1.2430 -0.9013
13436TIP3    H261724   4.104   5.318  12.318 -1.9653  0.0038  1.5137
13437TIP3   OH261725   5.531   0.663   4.900 -0.2919  0.1900 -0.5610
13437TIP3    H161726   5.496   0.727   4.838  0.9815  0.6272 -0.8567
13437TIP3    H261727   5.565   0.593   4.844  1.2251  0.7732 -0.4028
13438TIP3   OH261728   3.201   6.014  16.248  0.1625  0.2503 -0.1938
13438TIP3    H161729   3.221   6.097  16.292  0.5534 -0.6095  1.2718
13438TIP3    H261730   3.283   5.965  16.250 -0.6565 -1.1059  1.0179
13439TIP3   OH261731   5.746   0.501  12.005  0.0587  0.2907 -0.0946
13439TIP3    H161732   5.806   0.571  12.031 -1.0055  1.2119 -0.0510
13439TIP3    H261733   5.659   0.536  12.025 -0.5414 -0.6621 -0.9816
13440TIP3   OH261734   2.054   4.271   2.982 -0.0852 -0.4851 -0.1889
13440TIP3    H161735   1.979   4.257   3.040  0.2910  0.7746  0.6256
13440TIP3    H261736   2.026   4.234   2.898 -1.4704 -0.3961  0.2137
13441TIP3   OH261737   2.150   4.950   3.242  0.2092  0.9801  0.4483
13441TIP3    H161738   2.155   5.045   3.232  0.9358  1.2129  2.6027
13441TIP3    H261739   2.202   4.915   3.170 -1.2308  2.1478 -1.2091
13442TIP3   OH261740   5.927   4.016  15.593 -0.2708  0.1077  0.7581
13442TIP3    H161741   6.017   4.041  15.570 -0.2122 -1.2673 -0.6161
13442TIP3    H261742   5.905   4.071  15.668  2.0250 -0.1614  1.6728
13443TIP3   OH261743   5.837   0.454  13.175  0.3717 -0.7135  0.0378
13443TIP3    H161744   5.839   0.545  13.147  2.4058 -0.2935  1.4822
13443TIP3    H261745   5.764   0.416  13.126 -1.3403  1.9878  0.3484
13444TIP3   OH261746   1.099   2.837  16.374 -0.1297 -0.5701  0.0257
13444TIP3    H161747   1.068   2.896  16.443  0.6738 -1.3135  1.0412
13444TIP3    H261748   1.190   2.862  16.361  0.2755 -1.7080  0.6075
13445TIP3   OH261749   2.086   0.605   4.471 -0.2075  0.0398  0.7467
13445TIP3    H161750   2.047   0.684   4.433 -0.9526 -0.1154  1.1747
13445TIP3    H261751   2.153   0.578   4.408 -1.8021 -0.5446 -0.7364
13446TIP3   OH261752   6.011   4.892  17.194 -0.1016 -0.0941  0.5811
13446TIP3    H161753   6.078   4.943  17.239 -0.5551  1.4505 -0.4527
13446TIP3    H261754   5.985   4.947  17.120 -1.2455 -1.4464 -0.0378
13447TIP3   OH261755   3.523   0.179   2.060  0.1649 -0.4173 -0.0668
13447TIP3    H161756   3.566   0.258   2.027  1.8989 -1.4065 -0.2612
13447TIP3    H261757   3.492   0.134   1.981  0.8433 -0.8429 -0.0978
13448TIP3   OH261758   2.508   2.454  12.374  0.3379 -0.3452  0.0253
13448TIP3    H161759   2.484   2.448  12.282  0.3754  2.3558 -0.2075
13448TIP3    H261760   2.426   2.475  12.419  0.8764  1.6007  0.1559
13449TIP3   OH261761   5.588   3.267  14.404 -0.6657 -0.2206  0.1623
13449TIP3    H161762   5.550   3.302  14.485  0.6100 -0.0813  0.7182
13449TIP3    H261763   5.603   3.344  14.349 -0.2417 -0.1662  0.3530
13450TIP3   OH261764   3.178   2.898  11.163 -0.1073  0.1940  0.1216
13450TIP3    H161765   3.261   2.854  11.146 -1.2493 -1.7061 -0.7378
13450TIP3    H261766   3.200   2.971  11.220  2.3108  0.3519 -0.9665
13451TIP3   OH261767   3.510   1.305   0.689  0.1414  0.1014 -0.4747
13451TIP3    H161768   3.463   1.285   0.770 -0.8163 -0.2907 -1.1167
13451TIP3    H261769   3.550   1.391   0.705 -1.0117  0.5569 -0.0113
13452TIP3   OH261770   0.578   4.357   6.617  0.1110  0.2425  0.5010
13452TIP3    H161771   0.540   4.436   6.581 -1.6510  0.3608  2.4787
13452TIP3    H261772   0.652   4.387   6.670 -0.3024  0.5538  0.9104
13453TIP3   OH261773   4.355   0.288  10.814 -0.7909  0.1105  0.5761
13453TIP3    H161774   4.407   0.357  10.773  0.2640 -0.8170  0.3489
13453TIP3    H261775   4.396   0.207  10.787 -2.6009 -0.6617  0.0697
13454TIP3   OH261776   1.689   1.351  13.886 -0.1945 -0.2410  0.1466
13454TIP3    H161777   1.668   1.420  13.823 -2.5859 -0.6151  0.5008
13454TIP3    H261778   1.772   1.379  13.925  0.8658  0.4583 -2.4888
13455TIP3   OH261779   6.246   2.266  10.607  0.1848 -0.3847  0.1192
13455TIP3    H161780   6.321   2.211  10.630  0.9219  1.0295  1.2137
13455TIP3    H261781   6.246   2.268  10.511  1.2078 -0.8446  0.1054
13456TIP3   OH261782   1.433   1.262   0.958  0.5372 -0.3373 -0.1255
13456TIP3    H161783   1.367   1.224   1.016 -0.0396  0.1044 -0.4899
13456TIP3    H261784   1.397   1.252   0.870  0.2565  1.2371 -0.2211
13457TIP3   OH261785   2.103   1.374   2.339 -0.2873 -0.2214  0.3614
13457TIP3    H161786   2.060   1.342   2.260 -0.5840  0.6316  0.1707
13457TIP3    H261787   2.159   1.302   2.367 -0.5798 -0.7203 -0.3339
13458TIP3   OH261788   1.122   3.779   6.056  0.2543  0.3429 -0.2708
13458TIP3    H161789   1.143   3.760   6.148 -1.1768  1.4073  0.2868
13458TIP3    H261790   1.126   3.693   6.013  0.5651 -0.2182  0.8544
13459TIP3   OH261791   0.136   0.258   2.259 -0.2485 -0.3301 -0.5166
13459TIP3    H161792   0.122   0.341   2.213 -0.0061  0.4174  0.7335
13459TIP3    H261793   0.221   0.269   2.301 -0.5314 -0.9413  0.2220
13460TIP3   OH261794   2.792   1.362  16.711  0.1470 -0.1036 -0.1604
13460TIP3    H161795   2.800   1.445  16.758 -2.0609  0.0167  0.0352
13460TIP3    H261796   2.783   1.296  16.779  2.6145 -0.6310 -0.2949
13461TIP3   OH261797   1.361   4.354   4.345  0.7904 -0.1830  0.2125
13461TIP3    H161798   1.282   4.375   4.394  0.3270  0.3559 -0.7595
13461TIP3    H261799   1.336   4.363   4.253  1.0272 -3.3538 -0.2086
13462TIP3   OH261800   5.516   5.087   0.783  0.5456  0.0894  0.7185
13462TIP3    H161801   5.434   5.048   0.752  1.2480 -2.4548  1.9471
13462TIP3    H261802   5.529   5.163   0.726 -0.4181 -1.9595 -2.3925
13463TIP3   OH261803   0.026   5.405   0.608  1.1663  0.4970  0.0386
13463TIP3    H161804   0.066   5.333   0.658 -0.9018 -0.2954  0.5809
13463TIP3    H261805   0.012   5.474   0.673 -0.8802 -0.2737  0.4532
13464TIP3   OH261806   3.284   6.685   0.489  0.4299  0.0519 -0.2126
13464TIP3    H161807   3.202   6.701   0.535  0.4396 -0.6390  0.0411
13464TIP3    H261808   3.260   6.686   0.396 -0.2364 -2.2034 -0.0887
13465TIP3   OH261809   2.989   2.353   2.156  0.2344  0.0871  0.6821
13465TIP3    H161810   3.013   2.295   2.229 -0.2842 -2.0252 -0.7900
13465TIP3    H261811   2.976   2.294   2.082 -1.6339  1.9859 -0.5335
13466TIP3   OH261812   3.094   3.911   3.883  0.4532 -0.1244 -0.3312
13466TIP3    H161813   3.147   3.962   3.821  1.2519  1.7963  1.8196
13466TIP3    H261814   3.024   3.971   3.909 -0.0927 -1.0348  0.3043
13467TIP3   OH261815   2.107   4.788  12.501 -0.0188 -0.0810 -0.7293
13467TIP3    H161816   2.149   4.870  12.476  1.1631 -0.6520 -0.6122
13467TIP3    H261817   2.115   4.784  12.597 -2.3133  0.8821 -0.4691
13468TIP3   OH261818   0.270   1.648   4.427  0.2975 -0.6327 -0.2054
13468TIP3    H161819   0.285   1.636   4.333 -2.6875 -0.2753 -0.7964
13468TIP3    H261820   0.234   1.737   4.433 -1.0269 -1.2493  1.0734
13469TIP3   OH261821   1.514   2.473   5.500 -0.1214 -0.2291  0.2696
13469TIP3    H161822   1.475   2.480   5.587  1.7374 -1.9768  1.2746
13469TIP3    H261823   1.516   2.379   5.482 -1.1022  0.1425 -1.9722
13470TIP3   OH261824   1.468   0.944  15.030  0.4509  0.1849 -0.1971
13470TIP3    H161825   1.500   0.888  14.959  1.6869  1.5510 -0.7567
13470TIP3    H261826   1.378   0.916  15.045  0.6123 -1.0103 -1.4124
13471TIP3   OH261827   1.132   6.016   0.066 -0.2664  0.1243  0.4181
13471TIP3    H161828   1.094   5.948   0.010 -1.0106 -0.1990  1.3151
13471TIP3    H261829   1.151   5.971   0.148  1.7807  0.3505  0.0962
13472TIP3   OH261830   1.078   0.186   5.878  0.0234 -0.8700 -0.3777
13472TIP3    H161831   1.120   0.164   5.961 -0.8738  0.8741  0.5701
13472TIP3    H261832   1.130   0.257   5.841 -1.0782  0.1607 -0.0038
13473TIP3   OH261833   3.416   0.577   5.495  0.2022  0.3775 -0.5958
13473TIP3    H161834   3.389   0.518   5.566  1.4148  0.3841 -0.1130
13473TIP3    H261835   3.388   0.533   5.415  0.5238 -0.5504 -0.2064
13474TIP3   OH261836   5.125   6.102   5.108 -0.4672  0.4387  0.1363
13474TIP3    H161837   5.130   6.189   5.068  1.7406  0.7076  0.9309
13474TIP3    H261838   5.121   6.119   5.202 -2.2100 -0.2869  0.2166
13475TIP3   OH261839   4.539   0.463  12.965  0.4895  0.3185 -0.3072
13475TIP3    H161840   4.554   0.518  13.043 -0.2248  0.0066  0.0571
13475TIP3    H261841   4.617   0.409  12.958  0.6116  0.4343  0.1275
13476TIP3   OH261842   4.009   2.257   0.617  0.1635 -0.0883 -0.4245
13476TIP3    H161843   3.967   2.342   0.601  0.0729 -0.0964 -0.2373
13476TIP3    H261844   4.103   2.277   0.615  0.1606  0.9039  3.9902
13477TIP3   OH261845   1.398   6.094   1.140  0.3041  0.5718 -0.3015
13477TIP3    H161846   1.349   6.042   1.075 -0.2465  0.1436  0.4441
13477TIP3    H261847   1.368   6.060   1.224  0.8282  1.3024  0.1789
13478TIP3   OH261848   3.700   4.526   1.273  0.1590  0.0362  0.3834
13478TIP3    H161849   3.778   4.581   1.270  0.6373 -0.3696  3.5478
13478TIP3    H261850   3.632   4.582   1.309 -0.2198 -0.4704  0.4712
13479TIP3   OH261851   6.472   1.319   3.819 -0.3411 -0.2073  0.1402
13479TIP3    H161852   6.476   1.301   3.725 -1.6392  1.8718 -0.3579
13479TIP3    H261853   6.563   1.324   3.848  0.1799  3.1234 -1.8490
13480TIP3   OH261854   2.051   3.655   1.828 -0.1864  0.0562 -0.6751
13480TIP3    H161855   1.961   3.683   1.807  0.4170  1.9926 -0.8431
13480TIP3    H261856   2.091   3.734   1.866  1.3667 -0.8728 -0.3726
13481TIP3   OH261857   3.066   5.049  14.306 -0.3096 -0.1496 -0.0897
13481TIP3    H161858   3.149   5.002  14.314 -0.6591 -0.7037  0.2919
13481TIP3    H261859   3.091   5.141  14.306  0.4136 -0.3408 -1.3505
13482TIP3   OH261860   6.367   3.395   4.182  0.1843 -0.3504 -0.0864
13482TIP3    H161861   6.384   3.365   4.092 -0.7701 -1.0021 -0.0511
13482TIP3    H261862   6.389   3.320   4.237 -0.2847 -0.3205  0.1458
13483TIP3   OH261863   4.690   5.289  16.199  0.0346 -0.1330  0.3687
13483TIP3    H161864   4.758   5.316  16.260 -0.1355 -0.4019  0.6784
13483TIP3    H261865   4.712   5.197  16.179  0.3897  0.1047 -0.3759
13484TIP3   OH261866   0.238   2.386   3.785 -0.0279  0.4342  0.1438
13484TIP3    H161867   0.204   2.449   3.722  1.7257  0.5725 -0.6950
13484TIP3    H261868   0.304   2.436   3.834  0.7082 -0.4846  0.0972
13485TIP3   OH261869   2.965   0.878   2.529 -0.2655  0.6212 -0.0747
13485TIP3    H161870   2.967   0.790   2.491 -1.3947  0.3563  0.4756
13485TIP3    H261871   3.025   0.928   2.474  0.4282 -0.5009 -0.3652
13486TIP3   OH261872   1.015   0.885  14.344  0.1046 -0.7231  0.5479
13486TIP3    H161873   0.995   0.935  14.423 -1.0257  2.0846 -1.4272
13486TIP3    H261874   1.102   0.916  14.318 -1.0111  1.0827 -1.2330
13487TIP3   OH261875   6.283   2.466  14.320 -0.2679  0.4808 -0.3287
13487TIP3    H161876   6.329   2.437  14.398 -1.3348  0.6743  0.3750
13487TIP3    H261877   6.204   2.509  14.352  0.8022  3.3395 -1.3762
13488TIP3   OH261878   0.590   4.424   5.326  0.0406 -0.2744 -0.0024
13488TIP3    H161879   0.574   4.414   5.233 -0.2679  3.0449 -0.3710
13488TIP3    H261880   0.530   4.361   5.368 -0.4200 -1.1832 -1.9794
13489TIP3   OH261881   5.129   6.138  11.109 -0.0572  0.1999  0.1401
13489TIP3    H161882   5.147   6.122  11.201  1.3645  2.0096  0.2067
13489TIP3    H261883   5.183   6.213  11.087 -0.3805 -0.2193 -2.1859
13490TIP3   OH261884   2.334   5.779   6.767 -0.2419 -0.4069  0.2428
13490TIP3    H161885   2.353   5.847   6.703  1.3182 -0.2528  0.8566
13490TIP3    H261886   2.318   5.826   6.849  2.1866 -0.8206  0.9871
13491TIP3   OH261887   4.487   3.942  15.981  0.0391 -0.3081 -0.0502
13491TIP3    H161888   4.474   4.013  15.918 -0.9525  0.5545  1.0909
13491TIP3    H261889   4.398   3.912  16.001  0.3132 -0.2191  1.3320
13492TIP3   OH261890   2.924   6.622   0.296  0.4265 -0.2179  0.6721
13492TIP3    H161891   2.888   6.666   0.219 -0.6054 -1.1514  0.6068
13492TIP3    H261892   2.942   6.533   0.266 -0.2269 -0.6575  1.5812
13493TIP3   OH261893   2.336   1.769  16.405  0.2407  0.0665  0.0157
13493TIP3    H161894   2.318   1.738  16.494 -0.4527  0.0846 -0.1143
13493TIP3    H261895   2.306   1.859  16.404 -0.5704 -0.2033 -0.4842
13494TIP3   OH261896   6.104   6.027  14.722  0.2937  0.7844  0.1308
13494TIP3    H161897   6.192   6.034  14.760  0.6465 -2.6555  0.0748
13494TIP3    H261898   6.071   5.942  14.753 -2.2642  1.1708 -1.4134
13495TIP3   OH261899   6.663   4.806   3.196  0.1682 -0.1210  0.3227
13495TIP3    H161900   6.618   4.884   3.229 -0.2691  0.1913 -1.0006
13495TIP3    H261901   6.756   4.827   3.204  0.0525  0.7032 -0.4041
13496TIP3   OH261902   2.542   2.494  15.569  0.2916  0.5974 -0.0706
13496TIP3    H161903   2.602   2.513  15.497 -1.1392 -0.1375 -1.4858
13496TIP3    H261904   2.583   2.421  15.616  1.0796  0.8754 -0.3289
13497TIP3   OH261905   1.446   1.004   4.756  0.0860  0.5727  0.0669
13497TIP3    H161906   1.465   0.993   4.849  0.9465  0.3533 -0.1279
13497TIP3    H261907   1.354   1.032   4.753 -0.5651 -1.4339  0.8575
13498TIP3   OH261908   0.584   0.305  16.477 -0.3834  0.1151 -0.2838
13498TIP3    H161909   0.532   0.248  16.534  0.3893  0.1151  0.4278
13498TIP3    H261910   0.567   0.272  16.389  0.3362 -1.4458  0.1522
13499TIP3   OH261911   4.274   0.964   0.433  0.1471  0.0076  0.1861
13499TIP3    H161912   4.249   1.002   0.518 -1.4899  1.5372 -0.9447
13499TIP3    H261913   4.349   1.015   0.404  0.7750 -0.5855  0.7447
13500TIP3   OH261914   3.354   1.172   2.290 -0.1824  0.1126 -0.2709
13500TIP3    H161915   3.422   1.238   2.273 -0.8956  0.8375 -0.3750
13500TIP3    H261916   3.394   1.112   2.353  1.1492 -0.4313 -1.5821
13501TIP3   OH261917   3.918   6.299   6.203 -0.2207  0.0191 -0.1239
13501TIP3    H161918   3.915   6.212   6.243  1.2659 -0.1305 -0.3035
13501TIP3    H261919   3.981   6.347   6.257 -1.0887  1.0060  0.0154
13502TIP3   OH261920   5.740   5.960   0.420  0.2390  0.3745  0.2360
13502TIP3    H161921   5.685   5.884   0.402  1.3818 -0.8707  1.8454
13502TIP3    H261922   5.679   6.027   0.450 -0.5956 -0.4504  0.3938
13503TIP3   OH261923   0.233   1.426  11.950 -0.0462 -0.5490 -0.4334
13503TIP3    H161924   0.189   1.506  11.922  0.3739 -0.3922 -0.6534
13503TIP3    H261925   0.174   1.388  12.015 -0.5004 -0.3393 -0.7193
13504TIP3   OH261926   0.143   5.174  12.562  0.2677  0.4313  0.3807
13504TIP3    H161927   0.220   5.167  12.505 -0.6723 -2.4378 -0.6108
13504TIP3    H261928   0.151   5.100  12.623 -1.1037  0.7937  1.0334
13505TIP3   OH261929   6.583   1.942  12.330  0.3620 -0.1781  0.9604
13505TIP3    H161930   6.601   2.000  12.404  0.1516 -1.1091  1.7366
13505TIP3    H261931   6.514   1.884  12.361  0.4483 -0.7355  0.1135
13506TIP3   OH261932   6.214   4.656  11.782 -0.3210 -0.2841 -0.1383
13506TIP3    H161933   6.196   4.750  11.781  1.1472  0.0205  1.0866
13506TIP3    H261934   6.210   4.630  11.690 -0.6884  0.9828 -0.4915
13507TIP3   OH261935   1.791   2.462  13.042 -0.1048 -0.7574  0.2687
13507TIP3    H161936   1.714   2.469  13.100  0.8506 -0.1450  1.4821
13507TIP3    H261937   1.778   2.379  12.996 -0.7970 -1.3759  1.5259
13508TIP3   OH261938   6.153   2.663  15.812  0.0852 -0.0094 -0.2259
13508TIP3    H161939   6.210   2.604  15.762 -0.2281 -1.2023  0.7857
13508TIP3    H261940   6.087   2.605  15.850 -0.2876  1.0213  0.7057
13509TIP3   OH261941   6.143   4.526   1.881  0.7483 -0.2620 -0.0346
13509TIP3    H161942   6.117   4.500   1.793  0.2810 -0.4840  0.1708
13509TIP3    H261943   6.237   4.543   1.873  1.2436 -2.8590  0.0238
13510TIP3   OH261944   4.341   2.190  10.536  0.0278 -0.1384  0.0399
13510TIP3    H161945   4.268   2.239  10.576 -2.2074 -1.1913 -2.6223
13510TIP3    H261946   4.341   2.106  10.582  0.1060  0.1524  0.5853
13511TIP3   OH261947   6.562   0.584  13.340 -0.7283 -0.0222  0.3812
13511TIP3    H161948   6.467   0.590  13.340 -0.7913 -0.7443 -1.1367
13511TIP3    H261949   6.586   0.579  13.247  0.8077  0.4879  0.7251
13512TIP3   OH261950   1.019   4.055   5.547  0.1108 -0.1390 -0.4218
13512TIP3    H161951   0.962   3.995   5.595  0.1483 -0.1969 -0.4497
13512TIP3    H261952   1.055   4.002   5.476  0.1126 -0.0721 -0.4701
13513TIP3   OH261953   2.057   1.156   0.327  0.2666 -0.1780  0.9784
13513TIP3    H161954   2.130   1.215   0.308 -0.3424 -0.4412 -2.3808
13513TIP3    H261955   1.980   1.203   0.295 -0.5687 -1.5705  0.9234
13514TIP3   OH261956   3.122   3.818  15.260 -0.2318 -0.2424 -0.6944
13514TIP3    H161957   3.147   3.859  15.177 -1.6892 -0.4950 -1.2788
13514TIP3    H261958   3.087   3.732  15.235  1.7572 -1.4168  0.4228
13515TIP3   OH261959   6.212   2.496   5.372 -0.1935 -0.2565  0.1255
13515TIP3    H161960   6.225   2.509   5.466  0.7024  1.6435 -0.2434
13515TIP3    H261961   6.299   2.508   5.334 -1.1989  2.8010 -1.3254
13516TIP3   OH261962   1.193   0.416  12.755  0.2635  0.0433 -0.1083
13516TIP3    H161963   1.122   0.427  12.692 -0.8357 -0.2073  1.0530
13516TIP3    H261964   1.212   0.504  12.786  0.6155  0.1368 -0.6031
13517TIP3   OH261965   1.512   6.485  13.802 -0.3758 -0.1855 -0.1255
13517TIP3    H161966   1.488   6.525  13.719  1.6976  1.1091 -0.1324
13517TIP3    H261967   1.448   6.518  13.865 -1.1702 -0.1611 -0.9365
13518TIP3   OH261968   0.573   1.448   1.671 -0.0982  0.0502 -0.8332
13518TIP3    H161969   0.625   1.471   1.748 -1.1268  1.1600 -0.4651
13518TIP3    H261970   0.635   1.404   1.613  0.5250 -1.4124  0.9075
13519TIP3   OH261971   4.518   1.994   5.037  0.3138 -0.1297 -0.0598
13519TIP3    H161972   4.496   1.902   5.050 -0.2877  0.3073  2.3355
13519TIP3    H261973   4.591   2.010   5.097  0.2061  1.0223 -0.2289
13520TIP3   OH261974   4.742   1.306  12.861 -0.6825 -0.2302  0.5665
13520TIP3    H161975   4.792   1.282  12.939  0.1083 -0.2580  0.0628
13520TIP3    H261976   4.651   1.292  12.885 -0.4170 -0.6180  1.3547
13521TIP3   OH261977   1.755   3.434  12.364 -0.4129  0.2580 -0.3450
13521TIP3    H161978   1.775   3.341  12.352 -2.1005 -0.1912  0.0919
13521TIP3    H261979   1.660   3.439  12.350 -0.4649  1.7787  0.4675
13522TIP3   OH261980   3.434   5.212   4.623 -0.3619 -0.0847 -0.6023
13522TIP3    H161981   3.502   5.236   4.560  0.5070 -0.1523  0.3042
13522TIP3    H261982   3.409   5.123   4.598 -0.0415 -0.0972 -0.8801
13523TIP3   OH261983   2.737   4.513  11.288  0.7970 -0.7645 -0.2156
13523TIP3    H161984   2.822   4.550  11.310  0.1599  1.6218 -1.5777
13523TIP3    H261985   2.735   4.514  11.193 -1.1534  0.2221 -0.1892
13524TIP3   OH261986   4.883   2.955   1.301  0.4077 -0.0883  0.7980
13524TIP3    H161987   4.892   2.986   1.211  1.0844  1.5023  1.3812
13524TIP3    H261988   4.947   2.884   1.309  1.3926  0.7376  0.4252
13525TIP3   OH261989   5.568   0.823  15.409  0.5291 -0.7652 -0.3814
13525TIP3    H161990   5.608   0.855  15.490 -0.1255 -1.9302  0.4097
13525TIP3    H261991   5.637   0.831  15.344  0.3518  2.4523 -0.2889
13526TIP3   OH261992   6.617   3.395   4.900 -0.5207  0.2153  0.5414
13526TIP3    H161993   6.669   3.329   4.944 -1.0837  0.4329  1.5509
13526TIP3    H261994   6.535   3.351   4.878 -0.3710  0.1994  0.0074
13527TIP3   OH261995   4.145   6.360  10.749  0.6418 -0.3210  0.4954
13527TIP3    H161996   4.186   6.298  10.689 -0.2261  0.1611 -0.6227
13527TIP3    H261997   4.090   6.415  10.693 -2.5968 -1.7868  2.0981
13528TIP3   OH261998   6.630   1.553  12.249 -0.8020 -0.5340  0.3724
13528TIP3    H161999   6.538   1.572  12.268 -0.7505 -0.5570  0.6539
13528TIP3    H262000   6.646   1.594  12.164 -1.6474 -2.3799 -0.6912
13529TIP3   OH262001   0.210   5.227  15.155 -0.2118 -0.0001 -0.4147
13529TIP3    H162002   0.161   5.305  15.133  0.7706  0.3413 -1.4291
13529TIP3    H262003   0.274   5.217  15.084  1.5482 -0.1229  1.1491
13530TIP3   OH262004   2.287   0.783  15.872 -0.0943 -0.2975  0.3333
13530TIP3    H162005   2.206   0.764  15.920 -0.8879 -0.1203 -0.8849
13530TIP3    H262006   2.357   0.770  15.935 -0.9941 -1.7982  1.0314
13531TIP3   OH262007   1.454   2.384   4.252  0.1248  0.6909  0.3532
13531TIP3    H162008   1.519   2.431   4.198  0.0578 -0.4124 -0.7156
13531TIP3    H262009   1.504   2.314   4.294 -0.5955 -0.9986 -1.5230
13532TIP3   OH262010   3.332   6.015   5.853  0.3517 -0.0059  0.2189
13532TIP3    H162011   3.383   6.061   5.920  0.2526  1.4352 -0.6672
13532TIP3    H262012   3.394   5.955   5.812  0.6991 -0.0625  0.8205
13533TIP3   OH262013   2.192   0.409  16.470  0.1819  0.5202 -0.2610
13533TIP3    H162014   2.182   0.465  16.393  0.4016  0.9018 -0.0137
13533TIP3    H262015   2.223   0.468  16.539 -1.7523  0.5513  0.6094
13534TIP3   OH262016   6.211   1.766  12.968 -0.9401 -0.0168 -0.2094
13534TIP3    H162017   6.195   1.853  12.931  0.9492  0.1796 -0.6084
13534TIP3    H262018   6.261   1.782  13.048 -0.9551 -0.7138 -0.0562
13535TIP3   OH262019   1.458   5.503   0.714 -0.6316  0.1693  0.0563
13535TIP3    H162020   1.395   5.569   0.685  1.1457  2.2164  0.7357
13535TIP3    H262021   1.525   5.552   0.762  1.8757 -1.8158 -1.2464
13536TIP3   OH262022   1.199   2.705  11.907 -0.0932 -1.0550  0.2210
13536TIP3    H162023   1.108   2.675  11.903  0.1138 -1.5954 -0.8244
13536TIP3    H262024   1.246   2.635  11.953 -0.1158 -1.0495  0.2514
13537TIP3   OH262025   3.836   2.863  14.541  0.2658  0.4848  0.1566
13537TIP3    H162026   3.853   2.839  14.632 -0.4401 -0.5079  0.0374
13537TIP3    H262027   3.741   2.853  14.531  0.1737  1.7852 -0.3509
13538TIP3   OH262028   0.042   1.621  14.689  0.8307  0.0681  0.1942
13538TIP3    H162029  -0.024   1.552  14.683  1.2751 -0.3964  0.6163
13538TIP3    H262030   0.037   1.667  14.606 -0.6027  0.5499  0.5295
13539TIP3   OH262031   3.314   1.093  12.296 -0.1241 -0.6123  0.5529
13539TIP3    H162032   3.386   1.138  12.341 -0.0159 -1.1419  0.9054
13539TIP3    H262033   3.237   1.147  12.314  0.0821 -0.3456  0.6385
13540TIP3   OH262034   3.866   3.801   5.428  0.4266 -0.3226 -0.6017
13540TIP3    H162035   3.952   3.792   5.469  0.5963  0.4267 -0.7966
13540TIP3    H262036   3.809   3.832   5.498  0.1957 -1.2909 -0.3451
13541TIP3   OH262037   3.780   4.712  13.180  0.0038 -0.5102 -0.0723
13541TIP3    H162038   3.720   4.673  13.244 -2.3393 -0.3812 -2.1177
13541TIP3    H262039   3.811   4.792  13.222  0.7444 -1.8715  2.0467
13542TIP3   OH262040   2.277   1.024   1.755 -0.4401  0.3434 -0.5358
13542TIP3    H162041   2.216   0.949   1.756 -0.3405  0.2709  1.5531
13542TIP3    H262042   2.359   0.989   1.790 -0.7540  1.7129  1.6427
13543TIP3   OH262043   2.610   5.484   2.907 -0.6776 -0.4150  1.0239
13543TIP3    H162044   2.661   5.473   2.826 -1.6030  0.0516  0.3596
13543TIP3    H262045   2.652   5.426   2.970  0.8617  0.1811  0.5785
13544TIP3   OH262046   2.628   2.530   6.355  0.4142  0.2029 -0.2591
13544TIP3    H162047   2.678   2.451   6.338  1.2080  0.4915  0.6644
13544TIP3    H262048   2.686   2.584   6.409 -1.1491  0.2357  1.4532
13545TIP3   OH262049   5.978   3.402   1.106 -0.5745 -0.3922 -0.0405
13545TIP3    H162050   5.911   3.370   1.168 -0.9466  0.8706  0.2208
13545TIP3    H262051   5.933   3.403   1.021 -1.1136  1.1237  0.2527
13546TIP3   OH262052   3.340   2.163  14.040  0.0803  0.4568 -0.0404
13546TIP3    H162053   3.315   2.224  13.971 -0.6146  0.3520  0.1140
13546TIP3    H262054   3.258   2.140  14.082  0.5724  1.1370  1.3385
13547TIP3   OH262055   4.356   0.081  14.748  0.5842 -0.1957  0.4970
13547TIP3    H162056   4.431   0.033  14.713  1.0250  1.3053 -0.6762
13547TIP3    H262057   4.317   0.124  14.672 -1.0213 -0.3355  1.2113
13548TIP3   OH262058   3.565   0.234   5.307 -0.8214 -0.3930 -0.1469
13548TIP3    H162059   3.514   0.313   5.291  1.5249  0.6770 -2.6103
13548TIP3    H262060   3.627   0.258   5.375 -0.3081 -0.1878 -0.6834
13549TIP3   OH262061   1.096   1.309   0.768  0.1754  0.4225 -0.1399
13549TIP3    H162062   1.118   1.217   0.783  0.3388  0.6514  1.0793
13549TIP3    H262063   1.171   1.357   0.804 -1.7730  1.1892  3.1766
13550TIP3   OH262064   0.717   1.874  11.511 -0.0032 -0.3258  0.1419
13550TIP3    H162065   0.792   1.933  11.506  0.7924 -1.2937  0.3418
13550TIP3    H262066   0.749   1.792  11.474 -0.6889 -1.0072  1.0299
13551TIP3   OH262067   6.186   4.206  11.599 -0.0848  0.2129 -0.1135
13551TIP3    H162068   6.101   4.165  11.618 -0.5156  0.0760 -2.1958
13551TIP3    H262069   6.241   4.133  11.570 -0.0652  0.7005 -1.3136
13552TIP3   OH262070   6.362   3.868  11.276  0.3212  0.3006 -0.2680
13552TIP3    H162071   6.418   3.793  11.254  0.1753  0.6384 -1.8038
13552TIP3    H262072   6.347   3.912  11.193 -1.6955  0.5951  0.2373
13553TIP3   OH262073   5.733   4.505   1.065  0.1080 -0.1396 -0.1407
13553TIP3    H162074   5.812   4.451   1.070  0.1646 -0.0052  0.5031
13553TIP3    H262075   5.694   4.483   0.981  0.5354 -0.6233 -0.2160
13554TIP3   OH262076   6.098   3.050   1.198 -0.1883  0.3127  0.7246
13554TIP3    H162077   6.041   3.126   1.194  0.6833  0.9288 -0.4815
13554TIP3    H262078   6.164   3.073   1.264  0.6881  1.0594 -0.3900
13555TIP3   OH262079   2.526   4.933  14.503  0.4012  0.1648  0.5071
13555TIP3    H162080   2.491   4.862  14.556 -0.0400  0.3562  0.4727
13555TIP3    H262081   2.605   4.962  14.549  0.2518  0.0477  0.8314
13556TIP3   OH262082   5.356   5.043  13.352 -0.2019 -0.3925 -0.3769
13556TIP3    H162083   5.424   5.105  13.325 -0.4093  1.4673  3.1263
13556TIP3    H262084   5.405   4.967  13.385  0.2062  0.5037  1.1293
13557TIP3   OH262085   0.601   2.283  17.041  0.5634 -0.3525  0.1587
13557TIP3    H162086   0.691   2.260  17.015  0.3659 -0.3336 -0.5599
13557TIP3    H262087   0.608   2.307  17.133  1.5396  1.0549 -0.2723
13558TIP3   OH262088   4.949   3.680  16.134  0.2137 -0.3106  0.7269
13558TIP3    H162089   4.903   3.679  16.217  1.2427  0.3295  1.3245
13558TIP3    H262090   4.895   3.628  16.075 -0.9667 -0.0313  1.5584
13559TIP3   OH262091   3.542   6.684  15.724  0.5021  0.3507 -0.5035
13559TIP3    H162092   3.627   6.682  15.679  1.1635  1.5190  0.6249
13559TIP3    H262093   3.561   6.650  15.812  0.1308  1.9701  0.2307
13560TIP3   OH262094   1.187   6.627   5.831  0.6401  0.5348  0.2090
13560TIP3    H162095   1.098   6.655   5.851 -0.2821 -2.8793  1.2172
13560TIP3    H262096   1.234   6.639   5.914  0.3162 -0.6056  0.5623
13561TIP3   OH262097   5.892   2.507  13.603 -0.5105 -0.5263  0.1947
13561TIP3    H162098   5.947   2.552  13.538 -1.6874  1.0771  0.2780
13561TIP3    H262099   5.951   2.490  13.677  0.3497 -0.5889 -0.4983
13562TIP3   OH262100   5.576   5.736  17.063  0.3110  1.0200 -0.0608
13562TIP3    H162101   5.513   5.791  17.109 -0.1897  1.1628 -0.9003
13562TIP3    H262102   5.554   5.747  16.971 -0.9138 -1.8517 -0.2009
13563TIP3   OH262103   0.498   6.628   5.698 -0.2173 -0.0116 -0.2007
13563TIP3    H162104   0.541   6.633   5.784 -0.1543 -0.3122 -0.2163
13563TIP3    H262105   0.466   6.538   5.692  2.0127 -0.7354 -1.5838
13564TIP3   OH262106   1.037   1.991   3.648 -0.3243  0.1582  0.3614
13564TIP3    H162107   1.104   1.991   3.580 -1.8647 -1.7295 -1.2413
13564TIP3    H262108   1.051   1.909   3.696 -2.8127 -1.3850 -1.4257
13565TIP3   OH262109   2.817   4.624  15.261 -0.2207 -0.1195  0.5008
13565TIP3    H162110   2.911   4.605  15.252 -0.1000  0.3792  0.7155
13565TIP3    H262111   2.781   4.606  15.174  0.2266  0.5265  0.1734
13566TIP3   OH262112   0.601   5.675  12.672 -0.2889 -0.4782  0.3548
13566TIP3    H162113   0.605   5.650  12.764 -1.2387 -0.4561  0.4023
13566TIP3    H262114   0.528   5.625  12.637 -0.1803 -0.1789 -0.2973
13567TIP3   OH262115   1.829   5.009  11.604  0.7784  0.2944  0.0410
13567TIP3    H162116   1.794   4.940  11.661  0.1513 -0.2850 -1.0180
13567TIP3    H262117   1.914   4.976  11.576 -0.0329 -0.6050 -1.4115
13568TIP3   OH262118   3.327   5.052  15.745 -0.2028  0.0410  0.2327
13568TIP3    H162119   3.238   5.088  15.745 -0.6129 -0.9685  0.0825
13568TIP3    H262120   3.380   5.118  15.790 -0.9641  0.7991  0.0238
13569TIP3   OH262121   4.145   1.639   3.115 -0.0782  0.0006  0.1134
13569TIP3    H162122   4.231   1.602   3.094 -0.5743 -1.2015  0.1168
13569TIP3    H262123   4.146   1.726   3.075  0.8950 -0.2530 -0.4523
13570TIP3   OH262124   5.108   4.849   2.697  0.1988  0.2633 -0.4036
13570TIP3    H162125   5.192   4.883   2.666  0.1213  2.2958  1.5240
13570TIP3    H262126   5.122   4.829   2.789 -0.0317 -4.2269 -1.2333
13571TIP3   OH262127   2.920   6.533  16.061 -0.4689  0.2961 -0.6687
13571TIP3    H162128   3.009   6.545  16.029  0.0104 -0.2583  0.4342
13571TIP3    H262129   2.898   6.617  16.102  1.2689 -0.9962  3.1386
13572TIP3   OH262130   0.791   0.677   5.414 -0.6398 -0.1702  0.3959
13572TIP3    H162131   0.847   0.653   5.339 -1.5643 -0.5421 -0.1805
13572TIP3    H262132   0.766   0.767   5.397 -0.5494 -0.1338  0.4513
13573TIP3   OH262133   3.667   0.421   2.040 -1.3567  0.0932  0.1306
13573TIP3    H162134   3.657   0.460   1.953 -1.8052  2.2910  1.1228
13573TIP3    H262135   3.740   0.470   2.080 -2.6090  0.6597  1.7920
13574TIP3   OH262136   4.077   5.487   3.773  0.0109 -0.1588  0.0310
13574TIP3    H162137   4.129   5.465   3.696  1.1261  0.6743  0.5389
13574TIP3    H262138   4.141   5.508   3.841 -0.9483 -1.4883  1.3740
13575TIP3   OH262139   1.827   2.625  12.228 -0.1722 -0.3658  0.4011
13575TIP3    H162140   1.899   2.602  12.169 -0.6000 -0.5934 -0.0439
13575TIP3    H262141   1.786   2.702  12.187 -0.9068 -0.9507  0.0155
13576TIP3   OH262142   4.577   5.308  16.581 -0.1617 -1.0156  0.0764
13576TIP3    H162143   4.613   5.222  16.561 -0.7054 -1.5474  1.3328
13576TIP3    H262144   4.590   5.318  16.676  0.8153  0.7111 -0.2160
13577TIP3   OH262145   0.829   2.098   3.065 -0.2688 -0.2572 -0.1564
13577TIP3    H162146   0.735   2.100   3.082 -0.1130  0.9427  0.5683
13577TIP3    H262147   0.851   2.187   3.039  0.5588 -0.6874 -0.9532
13578TIP3   OH262148   4.630   0.029  14.651  0.1305  0.3226  0.6648
13578TIP3    H162149   4.716  -0.007  14.627 -0.8525 -1.8844  0.3088
13578TIP3    H262150   4.591   0.054  14.567 -2.3507 -5.2096 -0.0595
13579TIP3   OH262151   3.030   0.425  12.143 -0.1207  0.1156 -0.2261
13579TIP3    H162152   3.038   0.474  12.225 -1.3619  0.5130 -0.3289
13579TIP3    H262153   3.087   0.349  12.155 -1.1277 -0.4100  1.4552
13580TIP3   OH262154   5.076   1.720  13.706 -0.5249  0.2201 -0.5729
13580TIP3    H162155   5.130   1.741  13.631  0.3804 -1.7010 -0.4931
13580TIP3    H262156   4.990   1.758  13.686  0.6413  2.7094 -0.9859
13581TIP3   OH262157   3.079   5.299  16.641 -0.3135 -0.5615 -0.6571
13581TIP3    H162158   2.989   5.312  16.613 -0.2531  1.2498 -0.1283
13581TIP3    H262159   3.131   5.347  16.577 -0.1086  2.7492  1.8548
13582TIP3   OH262160   4.259   5.344   1.973  0.0852  0.1552  0.0405
13582TIP3    H162161   4.351   5.371   1.969  0.2025 -0.1999  0.2723
13582TIP3    H262162   4.235   5.357   2.065 -0.1282  0.3442 -0.0422
13583TIP3   OH262163   2.804   0.402   2.566 -0.2995 -0.5326 -0.3957
13583TIP3    H162164   2.717   0.440   2.549  0.7325  2.5916  0.8816
13583TIP3    H262165   2.786   0.310   2.586 -2.9488 -0.7976 -3.5273
13584TIP3   OH262166   0.491   0.961  10.835  0.0013 -0.0588  0.1360
13584TIP3    H162167   0.543   1.039  10.855  1.6445 -0.3531 -2.7096
13584TIP3    H262168   0.402   0.984  10.861  1.0196  1.5056  2.4414
13585TIP3   OH262169   6.597   0.704  11.204 -0.1259  0.6079  0.1534
13585TIP3    H162170   6.580   0.615  11.236  0.8908  0.7919  1.2346
13585TIP3    H262171   6.591   0.758  11.283  0.7308  1.3036 -0.2579
13586TIP3   OH262172   1.733   0.762  11.343  0.3450 -0.4461  0.1420
13586TIP3    H162173   1.747   0.802  11.429 -1.3072  1.4575 -0.4156
13586TIP3    H262174   1.641   0.779  11.324  0.0436 -3.0607 -0.9319
13587TIP3   OH262175   4.888   2.392  11.510  0.1543  0.0169  0.6173
13587TIP3    H162176   4.816   2.400  11.447  1.7463 -0.9314 -1.3781
13587TIP3    H262177   4.946   2.466  11.490 -0.8979  1.6077  3.1458
13588TIP3   OH262178   3.406   5.715   2.240 -0.0855 -0.4316  0.4294
13588TIP3    H162179   3.451   5.775   2.180  1.7430  0.4772  2.6416
13588TIP3    H262180   3.475   5.655   2.269 -0.8657 -0.6497  1.8667
13589TIP3   OH262181   4.392   0.052  12.151 -0.0638  0.0302  0.0962
13589TIP3    H162182   4.439  -0.003  12.088 -1.3591 -0.6829 -0.2661
13589TIP3    H262183   4.460   0.105  12.193  0.8987 -0.0973 -1.3044
13590TIP3   OH262184   2.204   5.573  13.684  0.2351  0.2885 -0.3677
13590TIP3    H162185   2.224   5.494  13.735  1.0209 -0.2447 -1.4809
13590TIP3    H262186   2.214   5.645  13.747 -0.1735 -0.4589  0.5823
13591TIP3   OH262187   5.582   1.422  12.704  0.1153  0.4504  0.3585
13591TIP3    H162188   5.556   1.501  12.749 -0.5164  0.5617 -0.1889
13591TIP3    H262189   5.560   1.438  12.612  1.1242  0.1266  0.0503
13592TIP3   OH262190   6.251   2.736   0.851 -0.3984 -0.3294  0.2305
13592TIP3    H162191   6.202   2.660   0.884  1.8307 -1.9189  0.0219
13592TIP3    H262192   6.261   2.793   0.927  0.5939 -1.7239  1.1602
13593TIP3   OH262193   2.902   6.407  11.140  0.3310 -0.0523  0.0936
13593TIP3    H162194   2.889   6.315  11.120 -0.1855  0.1865 -0.6819
13593TIP3    H262195   2.814   6.441  11.155  0.2509  0.9232 -2.3257
13594TIP3   OH262196   2.086   4.985  14.037  0.1630 -0.0085 -0.6773
13594TIP3    H162197   2.003   4.987  14.084  0.3053  1.1151 -0.4612
13594TIP3    H262198   2.069   5.037  13.958  0.4917 -0.2646 -0.9145
13595TIP3   OH262199   3.782   4.158  14.037 -0.4391  0.1677 -0.2006
13595TIP3    H162200   3.784   4.231  13.975 -2.3456  0.0139 -0.4492
13595TIP3    H262201   3.751   4.083  13.986 -3.2276  0.3183  1.1955
13596TIP3   OH262202   1.026   0.174  13.055 -0.3102  0.9010 -0.8160
13596TIP3    H162203   1.059   0.262  13.074  0.2563  0.5977 -0.3794
13596TIP3    H262204   0.953   0.162  13.115  0.4242  0.5852  0.0263
13597TIP3   OH262205   5.089   1.715   2.873 -0.0158 -0.1863  0.3183
13597TIP3    H162206   5.122   1.797   2.837 -0.7440  0.3919  0.9605
13597TIP3    H262207   4.999   1.735   2.901 -1.3217 -1.9756 -2.3547
13598TIP3   OH262208   5.566   3.443   1.751 -0.4821  0.1041 -0.1995
13598TIP3    H162209   5.502   3.514   1.746 -0.2602  0.3269  0.1250
13598TIP3    H262210   5.572   3.410   1.661 -0.7002  0.3934 -0.3204
13599TIP3   OH262211   1.784   2.435  11.044 -0.0735 -0.4996 -0.1066
13599TIP3    H162212   1.826   2.449  11.129 -0.9915  0.9703  0.1300
13599TIP3    H262213   1.691   2.446  11.061 -0.2252  0.3401 -1.3914
13600TIP3   OH262214   5.835   5.089  15.356  0.3560  0.5117 -0.2303
13600TIP3    H162215   5.793   5.052  15.434  0.4084  0.1982 -0.3508
13600TIP3    H262216   5.915   5.037  15.346  1.4217  1.9340  0.7501
13601TIP3   OH262217   1.857   0.962   0.065 -0.2215 -0.1527 -0.4590
13601TIP3    H162218   1.898   0.965   0.151 -1.5581  2.4921  0.1399
13601TIP3    H262219   1.905   0.894   0.018  0.7645 -1.3862  2.2356
13602TIP3   OH262220   0.388   1.307  11.291 -0.6300  0.3502 -0.1064
13602TIP3    H162221   0.339   1.259  11.225  0.1869 -0.0892 -0.3902
13602TIP3    H262222   0.479   1.301  11.263 -0.1833 -0.5020  1.4699
13603TIP3   OH262223   2.582   0.532   4.283 -0.2529 -0.0367 -0.9969
13603TIP3    H162224   2.489   0.550   4.271 -0.8825 -2.2770  0.2603
13603TIP3    H262225   2.615   0.518   4.194 -0.8093  2.0484 -1.5618
13604TIP3   OH262226   2.488   0.078  12.144  0.7120  0.0421  0.5322
13604TIP3    H162227   2.403   0.117  12.123  0.9644  0.4526  0.2632
13604TIP3    H262228   2.467  -0.003  12.191  0.1901  1.3415  2.6302
13605TIP3   OH262229   3.431   3.051   3.005  0.0355 -0.2651 -0.3611
13605TIP3    H162230   3.499   3.118   2.998 -0.7544  0.5508 -0.3211
13605TIP3    H262231   3.478   2.972   3.030  1.1381 -0.0121 -1.5334
13606TIP3   OH262232   2.455   6.751  11.882 -0.0284  0.5761  0.3432
13606TIP3    H162233   2.380   6.773  11.936 -1.4001  0.4574 -1.4629
13606TIP3    H262234   2.473   6.831  11.833 -1.2731 -0.4500 -1.8610
13607TIP3   OH262235   6.427   1.439   0.973 -0.4755 -0.1989 -0.5668
13607TIP3    H162236   6.342   1.419   0.933 -0.8715 -0.4502  0.4017
13607TIP3    H262237   6.419   1.530   1.001 -0.8992 -0.6224  0.7192
13608TIP3   OH262238   0.377   0.408  12.964  0.1693 -0.4021 -0.2548
13608TIP3    H162239   0.293   0.366  12.984  1.2293 -2.3168  0.3653
13608TIP3    H262240   0.401   0.374  12.878  0.9881 -1.0493  0.2113
13609TIP3   OH262241   3.038   0.590   2.470  0.0266 -0.8319  0.5820
13609TIP3    H162242   2.971   0.532   2.505  0.7829 -0.8854  1.9838
13609TIP3    H262243   3.112   0.533   2.449  1.1790 -0.2955  2.9711
13610TIP3   OH262244   3.035   4.656   2.584 -0.4761 -0.1957 -0.4488
13610TIP3    H162245   2.944   4.683   2.576 -0.6318 -1.1876 -2.1748
13610TIP3    H262246   3.040   4.613   2.669 -1.5820 -0.0221 -0.2914
13611TIP3   OH262247   2.805   6.087  16.476  0.0207  0.2491 -0.5467
13611TIP3    H162248   2.886   6.068  16.523  0.6594  0.9681 -1.3307
13611TIP3    H262249   2.780   6.004  16.437  1.1880  0.3273 -1.5148
13612TIP3   OH262250   1.045   5.009  15.183 -0.2797  0.2755  1.0865
13612TIP3    H162251   1.047   4.943  15.251 -0.6115  0.1636  0.9846
13612TIP3    H262252   1.083   5.087  15.224  2.4268 -0.6584  0.4895
13613TIP3   OH262253   4.879   3.731  13.516 -0.3865 -0.3334 -0.5747
13613TIP3    H162254   4.818   3.712  13.587 -0.3070  0.9549 -0.1476
13613TIP3    H262255   4.949   3.782  13.557 -0.0495 -0.0691 -1.4613
13614TIP3   OH262256   3.119   5.046  16.459 -0.0498  0.0348  0.0944
13614TIP3    H162257   3.106   5.002  16.375 -1.1730 -0.6422  0.6180
13614TIP3    H262258   3.183   5.115  16.440  0.8297 -1.0574 -0.9894
13615TIP3   OH262259   1.905   3.225  14.897  0.0253 -0.6796  0.1210
13615TIP3    H162260   1.962   3.150  14.917 -0.2581 -1.5487 -2.1643
13615TIP3    H262261   1.818   3.187  14.885 -0.0319 -0.0755 -1.5150
13616TIP3   OH262262   0.120   3.382   2.237  0.1797  0.4758  0.3908
13616TIP3    H162263   0.047   3.331   2.201 -0.8770  0.4112  2.5444
13616TIP3    H262264   0.079   3.448   2.292  1.7533 -0.3119  2.5941
13617TIP3   OH262265   3.258   0.668  13.607  0.1481  0.0993  0.0753
13617TIP3    H162266   3.182   0.722  13.628  0.4796  0.5875  0.0223
13617TIP3    H262267   3.305   0.717  13.540  0.1218 -0.5483 -0.4296
13618TIP3   OH262268   2.646   5.012   4.969  0.5787  0.1642  0.0621
13618TIP3    H162269   2.708   5.032   4.898  0.2675  1.4550  0.1458
13618TIP3    H262270   2.576   5.076   4.959  0.6351  0.5014  1.6598
13619TIP3   OH262271   6.656   0.950   6.553 -0.4285 -0.6095 -0.0018
13619TIP3    H162272   6.679   0.873   6.605 -0.4081 -1.2230 -0.9091
13619TIP3    H262273   6.581   0.922   6.501 -0.3466 -0.0487 -0.4233
13620TIP3   OH262274   3.200   3.255   1.431 -0.0372 -0.1981  0.0668
13620TIP3    H162275   3.255   3.331   1.448 -0.2725 -0.3739  1.6672
13620TIP3    H262276   3.114   3.291   1.411 -0.1366 -0.0337  0.7753
13621TIP3   OH262277   1.084   1.345  15.677  0.6044 -0.4207 -0.0587
13621TIP3    H162278   0.990   1.331  15.683 -0.0480  3.6395  0.4263
13621TIP3    H262279   1.106   1.325  15.586 -1.1501  0.9301 -0.7903
13622TIP3   OH262280   1.999   5.729  11.410 -0.2761  0.1900  0.6116
13622TIP3    H162281   2.015   5.821  11.431 -1.2602  0.7778 -1.1378
13622TIP3    H262282   2.040   5.715  11.325 -1.1669 -0.6536  0.3014
13623TIP3   OH262283   6.143   3.448  10.453  0.2270  0.0349  0.1789
13623TIP3    H162284   6.113   3.392  10.525  1.8174 -0.1733  0.6873
13623TIP3    H262285   6.070   3.447  10.390 -0.7945 -0.5292  1.3511
13624TIP3   OH262286   1.406   1.327  13.408 -0.1279  0.5151  0.0383
13624TIP3    H162287   1.375   1.418  13.413 -1.8291  0.0956 -2.0307
13624TIP3    H262288   1.456   1.324  13.327 -0.6062 -0.5488 -0.2233
13625TIP3   OH262289   3.734   1.049  16.489  0.7471  0.4539 -0.2874
13625TIP3    H162290   3.649   1.007  16.503 -0.1271  1.7193 -1.6887
13625TIP3    H262291   3.794   0.975  16.472 -0.4857 -0.3379 -1.3118
13626TIP3   OH262292   3.949   1.035   2.954  0.4281  0.6708  0.1978
13626TIP3    H162293   3.999   0.981   2.893  0.8109 -0.4466  1.4849
13626TIP3    H262294   3.949   1.122   2.914 -0.0788 -0.2379 -1.8245
13627TIP3   OH262295   4.280   2.319   3.696  0.1036  0.2217 -0.0546
13627TIP3    H162296   4.333   2.344   3.772  0.1706 -0.4219  0.1207
13627TIP3    H262297   4.210   2.265   3.734 -1.5870  2.3280 -0.0776
13628TIP3   OH262298   2.399   4.704  12.340 -0.3695 -0.2319  0.0586
13628TIP3    H162299   2.361   4.623  12.374 -0.0340 -0.4357 -0.0468
13628TIP3    H262300   2.324   4.762  12.327 -0.4189  0.1085  1.8182
13629TIP3   OH262301   0.373   3.204   4.956 -0.0103  0.1377 -0.2745
13629TIP3    H162302   0.309   3.138   4.929  1.1994 -0.3993 -1.9512
13629TIP3    H262303   0.339   3.239   5.038 -1.6280 -1.2565 -0.3242
13630TIP3   OH262304   1.044   6.280  12.240 -0.8826  0.0573  0.2050
13630TIP3    H162305   0.959   6.265  12.282 -2.0496  0.6170 -1.8586
13630TIP3    H262306   1.080   6.356  12.285 -2.3104  0.9242 -0.0535
13631TIP3   OH262307   4.053   4.086   1.827  0.1228  0.5473 -0.2655
13631TIP3    H162308   4.134   4.120   1.789  0.2713  0.5560  0.0563
13631TIP3    H262309   4.029   4.150   1.895  1.5235 -1.0072  1.7669
13632TIP3   OH262310   1.623   2.701  11.350  0.1495 -0.4742  0.1814
13632TIP3    H162311   1.588   2.643  11.282  0.3635  1.0244 -1.2360
13632TIP3    H262312   1.707   2.731  11.315  1.8353 -2.1914  2.5287
13633TIP3   OH262313   5.742   5.371  16.560  0.7933  0.0698  0.4520
13633TIP3    H162314   5.692   5.292  16.538  1.4560 -0.5857  1.2490
13633TIP3    H262315   5.789   5.393  16.479  2.0643 -1.4624  0.7444
13634TIP3   OH262316   4.405   0.672  14.868  0.2311 -0.5459 -0.0026
13634TIP3    H162317   4.460   0.681  14.946 -0.7054 -0.4192  0.6428
13634TIP3    H262318   4.368   0.584  14.875  0.4874 -0.7034 -0.5411
13635TIP3   OH262319   1.947   1.653   3.610  0.2980 -0.5204  0.2302
13635TIP3    H162320   1.878   1.713   3.581 -2.6063 -0.9731  5.4991
13635TIP3    H262321   1.924   1.569   3.571 -0.7360 -0.1161 -0.0376
13636TIP3   OH262322   4.518   0.888   1.148  0.2487 -0.6381  0.6359
13636TIP3    H162323   4.521   0.895   1.243  0.5972 -3.1450  0.8333
13636TIP3    H262324   4.607   0.863   1.123  0.3171  0.6024 -0.4146
13637TIP3   OH262325   6.765   3.297   3.955  0.6215  0.9513 -0.4488
13637TIP3    H162326   6.727   3.222   3.910  2.9227 -0.0286 -0.8105
13637TIP3    H262327   6.783   3.361   3.886  4.5432 -0.7177 -1.0928
13638TIP3   OH262328   6.232   1.073  15.732  0.5366 -0.0806  0.0514
13638TIP3    H162329   6.137   1.073  15.724  0.5404 -1.7418 -0.3144
13638TIP3    H262330   6.261   1.153  15.689 -0.6491  0.0649 -0.4651
13639TIP3   OH262331   0.258   1.908   0.831  0.5002 -0.3380  0.5819
13639TIP3    H162332   0.233   1.998   0.853  0.7075 -0.1147 -0.0758
13639TIP3    H262333   0.253   1.860   0.914 -1.9316 -0.2662  0.4963
13640TIP3   OH262334   2.001   4.621   5.864 -0.3488  0.3979 -0.5430
13640TIP3    H162335   2.059   4.668   5.924  1.5297 -2.1228 -0.3124
13640TIP3    H262336   2.053   4.607   5.785 -1.4004  0.0434 -1.1875
13641TIP3   OH262337   3.822   0.092  13.521  0.1865 -0.1085 -0.0028
13641TIP3    H162338   3.751   0.155  13.538  1.7814  1.1342  2.1657
13641TIP3    H262339   3.820   0.080  13.426 -0.4234  2.9284 -0.4222
13642TIP3   OH262340   3.315   4.290   0.581  0.2160  0.1467  0.3548
13642TIP3    H162341   3.231   4.335   0.577  0.4232  0.6104  1.0762
13642TIP3    H262342   3.378   4.358   0.604  0.5826 -0.4396  1.1343
13643TIP3   OH262343   1.938   4.451   3.217 -0.7884  0.5491 -0.5183
13643TIP3    H162344   1.894   4.403   3.287 -1.1418 -0.1222 -1.1896
13643TIP3    H262345   1.974   4.529   3.259 -0.9108  0.0922  0.4218
13644TIP3   OH262346   2.625   0.644  16.196 -0.0334  0.0886  0.2060
13644TIP3    H162347   2.626   0.552  16.169 -1.2077 -0.6461  2.5400
13644TIP3    H262348   2.714   0.661  16.227  0.7062  0.3072 -1.9615
13645TIP3   OH262349   6.007   2.962   0.527  0.1399  0.2519  0.7419
13645TIP3    H162350   6.077   2.953   0.591  0.5152  1.6624  0.5484
13645TIP3    H262351   6.052   2.971   0.443 -0.2561  1.3776  0.6391
13646TIP3   OH262352   1.183   2.364  13.360  0.1611  0.5512 -0.1887
13646TIP3    H162353   1.182   2.460  13.354 -0.1035  0.7555  2.4706
13646TIP3    H262354   1.171   2.346  13.453 -0.3964 -2.0958 -0.7357
13647TIP3   OH262355   1.232   2.055  11.209  0.3043  0.4333  0.2696
13647TIP3    H162356   1.190   1.978  11.247  2.2975 -0.8904 -0.1448
13647TIP3    H262357   1.272   2.100  11.284  1.8502 -0.6643  0.1116
13648TIP3   OH262358   5.486   6.388   3.445 -0.2370 -0.0457  0.3766
13648TIP3    H162359   5.498   6.365   3.353 -1.1090 -1.6826  0.6480
13648TIP3    H262360   5.415   6.453   3.445 -0.9530 -0.8300 -0.0175
13649TIP3   OH262361   6.683   3.892   5.036 -0.3561  0.4730  0.1226
13649TIP3    H162362   6.617   3.959   5.057 -1.1921 -0.6641  1.1921
13649TIP3    H262363   6.633   3.811   5.026  0.4943  0.2503 -2.5478
13650TIP3   OH262364   5.490   1.681  16.907 -0.0469  0.3883 -0.0433
13650TIP3    H162365   5.445   1.750  16.955 -1.2125  1.5403 -2.6434
13650TIP3    H262366   5.455   1.600  16.942 -0.5595  1.1854  1.2975
13651TIP3   OH262367   3.988   5.824  14.669 -0.1868 -0.0308  0.0852
13651TIP3    H162368   4.080   5.801  14.676 -0.2978 -0.1305  1.3744
13651TIP3    H262369   3.950   5.797  14.752 -1.6414 -1.1565 -0.9226
13652TIP3   OH262370   6.384   5.159   5.691  0.1070 -0.0592  0.4666
13652TIP3    H162371   6.420   5.163   5.779  1.4059 -0.7848 -0.0198
13652TIP3    H262372   6.327   5.236   5.685  1.2958  0.9197  1.3771
13653TIP3   OH262373   0.574   0.088  15.236 -0.0716  0.1719 -0.2627
13653TIP3    H162374   0.645   0.055  15.180 -0.5089  1.3482 -1.5442
13653TIP3    H262375   0.597   0.180  15.251  0.5252 -0.3611  2.2923
13654TIP3   OH262376   6.662   2.972  11.705 -0.4663  0.6474  0.3384
13654TIP3    H162377   6.721   2.897  11.712 -0.5353  0.6476  1.0035
13654TIP3    H262378   6.625   2.966  11.617  0.6787  0.7674 -0.1530
13655TIP3   OH262379   1.892   2.082  13.792 -0.1758  0.3151  0.3225
13655TIP3    H162380   1.865   2.063  13.882  0.0299  0.8335  0.4969
13655TIP3    H262381   1.810   2.097  13.745 -0.2720  0.2802  0.4776
13656TIP3   OH262382   1.809   0.279  12.500 -0.3161 -0.0883  0.2223
13656TIP3    H162383   1.809   0.308  12.592 -1.6047  1.9570 -0.3784
13656TIP3    H262384   1.755   0.200  12.500  0.1424 -0.4174  1.3101
13657TIP3   OH262385   0.872   4.692  14.458  0.2055 -0.2742  0.3132
13657TIP3    H162386   0.922   4.698  14.540 -1.4823  0.1755  1.3244
13657TIP3    H262387   0.889   4.775  14.413 -0.3306  0.2394  1.0606
13658TIP3   OH262388   6.319   2.563  12.247  0.3070  0.4860  0.1351
13658TIP3    H162389   6.235   2.517  12.247  0.4408  0.2497 -0.8620
13658TIP3    H262390   6.298   2.653  12.221  0.5575  0.0818 -1.4645
13659TIP3   OH262391   5.881   4.292  12.355 -0.3260  0.2544 -0.0681
13659TIP3    H162392   5.898   4.383  12.330 -0.7946 -0.6693 -4.1158
13659TIP3    H262393   5.788   4.290  12.378 -0.3983  0.7068 -0.3230
13660TIP3   OH262394   5.794   3.471  16.162 -0.3730 -0.1445 -0.1448
13660TIP3    H162395   5.742   3.535  16.113 -0.2078  0.2182  0.1485
13660TIP3    H262396   5.791   3.503  16.252  1.2302  0.4744 -0.2877
13661TIP3   OH262397   3.489   3.360   5.424  0.4847 -0.2445  0.1839
13661TIP3    H162398   3.459   3.335   5.336  1.0094 -1.9828  0.4912
13661TIP3    H262399   3.579   3.390   5.411 -0.1336  1.5783 -0.1773
13662TIP3   OH262400   6.329   5.984   3.396 -0.9636  0.9138 -0.1951
13662TIP3    H162401   6.275   5.939   3.330  0.3616  1.2559 -1.5424
13662TIP3    H262402   6.316   6.077   3.378 -0.6866  1.0112  0.1070
13663TIP3   OH262403   4.732   2.308   0.574  0.3502 -0.0030  0.1084
13663TIP3    H162404   4.783   2.389   0.575  0.1417  0.1498 -0.7639
13663TIP3    H262405   4.669   2.318   0.644 -2.0479  2.1593 -2.2564
13664TIP3   OH262406   3.986   4.011  11.698  0.0098 -0.1770  0.1710
13664TIP3    H162407   4.062   3.984  11.646 -0.9414 -0.4669 -1.0842
13664TIP3    H262408   4.019   4.016  11.788  1.1479 -1.7621 -0.1421
13665TIP3   OH262409   1.651   0.115   4.712 -0.4721 -0.2862  0.4576
13665TIP3    H162410   1.636   0.032   4.758 -0.3045  0.2371  1.4745
13665TIP3    H262411   1.705   0.166   4.772  0.5444  0.0541 -0.7357
13666TIP3   OH262412   6.237   5.790   0.279 -0.0292 -0.0723 -0.5671
13666TIP3    H162413   6.155   5.763   0.322 -0.3109 -0.1812 -1.1655
13666TIP3    H262414   6.306   5.756   0.336 -0.3951 -0.8603 -0.5849
13667TIP3   OH262415   4.934   2.298  12.934  0.4848  0.0309  0.3153
13667TIP3    H162416   4.869   2.358  12.897  1.8836  1.9432  0.8798
13667TIP3    H262417   4.911   2.212  12.898  2.0731  1.8198 -5.4738
13668TIP3   OH262418   0.980   4.030   1.953 -0.2351  0.5212 -0.5728
13668TIP3    H162419   0.983   4.126   1.954 -0.8858  0.5400  0.2258
13668TIP3    H262420   0.891   4.009   1.927 -0.4774  0.1398  0.5509
13669TIP3   OH262421   2.859   2.043  14.956 -0.1028  0.0344 -0.1688
13669TIP3    H162422   2.770   2.027  14.989 -0.0070  0.9895  0.5962
13669TIP3    H262423   2.850   2.041  14.861 -0.6994 -1.1430 -0.0941
13670TIP3   OH262424   4.564   2.765   1.636  0.0937 -0.0988  0.2284
13670TIP3    H162425   4.561   2.817   1.556  0.6034  0.6652  0.7030
13670TIP3    H262426   4.472   2.758   1.664 -0.2375 -1.5293 -1.1532
13671TIP3   OH262427   0.231   5.546  16.300  0.2239 -0.4072  0.0567
13671TIP3    H162428   0.293   5.508  16.238 -1.1127  0.3816 -1.8257
13671TIP3    H262429   0.284   5.605  16.354  1.2264 -0.2087 -1.1211
13672TIP3   OH262430   6.373   1.752   3.547  0.1640  0.7272 -0.2085
13672TIP3    H162431   6.338   1.803   3.621 -3.2132 -1.5095 -0.1361
13672TIP3    H262432   6.437   1.694   3.587  0.8930  1.9240  0.3908
13673TIP3   OH262433   3.899   5.356  13.015  0.0734 -0.2244 -0.2747
13673TIP3    H162434   3.811   5.324  12.998 -0.2154  0.3776  0.0706
13673TIP3    H262435   3.957   5.290  12.977 -0.5359 -0.0162 -1.5783
13674TIP3   OH262436   2.379   0.398  14.239  0.5327 -0.0371  0.2778
13674TIP3    H162437   2.424   0.436  14.314  0.6251 -0.1476  0.2787
13674TIP3    H262438   2.298   0.362  14.275 -1.5772  3.8227 -0.3712
13675TIP3   OH262439   5.658   5.582  13.943 -0.0764  0.2814  0.1308
13675TIP3    H162440   5.664   5.624  13.856  0.3241  0.5251  0.2743
13675TIP3    H262441   5.647   5.489  13.924 -0.5507  0.3988 -0.1891
13676TIP3   OH262442   6.309   1.459  11.303 -0.3343 -0.5140  0.1660
13676TIP3    H162443   6.222   1.424  11.282 -0.3084 -0.8866  0.6684
13676TIP3    H262444   6.310   1.546  11.264 -1.7851  0.4071  2.0907
13677TIP3   OH262445   1.443   4.812  11.627 -0.3690 -0.4183  0.7893
13677TIP3    H162446   1.386   4.887  11.646  1.5737  0.5593  2.9475
13677TIP3    H262447   1.442   4.760  11.707  0.8147 -1.0210  0.4275
13678TIP3   OH262448   3.205   4.164   0.044 -0.1733 -0.2946 -0.0653
13678TIP3    H162449   3.162   4.137   0.125  1.0229  1.0290  1.0439
13678TIP3    H262450   3.283   4.109   0.039  0.6528  0.7961  0.5929
13679TIP3   OH262451   6.469   1.067  13.850 -0.1995  0.1765  0.4850
13679TIP3    H162452   6.505   1.128  13.785 -0.6528  0.3008  0.3446
13679TIP3    H262453   6.524   0.989  13.844 -0.6621 -0.0762 -0.5302
13680TIP3   OH262454   1.420   2.451   1.992 -0.1566  0.1825  0.2358
13680TIP3    H162455   1.486   2.447   1.923  1.5521 -0.6887  1.8604
13680TIP3    H262456   1.345   2.403   1.956  0.4941  0.2323 -1.2255
13681TIP3   OH262457   5.154   1.933  17.158  0.2144  0.4182 -0.3110
13681TIP3    H162458   5.185   1.948  17.069 -0.2765  0.0237 -0.5467
13681TIP3    H262459   5.195   2.002  17.210  0.0795  0.9682 -0.9351
13682TIP3   OH262460   3.035   4.195   6.525 -0.4956 -0.2377 -0.3447
13682TIP3    H162461   3.123   4.157   6.531  0.6705  1.6519 -3.8672
13682TIP3    H262462   3.039   4.272   6.582  0.0454 -0.3336 -0.2467
13683TIP3   OH262463   5.469   4.368  15.599 -0.1439 -0.0958 -0.2519
13683TIP3    H162464   5.479   4.284  15.555  0.3341 -0.5020  0.6084
13683TIP3    H262465   5.491   4.350  15.691  1.4646  1.2722 -0.3219
13684TIP3   OH262466   3.661   5.757   1.398 -0.0439  0.0564 -0.1320
13684TIP3    H162467   3.639   5.689   1.334 -0.9480  0.9096 -0.7440
13684TIP3    H262468   3.580   5.771   1.447 -0.0649  1.1573 -0.4627
13685TIP3   OH262469   4.320   1.418   1.867  0.2666  0.3653 -0.3468
13685TIP3    H162470   4.293   1.360   1.796 -0.3010 -0.4839  0.5592
13685TIP3    H262471   4.318   1.506   1.828 -1.2164  0.0380 -1.0351
13686TIP3   OH262472   3.050   0.063   4.334  0.3849  0.0763  0.2923
13686TIP3    H162473   3.012  -0.016   4.374  0.7734 -0.6045 -0.6631
13686TIP3    H262474   3.136   0.071   4.374 -0.1626  0.7845  1.3708
13687TIP3   OH262475   6.116   1.129   4.781  0.2702  0.0736  0.3112
13687TIP3    H162476   6.176   1.198   4.754 -0.7827  0.0544 -2.2058
13687TIP3    H262477   6.032   1.153   4.741 -0.3247 -2.1458  0.1590
13688TIP3   OH262478   5.584   2.323  12.758 -0.2820 -0.0634  0.6089
13688TIP3    H162479   5.507   2.291  12.713  0.8892  0.1075 -1.6072
13688TIP3    H262480   5.650   2.254  12.745  0.7015  0.9333  0.1977
13689TIP3   OH262481   2.237   0.670  12.165  0.5708 -0.5225 -0.4543
13689TIP3    H162482   2.256   0.578  12.183  0.3000 -0.4565  0.2151
13689TIP3    H262483   2.318   0.705  12.129  0.1073 -1.4569 -2.4672
13690TIP3   OH262484   1.391   5.162  13.097 -0.3286 -0.9060  0.3177
13690TIP3    H162485   1.430   5.178  13.011  0.1613 -0.8274  0.5541
13690TIP3    H262486   1.364   5.070  13.094 -0.0106 -0.9937  0.2042
13691TIP3   OH262487   6.323   4.869  12.224  0.3558  0.1509 -0.4493
13691TIP3    H162488   6.234   4.845  12.251  1.0943 -0.9729  1.0749
13691TIP3    H262489   6.317   4.962  12.203 -0.9994  0.2876  0.4791
13692TIP3   OH262490   6.595   4.986  12.619 -0.6312 -0.4083  0.4716
13692TIP3    H162491   6.535   5.049  12.578  0.3990  0.0440 -0.3567
13692TIP3    H262492   6.540   4.940  12.683 -1.9684 -0.2844 -0.5540
13693TIP3   OH262493   1.592   6.162   6.458 -0.1468 -0.0570  0.0999
13693TIP3    H162494   1.687   6.169   6.467 -0.2434  0.4224  0.8566
13693TIP3    H262495   1.558   6.232   6.515 -0.9335  0.1586 -0.6299
13694TIP3   OH262496   2.096   3.112   1.747 -0.3289  0.3069  1.0046
13694TIP3    H162497   2.178   3.081   1.708 -1.4990  0.4522 -1.6650
13694TIP3    H262498   2.124   3.171   1.817  1.8649  0.9107 -0.3399
13695TIP3   OH262499   1.560   2.429   0.103  0.5006 -0.3172  0.3692
13695TIP3    H162500   1.630   2.385   0.054  0.3005 -0.3628  0.1244
13695TIP3    H262501   1.574   2.522   0.087 -0.4480 -0.3943 -0.9846
13696TIP3   OH262502   4.873   0.486  15.852  0.2340 -0.0795 -0.4498
13696TIP3    H162503   4.903   0.398  15.832  1.6908  0.5619 -1.1959
13696TIP3    H262504   4.943   0.524  15.905  0.8620  1.5040 -2.3499
13697TIP3   OH262505   0.405   1.554   3.678  0.1040  0.3700 -0.2687
13697TIP3    H162506   0.469   1.573   3.747 -0.9584 -0.1757  0.8857
13697TIP3    H262507   0.326   1.526   3.725 -0.9772  0.9682 -1.6597
13698TIP3   OH262508   1.473   1.591  17.076 -0.3922 -0.0760  0.5966
13698TIP3    H162509   1.547   1.531  17.089 -0.7451 -1.2025 -2.2869
13698TIP3    H262510   1.397   1.534  17.075 -0.8914  0.6067 -0.6340
13699TIP3   OH262511   1.608   2.044  16.081 -0.0401  0.1941 -0.5592
13699TIP3    H162512   1.587   2.077  16.168  0.4905 -1.2741  0.1380
13699TIP3    H262513   1.700   2.068  16.068 -0.3673  1.2023 -1.1001
13700TIP3   OH262514   2.042   0.831   4.960 -0.5231  0.0606 -0.3536
13700TIP3    H162515   2.050   0.908   5.017  0.6135  0.4263 -0.9808
13700TIP3    H262516   2.053   0.866   4.871  0.7990 -0.9251 -0.5961
13701TIP3   OH262517   5.932   5.783   2.985  0.4367  0.2229 -0.2422
13701TIP3    H162518   5.976   5.716   2.932  1.3341  1.5559 -1.2280
13701TIP3    H262519   5.845   5.747   3.002  0.9086 -1.1948 -0.7418
13702TIP3   OH262520   3.936   5.122  12.835 -0.0185  0.1375 -0.2073
13702TIP3    H162521   4.007   5.145  12.776 -0.0702 -2.4547 -1.3404
13702TIP3    H262522   3.861   5.173  12.804  0.1716 -0.5940 -1.9023
13703TIP3   OH262523   5.992   0.990   2.471  0.4004 -0.3577 -0.3834
13703TIP3    H162524   5.926   0.924   2.450 -0.2066  0.5337 -1.2875
13703TIP3    H262525   5.970   1.018   2.560 -0.5288  0.0451 -0.7388
13704TIP3   OH262526   1.009   5.387   3.800  0.4055 -0.0864 -1.1480
13704TIP3    H162527   1.061   5.346   3.869 -0.2485  1.6597  0.4473
13704TIP3    H262528   0.931   5.332   3.792  0.3634 -0.1494 -0.3106
13705TIP3   OH262529   2.559   1.395  12.827  0.1978  0.2864  0.2219
13705TIP3    H162530   2.624   1.350  12.882  0.1652  0.9958  0.8583
13705TIP3    H262531   2.568   1.355  12.741 -0.1583 -1.2542  0.8877
13706TIP3   OH262532   6.159   6.188   3.271 -0.0127  0.0255  0.3995
13706TIP3    H162533   6.092   6.177   3.203 -0.0609  4.2824 -0.3636
13706TIP3    H262534   6.115   6.236   3.341  1.3249 -0.1664  1.3940
13707TIP3   OH262535   0.218   4.431   0.550 -0.5065  0.0604  0.4637
13707TIP3    H162536   0.130   4.434   0.513 -1.8177  0.0683  3.4502
13707TIP3    H262537   0.252   4.520   0.541 -2.5605  1.2124  3.2218
13708TIP3   OH262538   4.882   1.141  11.043  0.2794  0.1591  0.4731
13708TIP3    H162539   4.842   1.225  11.021 -0.4779 -0.3535 -0.1062
13708TIP3    H262540   4.904   1.102  10.959  3.1678  0.9675  0.7851
13709TIP3   OH262541   0.623   2.213   0.391 -0.8829 -0.1796 -0.0712
13709TIP3    H162542   0.571   2.256   0.324 -0.1183 -1.2930 -1.3985
13709TIP3    H262543   0.711   2.209   0.354 -0.2478  0.0473  1.3936
13710TIP3   OH262544   2.606   0.212  15.554 -0.3057  0.2448  0.2977
13710TIP3    H162545   2.581   0.203  15.646  1.0764 -1.2267  0.5615
13710TIP3    H262546   2.678   0.276  15.554 -0.4891  0.4513  0.2047
13711TIP3   OH262547   0.172   0.765  10.910  0.1157  0.1250  0.4505
13711TIP3    H162548   0.162   0.719  10.993 -1.2770  2.1214  1.4192
13711TIP3    H262549   0.193   0.855  10.935  0.2645  0.6138 -1.3782
13712TIP3   OH262550   4.538   6.699   2.625  0.2114  0.3091  0.1224
13712TIP3    H162551   4.494   6.737   2.548 -0.8835 -0.1429  0.5154
13712TIP3    H262552   4.494   6.740   2.700  1.0151  0.4538  0.5185
13713TIP3   OH262553   0.681   5.150   5.868  0.3524 -0.2645  0.2538
13713TIP3    H162554   0.626   5.227   5.851 -0.0621 -0.2029  1.8213
13713TIP3    H262555   0.769   5.185   5.880  0.3018 -0.1157  0.1947
13714TIP3   OH262556   4.027   3.601   0.400  0.0632  1.0703 -0.5470
13714TIP3    H162557   4.065   3.561   0.479 -1.7342  0.8399  0.2101
13714TIP3    H262558   4.005   3.526   0.344 -0.9114  1.1210 -0.2313
13715TIP3   OH262559   4.791   5.582  16.806 -0.5039 -0.7634  0.0333
13715TIP3    H162560   4.846   5.533  16.746  0.2127 -1.0128  0.8868
13715TIP3    H262561   4.849   5.606  16.878 -0.4497  2.6666 -1.0629
13716TIP3   OH262562   3.123   2.179   4.392  0.0179  0.2404  0.4437
13716TIP3    H162563   3.040   2.227   4.402  0.0193  0.5295 -0.8454
13716TIP3    H262564   3.190   2.245   4.411  0.0062  0.6206 -0.8083
13717TIP3   OH262565   4.441   4.112   0.021  0.3544  0.2914  0.2986
13717TIP3    H162566   4.385   4.186  -0.000  2.0439  1.1802 -1.1508
13717TIP3    H262567   4.429   4.051  -0.051 -1.6513 -1.2753  1.8772
13718TIP3   OH262568   1.533   6.449  13.432 -0.0099  0.6091  0.1791
13718TIP3    H162569   1.571   6.536  13.439  0.7199  0.4022 -1.0761
13718TIP3    H262570   1.480   6.453  13.352  0.3522 -0.2071 -0.1056
13719TIP3   OH262571   6.443   3.437  12.903  0.1746 -0.1806  0.2759
13719TIP3    H162572   6.433   3.342  12.910  0.3296 -0.1985  0.2652
13719TIP3    H262573   6.370   3.465  12.848  0.9094 -0.4675 -0.8486
13720TIP3   OH262574   0.354   3.581   5.623  0.0990  0.2824  0.3518
13720TIP3    H162575   0.362   3.530   5.703 -0.5530 -1.1259 -0.4508
13720TIP3    H262576   0.287   3.646   5.642  0.0435  0.0428  0.9807
13721TIP3   OH262577   1.069   4.770  15.485  0.4983 -0.1278  0.8729
13721TIP3    H162578   1.120   4.819  15.549  1.0119  2.8596 -1.6973
13721TIP3    H262579   1.121   4.773  15.404 -1.7549 -0.6645 -0.6719
13722TIP3   OH262580   0.518   6.397   1.828  0.1401  0.1738 -0.9401
13722TIP3    H162581   0.601   6.430   1.863  1.1527 -1.5767 -1.6575
13722TIP3    H262582   0.482   6.472   1.780  0.0993  1.7123  1.3911
13723TIP3   OH262583   3.496   1.240  12.026 -0.3942 -0.4304  0.2986
13723TIP3    H162584   3.449   1.317  12.057 -0.0440  0.5092 -1.4688
13723TIP3    H262585   3.504   1.252  11.932 -1.2786 -3.1497 -0.1752
13724TIP3   OH262586   5.987   2.596  16.117 -0.1458  0.4350  0.2790
13724TIP3    H162587   6.042   2.584  16.194 -1.7642  0.1907  1.4244
13724TIP3    H262588   5.905   2.631  16.152 -1.4590 -1.1508 -1.1463
13725TIP3   OH262589   3.702   3.075   4.089 -0.1912 -0.0308  0.1861
13725TIP3    H162590   3.686   2.983   4.067 -0.0505 -0.4505  1.7546
13725TIP3    H262591   3.616   3.117   4.085 -0.2900 -0.2752 -0.3063
13726TIP3   OH262592   4.310   6.720   0.019  0.0883 -0.4239  0.3871
13726TIP3    H162593   4.292   6.777   0.093  0.2812 -0.5602  0.5387
13726TIP3    H262594   4.398   6.686   0.036 -0.0021 -0.7149  0.2628
13727TIP3   OH262595   4.579   0.959   2.424  0.3067  0.2367 -0.5186
13727TIP3    H162596   4.624   0.937   2.342  0.7629  0.8033 -0.4252
13727TIP3    H262597   4.644   0.943   2.492 -0.6177 -1.8972 -0.0951
13728TIP3   OH262598   0.763   5.727  12.048  0.0448 -0.0068  0.2436
13728TIP3    H162599   0.790   5.810  12.088  0.9316 -0.1225 -0.0916
13728TIP3    H262600   0.677   5.745  12.011  0.8196  1.1952 -1.0440
13729TIP3   OH262601   2.246   5.517   6.693  0.0908 -0.4622 -0.2659
13729TIP3    H162602   2.267   5.601   6.733 -1.5993 -0.1715  0.0473
13729TIP3    H262603   2.253   5.532   6.599  0.3912 -0.1387 -0.1930
13730TIP3   OH262604   2.403   3.095   3.371  0.1638  0.9027  0.5793
13730TIP3    H162605   2.456   3.155   3.320 -0.9369  3.5729  2.4774
13730TIP3    H262606   2.454   3.080   3.451 -0.2489  0.5400  0.7782
13731TIP3   OH262607   1.376   2.165  10.848 -0.3629 -0.4740 -0.3488
13731TIP3    H162608   1.457   2.214  10.835  0.6602 -1.5180  1.8393
13731TIP3    H262609   1.376   2.098  10.780  0.5916 -0.4234 -0.3949
13732TIP3   OH262610   0.235   1.162   1.569  0.6379 -0.2753  0.5140
13732TIP3    H162611   0.248   1.070   1.591 -0.6303 -0.3312  1.0705
13732TIP3    H262612   0.293   1.210   1.627 -0.7875 -0.5762  2.2293
13733TIP3   OH262613   6.217   0.715  12.415  0.5212  0.2425  0.2412
13733TIP3    H162614   6.204   0.735  12.322 -1.3897 -0.7187  0.2587
13733TIP3    H262615   6.238   0.799  12.455 -0.4739  1.0046 -0.7790
13734TIP3   OH262616   2.192   2.602  15.777  0.4431 -0.2503  0.2700
13734TIP3    H162617   2.271   2.634  15.734  1.5210 -0.2157  2.1947
13734TIP3    H262618   2.121   2.651  15.736  1.7261  1.9611  0.6046
13735TIP3   OH262619   1.899   3.022   3.672  0.1714 -0.4892 -0.0074
13735TIP3    H162620   1.851   3.091   3.719  0.3490 -0.2909 -0.1157
13735TIP3    H262621   1.990   3.037   3.695  0.4546  0.7259 -1.8324
13736TIP3   OH262622   4.791   0.469   1.746  0.0238  0.0771  0.4579
13736TIP3    H162623   4.722   0.403   1.748 -0.6415  0.7503 -0.1203
13736TIP3    H262624   4.763   0.536   1.808 -0.0020  0.5062 -0.0124
13737TIP3   OH262625   4.387   2.180  16.428  0.2196  0.1098 -0.8131
13737TIP3    H162626   4.329   2.123  16.378 -0.9550 -0.2646  0.9512
13737TIP3    H262627   4.361   2.269  16.404 -1.4512 -0.0441  0.3246
13738TIP3   OH262628   6.706   3.753   0.278  0.3604  0.1181  0.2803
13738TIP3    H162629   6.648   3.683   0.308  0.2178 -0.8037 -2.0395
13738TIP3    H262630   6.647   3.827   0.262 -0.0129 -0.3808 -0.7174
13739TIP3   OH262631   0.056   6.130  17.016 -0.0771  0.1296  0.0201
13739TIP3    H162632   0.027   6.213  17.053 -0.0099 -0.0533  0.4910
13739TIP3    H262633   0.151   6.138  17.011 -0.1444  0.4140 -0.7438
13740TIP3   OH262634   0.032   3.191  10.915 -0.2000  0.1552  0.4033
13740TIP3    H162635   0.086   3.113  10.919 -0.6721 -0.2116 -0.2010
13740TIP3    H262636  -0.057   3.160  10.932 -0.5249  0.4068 -0.7310
13741TIP3   OH262637   4.391   1.900   4.289  0.5420  0.3142 -0.2638
13741TIP3    H162638   4.447   1.900   4.212  0.1181 -0.0764 -0.5817
13741TIP3    H262639   4.303   1.916   4.255  0.3379  0.0606  0.1237
13742TIP3   OH262640   4.392   1.107   5.441 -0.2677  0.1115 -0.3600
13742TIP3    H162641   4.392   1.193   5.484  1.5337  0.0449 -0.1909
13742TIP3    H262642   4.348   1.123   5.357 -2.0088  0.6735  0.6394
13743TIP3   OH262643   1.437   2.218   2.978  0.2729 -0.0914  0.8991
13743TIP3    H162644   1.384   2.164   2.920  0.4972  2.4252 -1.7926
13743TIP3    H262645   1.516   2.167   2.994  0.0190 -1.0098 -0.6936
13744TIP3   OH262646   4.024   2.076   3.296  0.3625 -0.1519 -0.6474
13744TIP3    H162647   3.940   2.030   3.286  0.0864  0.2015 -0.0033
13744TIP3    H262648   4.087   2.008   3.318 -0.1416 -0.1639  0.8179
13745TIP3   OH262649   6.781   5.228   0.098 -0.3457 -0.1381 -0.5577
13745TIP3    H162650   6.800   5.311   0.140  2.0695 -0.0792 -1.6427
13745TIP3    H262651   6.842   5.166   0.138 -1.6832 -1.2703 -0.2055
13746TIP3   OH262652   6.260   3.330  16.513  1.1152  0.0102 -0.3085
13746TIP3    H162653   6.187   3.376  16.554  2.9696  1.0568  1.9377
13746TIP3    H262654   6.226   3.243  16.493 -1.2607  1.0621 -0.9990
13747TIP3   OH262655   2.719   0.113  14.401 -0.4327 -0.2833 -0.7643
13747TIP3    H162656   2.626   0.133  14.416  0.3008  1.8380  1.3154
13747TIP3    H262657   2.736   0.038  14.458 -1.0432 -1.1642 -1.7307
13748TIP3   OH262658   6.359   4.393   4.110 -0.6772  0.3850  0.3610
13748TIP3    H162659   6.404   4.309   4.110 -0.5760  0.4323  1.4758
13748TIP3    H262660   6.288   4.381   4.173 -1.5298  0.6808 -0.5300
13749TIP3   OH262661   1.732   5.402  14.652  0.1456 -0.2352 -0.5858
13749TIP3    H162662   1.806   5.451  14.687 -0.1373 -0.0283 -0.2800
13749TIP3    H262663   1.699   5.352  14.727 -1.9739  2.0444  0.0757
13750TIP3   OH262664   6.166   5.394  12.776  0.3301  0.3218 -0.0595
13750TIP3    H162665   6.134   5.321  12.829  1.0804  0.0775  0.0703
13750TIP3    H262666   6.088   5.446  12.756 -0.5655 -1.7024 -2.0078
13751TIP3   OH262667   6.240   4.350  11.030  0.3845  0.1363  0.0470
13751TIP3    H162668   6.301   4.306  10.971 -1.2185 -0.5447 -1.1476
13751TIP3    H262669   6.257   4.310  11.115  0.7561 -0.9224 -0.5109
13752TIP3   OH262670   4.596   1.339  14.302 -0.0851  0.2570 -0.0184
13752TIP3    H162671   4.612   1.389  14.382  0.2393 -2.0481  1.4135
13752TIP3    H262672   4.683   1.309  14.275 -0.4966 -1.3490  0.3908
13753TIP3   OH262673   1.030   0.197   0.144  0.1638 -0.0561 -0.2267
13753TIP3    H162674   1.056   0.106   0.130 -1.4155 -0.6372  0.4795
13753TIP3    H262675   1.001   0.200   0.235 -1.9867  0.5738 -0.9016
13754TIP3   OH262676   1.358   3.911  15.739 -0.2722  0.2096  0.4032
13754TIP3    H162677   1.438   3.944  15.780 -1.1026  0.0691  2.1734
13754TIP3    H262678   1.359   3.817  15.755  0.9374 -0.3388 -2.6430
13755TIP3   OH262679   5.587   5.752  13.109  0.2869 -0.1935 -0.4026
13755TIP3    H162680   5.494   5.746  13.129 -0.1871  3.6648 -1.2013
13755TIP3    H262681   5.631   5.714  13.185 -1.8844 -2.7497 -0.3400
13756TIP3   OH262682   3.122   4.525  13.975 -0.0439  0.4674  0.2172
13756TIP3    H162683   3.190   4.569  14.027  0.2788 -0.5265  0.6447
13756TIP3    H262684   3.131   4.432  13.997 -0.1260  0.0761 -1.3849
13757TIP3   OH262685   4.071   3.839   2.331  0.3261 -0.1972  0.1890
13757TIP3    H162686   4.009   3.779   2.372 -1.9779  0.0550 -2.7343
13757TIP3    H262687   4.103   3.894   2.402 -1.6409 -1.3770  2.0177
13758TIP3   OH262688   5.388   3.538  15.594 -0.1515  0.4287 -0.0766
13758TIP3    H162689   5.455   3.589  15.549 -2.2454  2.0759 -1.4371
13758TIP3    H262690   5.369   3.466  15.534 -0.5202  0.7095 -0.3014
13759TIP3   OH262691   5.811   0.775  15.702  0.2853 -0.1821  0.0475
13759TIP3    H162692   5.875   0.704  15.709 -0.6861 -1.1606 -0.8298
13759TIP3    H262693   5.728   0.735  15.728 -0.3257  0.5282 -0.7889
13760TIP3   OH262694   6.518   2.523   4.905  0.2709 -0.2010 -0.7742
13760TIP3    H162695   6.582   2.541   4.836  0.7854 -0.5736 -0.3940
13760TIP3    H262696   6.566   2.471   4.970 -1.3444 -3.4939 -2.1071
13761TIP3   OH262697   3.450   0.176  15.732 -0.4964 -0.0379  0.5396
13761TIP3    H162698   3.391   0.172  15.657 -0.9089 -0.1703  0.8704
13761TIP3    H262699   3.488   0.089  15.737 -0.9633 -0.2189  0.8861
13762TIP3   OH262700   1.468   3.138  11.723 -0.3891 -0.2200 -0.3294
13762TIP3    H162701   1.488   3.058  11.674  0.4179 -0.7310  0.8156
13762TIP3    H262702   1.498   3.120  11.812 -0.9556  1.0575  0.1338
13763TIP3   OH262703   3.945   2.295  11.631  0.0753 -0.1125 -0.6925
13763TIP3    H162704   4.014   2.361  11.625 -1.3344  1.2798 -2.0588
13763TIP3    H262705   3.977   2.233  11.696  2.0058  1.2282 -0.3165
13764TIP3   OH262706   2.302   6.017  14.272  0.1750 -0.2307  0.1219
13764TIP3    H162707   2.288   5.962  14.195  0.8373  1.9606 -1.5993
13764TIP3    H262708   2.223   6.069  14.280  1.0189  1.1419 -0.4165
13765TIP3   OH262709   3.278   1.298   4.948 -0.3822 -0.1739  0.5065
13765TIP3    H162710   3.358   1.273   4.901 -0.0084  1.2460  0.3679
13765TIP3    H262711   3.280   1.247   5.028  0.8146  0.0620  0.6338
13766TIP3   OH262712   1.838   0.266  15.521 -0.1870  0.1959 -0.1083
13766TIP3    H162713   1.820   0.352  15.558  1.5172  0.6474 -0.2812
13766TIP3    H262714   1.857   0.210  15.596  0.1837  0.3428 -0.0916
13767TIP3   OH262715   2.793   4.496   2.567  0.2310  0.1053  0.2452
13767TIP3    H162716   2.795   4.474   2.661 -0.7684  0.5431  0.3706
13767TIP3    H262717   2.854   4.433   2.527  2.1177  1.1253  1.4264
13768TIP3   OH262718   0.270   4.345   3.559 -0.3954 -0.1200 -0.5975
13768TIP3    H162719   0.231   4.366   3.644 -1.1829  1.8561 -1.4064
13768TIP3    H262720   0.263   4.250   3.552 -1.4815 -0.1791  1.0014
13769TIP3   OH262721   0.080   1.709  16.907  0.1899 -0.2823 -0.6967
13769TIP3    H162722   0.089   1.768  16.833 -2.4795  0.9648 -0.0920
13769TIP3    H262723  -0.011   1.680  16.904  0.0944 -0.3949  1.9220
13770TIP3   OH262724   1.940   1.040  11.434  0.7318  0.2048 -0.0158
13770TIP3    H162725   1.872   1.020  11.499  1.9470 -0.3318  1.0960
13770TIP3    H262726   2.004   0.970  11.443  1.6767  0.9625 -0.7421
13771TIP3   OH262727   0.683   4.069  10.308  0.0550  0.3781  0.3254
13771TIP3    H162728   0.656   4.133  10.374  0.9467 -0.8287  1.8944
13771TIP3    H262729   0.601   4.041  10.266 -0.6988 -0.1389  2.1256
13772TIP3   OH262730   1.845   1.785  13.263 -0.1914 -0.0025 -0.3968
13772TIP3    H162731   1.854   1.763  13.356  2.0797  1.6894 -0.1556
13772TIP3    H262732   1.890   1.870  13.254 -0.4189 -0.1160 -3.0126
13773TIP3   OH262733   6.204   1.825   4.707  0.8187 -0.4211  0.5274
13773TIP3    H162734   6.164   1.842   4.792  0.0314 -0.9960  0.2801
13773TIP3    H262735   6.154   1.880   4.646  0.6796 -0.8269  0.2768
13774TIP3   OH262736   3.466   5.914  16.230 -0.5272  0.5278  0.5611
13774TIP3    H162737   3.486   5.837  16.284  0.4520  0.4031  0.0439
13774TIP3    H262738   3.551   5.958  16.220 -0.4156 -0.1635 -1.9353
13775TIP3   OH262739   2.060   0.098  15.332 -0.2409  0.0983 -0.2357
13775TIP3    H162740   2.071   0.180  15.379 -0.4971  0.9159 -1.5983
13775TIP3    H262741   2.148   0.074  15.304 -0.0828 -0.4067  0.6548
13776TIP3   OH262742   0.332   3.172  14.203  0.1648 -0.0013  0.4426
13776TIP3    H162743   0.375   3.257  14.187 -0.1454  0.1477  0.3981
13776TIP3    H262744   0.277   3.188  14.280 -0.7663  0.1564 -0.2420
13777TIP3   OH262745   6.282   2.436   5.067  0.2183 -0.1329 -0.4789
13777TIP3    H162746   6.322   2.483   5.141 -0.4715  0.3985 -0.4384
13777TIP3    H262747   6.334   2.461   4.991  1.1561 -0.9640 -0.1234
13778TIP3   OH262748   3.638   0.320  12.616  0.1250  0.0854 -0.1896
13778TIP3    H162749   3.647   0.401  12.665  1.5542 -0.4904  0.5498
13778TIP3    H262750   3.583   0.264  12.671 -1.0586  0.6280 -0.8097
13779TIP3   OH262751   5.418   6.749  16.613 -0.1869 -0.1742 -0.1892
13779TIP3    H162752   5.459   6.713  16.692 -3.1905  0.1354  1.5795
13779TIP3    H262753   5.466   6.830  16.597  0.2240 -0.0316  1.5529
13780TIP3   OH262754   6.732   4.070   3.210  0.2130 -0.3229  0.5066
13780TIP3    H162755   6.691   4.110   3.134 -1.6550 -1.6704  0.7606
13780TIP3    H262756   6.825   4.091   3.202 -0.0399 -0.0317 -1.8741
13781TIP3   OH262757   4.405   4.737   3.903  0.0962 -0.3190  0.6008
13781TIP3    H162758   4.333   4.675   3.916 -2.1786  1.7007 -1.8638
13781TIP3    H262759   4.419   4.776   3.990 -3.5732  1.0937  0.6316
13782TIP3   OH262760   6.462   2.082  14.261 -0.7495 -0.2312  0.2679
13782TIP3    H162761   6.391   2.055  14.319 -0.1932 -0.4578  0.8534
13782TIP3    H262762   6.511   2.002  14.243  0.8871  0.3335  1.9849
13783TIP3   OH262763   5.840   6.614   1.884  0.3207 -0.1449 -0.0403
13783TIP3    H162764   5.897   6.548   1.923  1.6940  0.8169 -0.3981
13783TIP3    H262765   5.783   6.564   1.826  1.4003 -1.0086 -0.3761
13784TIP3   OH262766   3.711   4.686  12.649  0.0988 -0.1237 -0.1444
13784TIP3    H162767   3.621   4.699  12.677  0.1800 -0.7085  0.3997
13784TIP3    H262768   3.760   4.674  12.731  0.6372 -0.0089 -0.4442
13785TIP3   OH262769   6.459   3.552   5.710  0.1083 -0.8201  0.0470
13785TIP3    H162770   6.412   3.577   5.788 -1.0326 -0.0060 -0.8943
13785TIP3    H262771   6.412   3.475   5.676  0.5379 -1.1097  0.0908
13786TIP3   OH262772   2.789   5.652  13.108  0.0083 -0.1288 -0.3299
13786TIP3    H162773   2.798   5.745  13.088 -0.2231 -0.1154 -0.3819
13786TIP3    H262774   2.739   5.616  13.034  3.0752 -0.9879 -2.0787
13787TIP3   OH262775   6.337   2.372   2.788  0.0005  0.7768  0.5970
13787TIP3    H162776   6.280   2.441   2.754 -0.3413  0.7486  1.1016
13787TIP3    H262777   6.342   2.307   2.718 -0.3299  0.9317  0.4297
13788TIP3   OH262778   4.719   6.103   3.420  0.4597 -0.1571  0.1930
13788TIP3    H162779   4.710   6.049   3.499  3.0608  1.2707  1.5302
13788TIP3    H262780   4.706   6.192   3.451 -0.8387  0.2561 -1.4789
13789TIP3   OH262781   0.324   6.285  12.432  0.1021 -0.0956 -0.2331
13789TIP3    H162782   0.286   6.219  12.374  0.6304  0.0818 -0.7926
13789TIP3    H262783   0.417   6.263  12.436 -0.0261 -0.4622  1.0355
13790TIP3   OH262784   4.126   2.447  12.745  0.4608  0.4417 -0.7874
13790TIP3    H162785   4.085   2.365  12.773  1.7121 -0.3511 -1.2518
13790TIP3    H262786   4.058   2.492  12.694  0.2068 -0.9015 -1.6451
13791TIP3   OH262787   6.396   1.293  12.110  1.0287  0.1037 -0.5443
13791TIP3    H162788   6.488   1.311  12.128  1.0156  0.7138 -1.0589
13791TIP3    H262789   6.383   1.321  12.019 -0.0997  1.7535  0.0972
13792TIP3   OH262790   2.728   3.040   1.420  0.0260  0.1898  0.6136
13792TIP3    H162791   2.756   3.124   1.457  1.6725  1.0979 -2.4352
13792TIP3    H262792   2.634   3.050   1.406  0.1379  1.3959  0.6245
13793TIP3   OH262793   1.076   4.536  12.885  0.0208  0.0487 -0.9068
13793TIP3    H162794   1.014   4.569  12.819 -0.3048  3.2353  0.8553
13793TIP3    H262795   1.027   4.542  12.967  1.4218 -1.0131  0.0123
13794TIP3   OH262796   1.432   3.126  12.840 -0.0344 -0.0823  0.4156
13794TIP3    H162797   1.527   3.140  12.843  0.1811 -1.6041  0.8336
13794TIP3    H262798   1.401   3.156  12.925  0.0380  0.6147  0.2007
13795TIP3   OH262799   4.270   1.139  11.988 -0.0099 -0.3826  0.4101
13795TIP3    H162800   4.301   1.192  12.062 -0.0043 -0.7715  0.6905
13795TIP3    H262801   4.233   1.202  11.926  3.3466  0.3571 -0.9559
13796TIP3   OH262802   1.995   0.608  11.727 -0.3763  0.1033  0.0133
13796TIP3    H162803   1.909   0.572  11.704 -1.2131  2.3663 -0.4914
13796TIP3    H262804   2.008   0.581  11.818 -2.2238  0.8530  0.5313
13797TIP3   OH262805   4.156   3.124   0.826  0.2797  0.3386 -0.3903
13797TIP3    H162806   4.177   3.065   0.898 -0.5206 -0.9277 -1.1578
13797TIP3    H262807   4.186   3.078   0.748 -2.1469  0.0102 -1.1853
13798TIP3   OH262808   6.671   0.508   1.755 -0.2345  0.3528  0.3917
13798TIP3    H162809   6.719   0.526   1.674  1.4699  3.2825  1.9757
13798TIP3    H262810   6.739   0.497   1.821 -1.5790 -2.8541  1.3204
13799TIP3   OH262811   4.642   2.853   1.387 -0.3591  0.2631 -0.4298
13799TIP3    H162812   4.606   2.841   1.299 -0.1647 -1.5905 -0.2753
13799TIP3    H262813   4.722   2.903   1.374  0.1875 -0.8321 -1.4392
13800TIP3   OH262814   6.105   5.326  11.353  0.8430 -0.0711  0.1468
13800TIP3    H162815   6.157   5.364  11.424  0.7790  1.2410 -0.4885
13800TIP3    H262816   6.014   5.333  11.384  0.9905 -2.0290  1.1019
13801TIP3   OH262817   6.047   4.913   5.085  0.7927 -0.0630  0.3650
13801TIP3    H162818   5.989   4.957   5.147  0.2783 -0.9182  0.4974
13801TIP3    H262819   6.060   4.978   5.015  0.1184  0.3376  0.6044
13802TIP3   OH262820   1.390   4.767   3.576  0.3022 -0.1602  0.1132
13802TIP3    H162821   1.377   4.683   3.531  0.2966 -0.6785  1.0806
13802TIP3    H262822   1.464   4.807   3.531  0.9845 -1.1599  0.3377
13803TIP3   OH262823   3.702   6.571   1.377 -0.7572 -0.1026  0.0695
13803TIP3    H162824   3.752   6.606   1.450  0.3108  0.3926 -0.8949
13803TIP3    H262825   3.612   6.564   1.411 -0.8893  2.9493  0.5156
13804TIP3   OH262826   4.279   3.367   4.500  0.4093  0.0330  0.5629
13804TIP3    H162827   4.313   3.287   4.461 -1.5100 -0.6368  0.2232
13804TIP3    H262828   4.233   3.338   4.579 -1.1183  0.6869 -0.0786
13805TIP3   OH262829   4.967   1.119  11.526 -0.4696 -0.4258 -0.3097
13805TIP3    H162830   5.021   1.114  11.605 -0.5026  2.0846 -0.0757
13805TIP3    H262831   5.028   1.145  11.457 -1.1212  1.2923 -0.2769
13806TIP3   OH262832   6.178   2.247  11.348  0.6451  0.2256  0.2437
13806TIP3    H162833   6.175   2.296  11.430 -1.2081 -1.9180  1.5450
13806TIP3    H262834   6.173   2.314  11.280 -0.5049  1.9210  1.9288
13807TIP3   OH262835   3.187   4.729  17.064 -0.0388 -0.0866  0.1981
13807TIP3    H162836   3.238   4.805  17.092  0.6040 -0.1197 -0.8720
13807TIP3    H262837   3.252   4.664  17.038 -0.5984 -0.2790 -0.7717
13808TIP3   OH262838   2.597   6.685   5.625 -0.0837  0.6024 -0.6980
13808TIP3    H162839   2.667   6.745   5.601  0.9804 -0.2808  0.1449
13808TIP3    H262840   2.605   6.612   5.563 -1.8823  1.6766 -2.2423
13809TIP3   OH262841   5.847   6.274   1.532  0.1190 -0.0965 -0.3598
13809TIP3    H162842   5.862   6.180   1.524  0.4579  0.0501 -1.5477
13809TIP3    H262843   5.932   6.309   1.560  0.0927 -0.1000 -0.2768
13810TIP3   OH262844   2.735   6.305   5.500 -0.1822  0.1304 -0.0100
13810TIP3    H162845   2.810   6.295   5.559 -1.2003 -1.0598  1.1375
13810TIP3    H262846   2.746   6.235   5.435 -0.6509 -0.4772  0.5613
13811TIP3   OH262847   6.677   1.402  11.069 -0.0892 -0.0562 -0.1179
13811TIP3    H162848   6.719   1.319  11.044  1.7926  1.1165 -0.8736
13811TIP3    H262849   6.638   1.435  10.988 -0.3408  0.1040  0.0660
13812TIP3   OH262850   3.728   1.446  10.899 -0.0315  0.4030 -0.0409
13812TIP3    H162851   3.751   1.531  10.939  2.1739 -0.4946  0.6676
13812TIP3    H262852   3.742   1.459  10.805  2.0503  0.3232  0.2348
13813TIP3   OH262853   1.067   4.455   0.313  0.5102 -0.5247  0.0211
13813TIP3    H162854   1.141   4.516   0.307  0.7504 -0.8096  0.1159
13813TIP3    H262855   1.014   4.475   0.235  0.5648 -0.1610  0.0775
13814TIP3   OH262856   4.693   4.875  13.505  0.2785  0.3770 -0.7747
13814TIP3    H162857   4.687   4.952  13.560  0.3649 -0.5399  0.5380
13814TIP3    H262858   4.739   4.810  13.559  2.5403  0.2314 -2.7711
13815TIP3   OH262859   4.329   6.189  16.533 -0.5176  0.0802 -0.0422
13815TIP3    H162860   4.376   6.107  16.512  0.1413 -0.0503  1.8675
13815TIP3    H262861   4.366   6.253  16.473  0.4269 -0.5672 -0.1699
13816TIP3   OH262862   3.003   2.731   5.138  0.3014 -0.7582  0.2436
13816TIP3    H162863   3.066   2.767   5.076 -1.3460  1.2633 -0.3244
13816TIP3    H262864   2.946   2.804   5.159 -1.3312 -2.3202  1.3997
13817TIP3   OH262865   1.121   1.306  13.885  0.1020 -0.0159  0.1795
13817TIP3    H162866   1.043   1.320  13.831  0.4594  0.6227 -0.1913
13817TIP3    H262867   1.180   1.377  13.859  0.8052 -0.4968  0.4533
13818TIP3   OH262868   4.328   1.094  15.437 -0.2670  0.2801 -0.3688
13818TIP3    H162869   4.422   1.098  15.425 -0.3276  2.6689 -0.1547
13818TIP3    H262870   4.311   1.004  15.466  1.9553 -0.0563 -0.0866
13819TIP3   OH262871   3.640   4.024   4.011 -0.4582  0.0191 -0.4355
13819TIP3    H162872   3.714   3.964   4.006 -1.3194 -1.0554 -0.3544
13819TIP3    H262873   3.580   3.995   3.943  0.3100  2.4684 -2.2338
13820TIP3   OH262874   4.712   3.625   2.618 -0.2035  0.1811  0.2185
13820TIP3    H162875   4.713   3.653   2.527  1.0909  0.1033  0.2007
13820TIP3    H262876   4.667   3.540   2.616  1.8342 -0.9289 -0.7036
13821TIP3   OH262877   4.041   5.580   0.987  0.0237 -0.4079  0.1192
13821TIP3    H162878   4.105   5.651   0.985  0.6457 -0.9650  0.3449
13821TIP3    H262879   4.007   5.582   1.077 -1.2918  0.7728 -0.3641
13822TIP3   OH262880   0.307   4.237   1.415  0.1930 -0.1772  0.0124
13822TIP3    H162881   0.392   4.197   1.430 -0.4054 -1.3113  0.4162
13822TIP3    H262882   0.257   4.217   1.494 -0.4746  0.4310 -0.2498
13823TIP3   OH262883   3.357   6.244  17.151  0.6388 -0.0753 -0.1225
13823TIP3    H162884   3.314   6.318  17.193 -0.4943  0.1263 -1.5674
13823TIP3    H262885   3.372   6.181  17.221  0.1223  0.8517  0.8283
13824TIP3   OH262886   4.253   2.616  11.525  0.1337 -0.1905  0.6198
13824TIP3    H162887   4.208   2.532  11.535 -0.7270  0.1827 -0.0013
13824TIP3    H262888   4.331   2.609  11.580  0.8118 -1.9284 -0.4992
13825TIP3   OH262889   5.103   0.275  13.884  0.1795  0.3905 -0.2337
13825TIP3    H162890   5.039   0.287  13.814  0.6900 -0.9386 -0.9473
13825TIP3    H262891   5.157   0.202  13.855  1.5495  1.0022  0.7093
13826TIP3   OH262892   4.527   5.571   3.293 -0.4386 -0.4375 -0.9375
13826TIP3    H162893   4.502   5.503   3.355 -0.7941 -1.2233 -1.9288
13826TIP3    H262894   4.453   5.632   3.293  1.1711  1.6586  2.2698
13827TIP3   OH262895   3.845   1.636   2.613 -0.3767 -0.0678  0.4075
13827TIP3    H162896   3.888   1.553   2.595 -0.6971 -0.0811 -0.2952
13827TIP3    H262897   3.870   1.693   2.540 -2.0240 -0.2548 -0.3124
13828TIP3   OH262898   5.175   4.753  12.081  0.2406  0.0855 -0.3592
13828TIP3    H162899   5.123   4.674  12.098  1.0935 -0.2667  0.6954
13828TIP3    H262900   5.176   4.761  11.986 -2.2232  0.4272 -0.3780
13829TIP3   OH262901   2.227   0.929  10.872 -0.7081  0.5433  0.2527
13829TIP3    H162902   2.178   0.858  10.831 -1.8662  0.9129  0.9603
13829TIP3    H262903   2.224   0.910  10.966 -1.7138  1.9241  0.5275
13830TIP3   OH262904   2.826   2.060  14.688  0.2240 -0.0510  0.1979
13830TIP3    H162905   2.741   2.105  14.692  0.5233  0.6182 -0.8729
13830TIP3    H262906   2.852   2.065  14.596  0.7744 -1.4840  0.2640
13831TIP3   OH262907   2.012   5.678   5.775  0.0581 -0.0001 -0.0808
13831TIP3    H162908   2.078   5.670   5.706 -0.8071  1.2275 -1.0872
13831TIP3    H262909   1.929   5.683   5.728 -0.7213 -1.0494  1.1556
13832TIP3   OH262910   0.362   0.101  12.306  0.6001 -0.2229 -0.1866
13832TIP3    H162911   0.326   0.189  12.298  2.1025  0.3822 -0.4636
13832TIP3    H262912   0.362   0.084  12.400 -0.2284 -0.1589 -0.1713
13833TIP3   OH262913   4.048   0.257   2.091  0.1457  0.5972 -0.0754
13833TIP3    H162914   4.091   0.280   2.173 -0.5395  0.5002  0.3033
13833TIP3    H262915   4.038   0.340   2.045  1.2715  0.5591 -0.4344
13834TIP3   OH262916   0.443   2.458   0.606 -0.2760 -0.1256  0.0204
13834TIP3    H162917   0.465   2.370   0.636  0.1171  0.0953  0.3805
13834TIP3    H262918   0.372   2.445   0.543 -0.8898 -0.6212  0.8120
13835TIP3   OH262919   1.795   4.690   5.063  0.1853 -0.2603 -0.2958
13835TIP3    H162920   1.886   4.666   5.084 -0.0183  0.1733  1.1247
13835TIP3    H262921   1.750   4.689   5.148 -0.9449  0.3267 -0.8866
13836TIP3   OH262922   4.134   3.535   1.036  0.0751 -1.0994  0.4470
13836TIP3    H162923   4.196   3.594   1.077  1.5832  0.2014 -3.4367
13836TIP3    H262924   4.178   3.450   1.037  0.1978 -1.0234  1.2935
13837TIP3   OH262925   0.229   2.743  16.335 -0.8189 -0.2529  0.2904
13837TIP3    H162926   0.310   2.702  16.306 -1.4612 -0.9587 -0.5600
13837TIP3    H262927   0.172   2.669  16.358 -0.4932  0.2848  2.9669
13838TIP3   OH262928   2.121   2.506   4.219  0.5864  0.1876  0.0051
13838TIP3    H162929   2.174   2.585   4.207 -1.1943  1.2377 -1.3541
13838TIP3    H262930   2.057   2.509   4.147  0.3053 -2.3560  0.1012
13839TIP3   OH262931   3.489   0.709  12.542  0.0834 -0.1121 -0.1481
13839TIP3    H162932   3.399   0.736  12.523 -0.4037 -0.4528  1.6208
13839TIP3    H262933   3.530   0.786  12.581  0.3128 -0.2124 -0.1878
13840TIP3   OH262934   2.248   5.902   4.245  0.0953  0.1009 -0.2616
13840TIP3    H162935   2.329   5.907   4.297  0.3152  3.2523 -0.7912
13840TIP3    H262936   2.269   5.842   4.174  1.1429 -1.0278  0.9557
13841TIP3   OH262937   1.053   0.884   0.229 -0.2770  0.1707  0.6585
13841TIP3    H162938   1.104   0.807   0.254 -0.6877 -0.2078  0.3347
13841TIP3    H262939   0.962   0.857   0.241 -0.5486 -0.3551 -2.1330
13842TIP3   OH262940   5.689   3.782   1.189  0.2799  0.0493  0.3613
13842TIP3    H162941   5.668   3.735   1.269  1.2509  1.4185  1.4445
13842TIP3    H262942   5.754   3.727   1.145  1.6163  0.4960  1.7547
13843TIP3   OH262943   0.147   4.122  15.180  0.2850 -0.2065  0.3190
13843TIP3    H162944   0.134   4.035  15.141  0.9966  0.3413 -1.2148
13843TIP3    H262945   0.190   4.104  15.264 -3.1787 -1.5337  1.8928
13844TIP3   OH262946   3.511   6.022   3.870 -0.3908 -0.3651 -0.2240
13844TIP3    H162947   3.511   6.000   3.963  3.0668  0.5581  0.0562
13844TIP3    H262948   3.502   6.118   3.869  1.0172 -0.2311 -0.7645
13845TIP3   OH262949   4.095   3.735   5.914 -0.3943  0.2399 -0.3328
13845TIP3    H162950   4.129   3.694   5.993  0.3053  1.1921 -0.1333
13845TIP3    H262951   4.026   3.675   5.884 -0.2475 -0.4342  0.6442
13846TIP3   OH262952   2.134   6.625  14.815  0.4224  0.0774  0.1901
13846TIP3    H162953   2.161   6.544  14.772 -1.5788 -1.2315  1.2793
13846TIP3    H262954   2.132   6.691  14.745  3.6435 -0.3893 -0.4033
13847TIP3   OH262955   2.649   2.838   6.609  0.0529  0.1117  0.3419
13847TIP3    H162956   2.654   2.898   6.684 -0.3540 -0.8482  1.1509
13847TIP3    H262957   2.564   2.855   6.570 -0.7281 -1.0129  1.5071
13848TIP3   OH262958   0.069   5.359  11.716  0.2201 -0.1424  0.1297
13848TIP3    H162959   0.038   5.418  11.648  1.3792  0.5199  0.1660
13848TIP3    H262960  -0.010   5.335  11.765 -0.4545  0.2581 -0.7501
13849TIP3   OH262961   4.849   5.936   5.355 -0.0114 -0.1607  0.3168
13849TIP3    H162962   4.884   5.896   5.435  0.2969 -0.2299  0.1483
13849TIP3    H262963   4.770   5.886   5.335 -0.0736 -0.1611  0.5615
13850TIP3   OH262964   3.504   4.410   3.430  0.2153  0.1345  0.3691
13850TIP3    H162965   3.562   4.363   3.369 -0.0549  0.0177  0.2033
13850TIP3    H262966   3.424   4.424   3.381 -0.3601 -0.8162  1.0125
13851TIP3   OH262967   1.281   4.284  13.663  0.2915 -0.2590  0.2785
13851TIP3    H162968   1.372   4.286  13.633 -0.3714 -0.5138 -1.9038
13851TIP3    H262969   1.259   4.191  13.665  0.1179 -0.2026  0.8816
13852TIP3   OH262970   4.819   4.475   5.223  0.2649 -0.4642 -0.1469
13852TIP3    H162971   4.891   4.525   5.259 -1.1425  0.7603  1.0370
13852TIP3    H262972   4.830   4.387   5.258  0.9626 -0.1816  0.3456
13853TIP3   OH262973   4.969   6.623   3.590 -0.9272  0.0167  0.1385
13853TIP3    H162974   5.004   6.547   3.542 -2.0353 -1.3093  1.3856
13853TIP3    H262975   4.895   6.652   3.538 -1.3085 -0.5839  0.3456
13854TIP3   OH262976   3.398   5.657   1.937 -0.0618  0.1017  0.8113
13854TIP3    H162977   3.318   5.684   1.891 -0.0272 -0.2859  0.5225
13854TIP3    H262978   3.369   5.586   1.994  0.3392 -0.9365 -0.2763
13855TIP3   OH262979   2.904   6.141  10.269 -0.0504 -0.2055 -0.5545
13855TIP3    H162980   2.874   6.066  10.320  1.3213 -0.4709 -0.1043
13855TIP3    H262981   2.966   6.104  10.206  1.7316  0.6997  0.6005
13856TIP3   OH262982   4.601   4.336   3.194 -0.0818  0.1048  0.3222
13856TIP3    H162983   4.638   4.375   3.273 -1.4185  1.0852  0.4787
13856TIP3    H262984   4.603   4.406   3.129 -1.6447  0.1812  0.3381
13857TIP3   OH262985   2.857   0.680   4.191 -0.7787  0.3783  0.1435
13857TIP3    H162986   2.929   0.663   4.251 -2.6014 -2.3776  1.6357
13857TIP3    H262987   2.838   0.596   4.151 -0.9764  1.7547 -2.8242
13858TIP3   OH262988   0.394   1.253  11.802 -0.0291 -0.1155  0.3983
13858TIP3    H162989   0.334   1.322  11.833  1.2247  0.5781  1.3235
13858TIP3    H262990   0.480   1.294  11.803  0.5161 -1.2156 -0.6125
13859TIP3   OH262991   3.718   5.620  11.661  0.0598  0.3911 -0.6832
13859TIP3    H162992   3.644   5.570  11.624 -0.9940  1.9097 -0.6734
13859TIP3    H262993   3.705   5.709  11.628 -1.0684  1.8848  3.5209
13860TIP3   OH262994   3.136   1.809   5.414 -0.1045  0.7046  0.2284
13860TIP3    H162995   3.047   1.841   5.400 -0.2543  0.1318 -0.1223
13860TIP3    H262996   3.188   1.855   5.347 -0.5705 -0.8962 -1.2670
13861TIP3   OH262997   5.919   1.089  14.299 -0.4536  0.0284  0.0218
13861TIP3    H162998   5.834   1.083  14.255 -0.5930  0.0188  0.2942
13861TIP3    H262999   5.904   1.147  14.373 -0.2219  0.0255  0.0730
13862TIP3   OH263000   1.373   2.896  16.326  0.2273  0.6246  0.1893
13862TIP3    H163001   1.400   2.961  16.261 -0.2135 -0.1444 -0.7893
13862TIP3    H263002   1.408   2.928  16.409  1.3173  1.3152 -0.5276
13863TIP3   OH263003   4.306   3.021   1.537 -0.3351 -0.1224  0.2531
13863TIP3    H163004   4.224   2.980   1.512 -0.1706  0.7511 -1.8225
13863TIP3    H263005   4.283   3.113   1.552  0.0756 -0.0754  0.5874
13864TIP3   OH263006   6.396   1.657   0.402  0.2618  0.0055  0.5918
13864TIP3    H163007   6.394   1.631   0.494  0.0493 -0.7856  0.3710
13864TIP3    H263008   6.427   1.747   0.403 -2.6979  1.0620  1.6559
13865TIP3   OH263009   6.148   3.530  13.492 -0.3064 -0.2142 -0.7267
13865TIP3    H163010   6.074   3.588  13.471 -0.6195 -0.4962 -0.4090
13865TIP3    H263011   6.224   3.573  13.453 -0.2098  1.4872  1.2863
13866TIP3   OH263012   0.727   4.945   4.656  0.3768  0.2642  0.5947
13866TIP3    H163013   0.679   5.025   4.636 -1.7770 -1.0526  0.3793
13866TIP3    H263014   0.745   4.951   4.750 -0.5904  0.5698  0.7637
13867TIP3   OH263015   6.208   5.961   1.233 -0.3299 -0.3850  0.0714
13867TIP3    H163016   6.270   5.915   1.177  0.5849 -0.8210  1.4061
13867TIP3    H263017   6.261   5.989   1.308 -1.1588  1.6401 -0.0677
13868TIP3   OH263018   3.130   2.722   4.660  0.0194  0.0482  0.4020
13868TIP3    H163019   3.075   2.767   4.724 -0.5241  1.1109 -0.8078
13868TIP3    H263020   3.095   2.632   4.658 -1.9363  0.8179 -0.6552
13869TIP3   OH263021   0.560   3.766   1.783  0.0879  0.0487 -0.2049
13869TIP3    H163022   0.544   3.676   1.757 -1.0830 -0.2852  1.5895
13869TIP3    H263023   0.524   3.773   1.871 -2.1292  2.9448 -1.2338
13870TIP3   OH263024   2.052   0.890   0.256 -0.5629  0.6818 -0.1907
13870TIP3    H163025   2.136   0.891   0.210 -0.3834  0.1678  0.1234
13870TIP3    H263026   2.041   0.980   0.287 -0.9096  1.1503 -1.6364
13871TIP3   OH263027   5.398   4.572  13.168  0.4519  0.3052 -0.5782
13871TIP3    H163028   5.492   4.591  13.176  0.3374  0.7910 -0.3782
13871TIP3    H263029   5.355   4.657  13.179  0.0137  0.1631 -1.1460
13872TIP3   OH263030   6.066   6.212  15.400 -0.5148 -0.1755 -0.3503
13872TIP3    H163031   6.006   6.285  15.418 -0.8300 -0.0736 -1.7425
13872TIP3    H263032   6.010   6.135  15.400 -0.6350 -0.0982 -1.4945
13873TIP3   OH263033   4.654   4.107   3.327  0.0334 -0.1966  0.4418
13873TIP3    H163034   4.603   4.030   3.302  0.2724 -0.3457  0.4098
13873TIP3    H263035   4.646   4.166   3.253  0.8647 -0.6985 -0.0680
13874TIP3   OH263036   2.685   2.094   2.240 -0.0660  0.9029 -0.2406
13874TIP3    H163037   2.772   2.132   2.245  1.1344 -1.5820 -1.1653
13874TIP3    H263038   2.685   2.025   2.306 -2.2858  2.6092  1.6128
13875TIP3   OH263039   2.890   6.117   4.971  0.0807 -0.3318 -0.0022
13875TIP3    H163040   2.932   6.041   5.010  1.2902  0.7021  0.7564
13875TIP3    H263041   2.834   6.081   4.903  0.5953 -1.9031  0.3852
13876TIP3   OH263042   5.560   2.921   3.637  0.1002 -0.3546  0.1500
13876TIP3    H163043   5.566   2.922   3.732  0.0558 -0.9353  0.1613
13876TIP3    H263044   5.594   2.835   3.612 -0.6168 -0.5063 -0.3056
13877TIP3   OH263045   2.796   0.517   2.835  0.0031 -0.1687 -0.0991
13877TIP3    H163046   2.804   0.515   2.739 -0.4956  1.0652 -0.1809
13877TIP3    H263047   2.884   0.540   2.865 -0.3618  1.7541 -0.4014
13878TIP3   OH263048   1.263   3.666   4.674  0.4385  0.8349  0.1481
13878TIP3    H163049   1.304   3.596   4.623 -0.7522 -0.9160  1.5152
13878TIP3    H263050   1.201   3.706   4.613  1.1128  0.6702 -0.6515
13879TIP3   OH263051   5.110   5.838  16.724 -0.0551 -0.0710  0.5070
13879TIP3    H163052   5.071   5.775  16.784 -0.1949 -1.2869 -0.8515
13879TIP3    H263053   5.195   5.799  16.701 -0.0464  0.3490 -0.1669
13880TIP3   OH263054   3.062   3.182   2.687  0.3183  0.2070  0.1837
13880TIP3    H163055   3.086   3.156   2.776 -2.4930 -0.2312  0.8574
13880TIP3    H263056   2.980   3.230   2.697 -0.0036  0.2167 -2.1687
13881TIP3   OH263057   1.393   6.484  12.309 -0.4237  0.0673 -0.6778
13881TIP3    H163058   1.307   6.505  12.345 -0.7124 -0.1588 -1.2414
13881TIP3    H263059   1.384   6.494  12.215  0.2469  0.3231 -0.7231
13882TIP3   OH263060   2.717   1.137  12.663  0.1278  0.2275  0.3229
13882TIP3    H163061   2.754   1.066  12.611 -0.6939  0.5946 -0.7795
13882TIP3    H263062   2.645   1.096  12.712 -0.1473  0.2246 -0.0782
13883TIP3   OH263063   6.052   2.489  11.205 -0.6430 -0.5093 -0.7724
13883TIP3    H163064   5.980   2.510  11.265  0.5902  2.3715 -0.2237
13883TIP3    H263065   6.016   2.503  11.118 -1.0361  0.0393 -0.5265
13884TIP3   OH263066   6.395   1.297  11.022 -0.2895  0.0397  0.2144
13884TIP3    H163067   6.326   1.283  10.956 -1.1999  0.2970  1.0987
13884TIP3    H263068   6.443   1.373  10.990  0.3561 -0.8796 -1.0418
13885TIP3   OH263069   0.911   5.416   1.475  0.1453  0.1362 -0.0837
13885TIP3    H163070   0.911   5.446   1.566 -1.3970 -0.1751  0.0351
13885TIP3    H263071   0.901   5.321   1.481 -0.0599  0.1226 -0.5712
13886TIP3   OH263072   1.180   6.472   5.303  0.5563 -0.0705  0.7136
13886TIP3    H163073   1.240   6.487   5.376  0.0111  1.9052  0.7781
13886TIP3    H263074   1.099   6.515   5.329  0.1127 -0.0279 -0.7037
13887TIP3   OH263075   5.476   3.037   1.631 -0.1440  0.7616 -0.2945
13887TIP3    H163076   5.498   2.952   1.669 -0.2750  0.5539 -0.6720
13887TIP3    H263077   5.425   3.081   1.699 -0.3630  0.4015 -0.2212
13888TIP3   OH263078   0.285   5.274  16.101 -0.1068 -0.0430  0.2948
13888TIP3    H163079   0.336   5.355  16.097 -0.3234  0.0935  0.2988
13888TIP3    H263080   0.350   5.205  16.085 -0.3587  0.2712 -2.3436
13889TIP3   OH263081   3.792   2.924   4.985  0.2334 -0.0219  0.6431
13889TIP3    H163082   3.750   2.860   5.043 -1.1212  1.6139  1.5232
13889TIP3    H263083   3.885   2.904   4.991 -0.1761 -1.9937  0.7957
13890TIP3   OH263084   3.486   0.625  15.768  0.0260  0.0746 -0.2787
13890TIP3    H163085   3.435   0.617  15.848 -0.0714  0.4688 -0.3016
13890TIP3    H263086   3.444   0.696  15.720 -0.9063 -1.1875 -1.3976
13891TIP3   OH263087   1.740   3.287  16.238 -0.6336  0.0937 -0.6367
13891TIP3    H163088   1.745   3.192  16.253  0.5164  0.1495 -0.6723
13891TIP3    H263089   1.667   3.316  16.293 -0.0414 -0.5815  0.5176
13892TIP3   OH263090   3.003   2.527  14.803 -0.1328  0.0694 -0.7948
13892TIP3    H163091   2.922   2.566  14.772 -0.2720  0.7496  0.4249
13892TIP3    H263092   3.046   2.495  14.723 -0.0446  2.6240 -1.8199
13893TIP3   OH263093   3.712   3.735  13.159 -0.7963 -0.1597  0.8809
13893TIP3    H163094   3.635   3.766  13.111 -0.0341  0.3301 -0.0380
13893TIP3    H263095   3.779   3.801  13.142 -0.4976 -0.0045  2.5912
13894TIP3   OH263096   0.272   4.990   5.755 -0.6693 -0.0756  0.6770
13894TIP3    H163097   0.294   5.023   5.668  0.8402 -1.0820  0.6525
13894TIP3    H263098   0.176   4.980   5.754 -0.7954  1.1458 -0.4058
13895TIP3   OH263099   1.020   6.076   2.188 -0.2505 -1.2476 -0.0261
13895TIP3    H163100   0.948   6.019   2.214 -1.6304  0.3786 -0.1646
13895TIP3    H263101   1.037   6.052   2.097 -1.5533 -0.7195 -0.4240
13896TIP3   OH263102   5.686   1.702   4.044 -0.2919  0.0125  0.1371
13896TIP3    H163103   5.759   1.711   3.984  0.6054  0.0658  1.2298
13896TIP3    H263104   5.640   1.623   4.014  1.8576 -1.6720  1.1728
13897TIP3   OH263105   2.162   3.219   3.483 -0.1434  0.6074  0.4473
13897TIP3    H163106   2.228   3.180   3.426  0.9032  2.3674  0.3968
13897TIP3    H263107   2.212   3.256   3.556 -1.0267  2.1637  0.2968
13898TIP3   OH263108   0.852   5.350  16.978  0.3848  0.0146 -0.4391
13898TIP3    H163109   0.939   5.330  17.010  0.3346  2.4698  1.3865
13898TIP3    H263110   0.794   5.338  17.053 -0.5171  0.5640 -1.0274
13899TIP3   OH263111   0.604   3.055  15.536 -0.1490  0.0576 -0.7269
13899TIP3    H163112   0.680   3.066  15.593  0.4065  0.3684 -1.5201
13899TIP3    H263113   0.544   3.125  15.561  0.1235  0.2372 -0.5799
13900TIP3   OH263114   0.612   2.324   5.447 -0.7346 -0.2603 -0.0408
13900TIP3    H163115   0.638   2.413   5.423 -1.0633  0.0935  0.8784
13900TIP3    H263116   0.683   2.292   5.502 -0.8087 -0.4052 -0.0297
13901TIP3   OH263117   2.058   5.148  12.226 -0.1676  0.7285  0.7209
13901TIP3    H163118   1.970   5.112  12.238 -0.2677  1.5218  2.5031
13901TIP3    H263119   2.045   5.243  12.229  0.3602  0.9325 -2.0093
13902TIP3   OH263120   0.759   4.551  15.903  0.2108  0.0891  0.2652
13902TIP3    H163121   0.783   4.640  15.877 -1.4698  0.2474 -0.7752
13902TIP3    H263122   0.827   4.496  15.863  0.0025  0.7088 -0.9704
13903TIP3   OH263123   3.940   3.807  11.994  0.4662  0.0422 -0.4312
13903TIP3    H163124   3.880   3.736  11.972 -0.3931  0.7095 -0.2602
13903TIP3    H263125   3.884   3.884  12.004  1.4453  0.8766 -1.2174
13904TIP3   OH263126   1.075   0.117  14.646  0.1678 -0.1608 -0.3799
13904TIP3    H163127   1.170   0.103  14.646  0.1778 -0.0967 -0.4031
13904TIP3    H263128   1.039   0.041  14.691  0.1739 -0.5929 -1.0897
13905TIP3   OH263129   1.864   3.350   4.058  0.2267 -0.0093  0.6275
13905TIP3    H163130   1.856   3.289   3.985  0.0266 -0.5574  1.1082
13905TIP3    H263131   1.801   3.420   4.038  0.6449  0.1835 -0.0523
13906TIP3   OH263132   3.778   1.896  11.867 -0.4607  0.3532 -0.1308
13906TIP3    H163133   3.868   1.875  11.893 -0.6179 -0.4449 -0.1972
13906TIP3    H263134   3.787   1.972  11.810  0.0346  1.1372  0.9729
13907TIP3   OH263135   2.440   3.654  11.212 -0.2307 -0.2432  0.2181
13907TIP3    H163136   2.490   3.682  11.136  1.5720 -1.6382  0.8438
13907TIP3    H263137   2.369   3.601  11.176 -0.7121  0.9564 -0.6198
13908TIP3   OH263138   3.201   1.558   5.269  0.8435  0.0299  0.0236
13908TIP3    H163139   3.183   1.601   5.352  0.1965 -0.1789 -0.0123
13908TIP3    H263140   3.227   1.469   5.293 -0.1723 -0.2909 -0.0434
13909TIP3   OH263141   4.847   0.441  17.078  0.2193  0.4858 -0.2525
13909TIP3    H163142   4.903   0.365  17.063  0.3880  0.6225 -0.3116
13909TIP3    H263143   4.795   0.418  17.155 -3.0360 -1.6281 -2.8883
13910TIP3   OH263144   2.958   6.688  11.297  0.2761  0.2820 -0.3169
13910TIP3    H163145   2.876   6.638  11.300 -0.1923  0.9909 -1.0744
13910TIP3    H263146   3.014   6.639  11.238 -1.2724  2.2226 -3.5261
13911TIP3   OH263147   3.651   1.223   6.010  0.2703  0.2229  0.4274
13911TIP3    H163148   3.677   1.313   6.029  0.6760  0.4067 -0.9953
13911TIP3    H263149   3.567   1.231   5.966  0.5331 -0.0666 -0.1309
13912TIP3   OH263150   3.884   4.788   6.649  0.4559 -0.2931 -0.2038
13912TIP3    H163151   3.883   4.872   6.694 -2.8711 -1.4985  2.1969
13912TIP3    H263152   3.920   4.727   6.713  2.1693 -0.8701 -1.6751
13913TIP3   OH263153   2.017   2.115  15.534  0.0816  0.4697 -0.0365
13913TIP3    H163154   2.102   2.076  15.511 -0.0876  1.0988 -1.8771
13913TIP3    H263155   1.961   2.041  15.554  0.8185 -0.0137  0.2519
13914TIP3   OH263156   0.887   3.028  14.992 -0.0521  0.1463  0.0345
13914TIP3    H163157   0.826   2.957  15.014  1.6306 -1.4391 -0.3422
13914TIP3    H263158   0.866   3.049  14.901 -1.0959  0.7038  0.3943
13915TIP3   OH263159   2.457   5.566   3.906  0.9809  0.1924 -0.0954
13915TIP3    H163160   2.523   5.562   3.975  0.7360 -0.6129  0.1058
13915TIP3    H263161   2.488   5.633   3.846  0.6662  1.6687  1.3448
13916TIP3   OH263162   2.883   6.782   2.495 -0.4643  0.1848  0.4647
13916TIP3    H163163   2.879   6.855   2.557 -1.4746 -0.1362  0.7855
13916TIP3    H263164   2.976   6.761   2.489 -0.0934  1.9095 -0.1104
13917TIP3   OH263165   5.281   0.190   5.775  0.0823 -0.5192  0.5968
13917TIP3    H163166   5.219   0.128   5.739 -0.5695 -0.3957  1.4905
13917TIP3    H263167   5.227   0.261   5.810  0.7213 -0.3328  1.2294
13918TIP3   OH263168   2.804   6.260   0.428 -0.1787  0.2229 -0.6693
13918TIP3    H163169   2.770   6.235   0.342 -2.1356 -0.2896  0.2345
13918TIP3    H263170   2.835   6.350   0.417 -0.1211  0.0461 -1.9836
13919TIP3   OH263171   6.340   0.914  15.472  0.1541 -0.8918  0.4334
13919TIP3    H163172   6.325   0.828  15.432 -2.3955  0.0831 -0.8305
13919TIP3    H263173   6.252   0.945  15.495  0.9454  1.7556  0.0329
13920TIP3   OH263174   2.386   0.233   3.210  0.0780 -0.5934  0.0340
13920TIP3    H163175   2.450   0.190   3.153  0.9749 -0.6636  1.0639
13920TIP3    H263176   2.437   0.298   3.258 -0.5859 -0.7459  0.9736
13921TIP3   OH263177   5.608   2.299  11.915 -0.1715 -0.5599  0.2242
13921TIP3    H163178   5.528   2.305  11.967  0.6517 -0.4150  1.4970
13921TIP3    H263179   5.582   2.253  11.835 -1.7074  0.2539  0.2391
13922TIP3   OH263180   1.773   6.597   3.290  0.3507  0.0761 -0.0753
13922TIP3    H163181   1.857   6.628   3.257  0.7502 -0.7151  0.1799
13922TIP3    H263182   1.709   6.661   3.259  1.0405  0.6376 -0.3320
13923TIP3   OH263183   0.822   4.547   3.137  0.3618 -0.4199  0.5464
13923TIP3    H163184   0.899   4.553   3.081 -0.4184  1.2780 -0.3852
13923TIP3    H263185   0.748   4.544   3.076 -0.5905  2.7280  1.4795
13924TIP3   OH263186   1.479   1.960  12.842  0.1445  0.3609  0.0915
13924TIP3    H163187   1.461   2.038  12.789 -1.4109  2.0827  3.0263
13924TIP3    H263188   1.554   1.920  12.800  0.5930  3.0987 -1.8810
13925TIP3   OH263189   6.226   2.145  16.722  0.1854  0.2708 -0.5121
13925TIP3    H163190   6.277   2.153  16.641 -0.9504 -1.1050 -1.3905
13925TIP3    H263191   6.281   2.186  16.789  1.6430  0.4260 -1.7653
13926TIP3   OH263192   2.505   6.505  16.419 -0.5368  0.1260 -0.2287
13926TIP3    H163193   2.546   6.533  16.501  0.6332  0.5858 -0.9570
13926TIP3    H263194   2.496   6.410  16.429  1.6665 -0.1393 -0.4515
13927TIP3   OH263195   5.368   0.371   2.590  0.2727  0.0640  0.0905
13927TIP3    H163196   5.371   0.291   2.644 -0.8495 -1.2096 -1.6791
13927TIP3    H263197   5.357   0.339   2.501 -2.2579  2.2340 -0.4476
13928TIP3   OH263198   4.683   2.819   0.109 -0.0739  0.1731  0.3390
13928TIP3    H163199   4.662   2.871   0.031 -0.6480 -0.4187  0.0937
13928TIP3    H263200   4.731   2.744   0.075  0.9263  0.6378  0.7145
13929TIP3   OH263201   3.075   3.732  13.107 -0.6552 -0.3718 -0.3107
13929TIP3    H163202   3.027   3.650  13.118 -0.6903 -0.1431  1.4180
13929TIP3    H263203   3.064   3.755  13.015 -0.6381 -2.3030 -0.7949
13930TIP3   OH263204   2.422   4.530   6.255  0.0889  0.3494  0.0997
13930TIP3    H163205   2.481   4.594   6.295  0.1919  1.8712 -2.3418
13930TIP3    H263206   2.438   4.449   6.303  3.2790  1.0319  0.2945
13931TIP3   OH263207   1.331   6.427  15.324  0.0165  0.0898 -0.9326
13931TIP3    H163208   1.399   6.475  15.277 -0.2499  1.3057 -0.1157
13931TIP3    H263209   1.260   6.490  15.335 -1.1951 -1.1365 -1.6667
13932TIP3   OH263210   4.429   4.755  13.486 -0.4356  0.3258 -0.0994
13932TIP3    H163211   4.402   4.710  13.566 -1.8207  0.4385 -0.4912
13932TIP3    H263212   4.521   4.774  13.500 -0.8719  1.1882  1.8868
13933TIP3   OH263213   5.246   4.348  11.528 -0.3077  0.0747  0.1531
13933TIP3    H163214   5.312   4.310  11.587 -1.8023 -1.0872  1.1322
13933TIP3    H263215   5.163   4.311  11.559 -1.4216  1.5387 -1.0295
13934TIP3   OH263216   0.555   0.975  12.688  0.4617 -0.3230 -0.4555
13934TIP3    H163217   0.484   0.913  12.671 -2.3652  2.2418  1.4656
13934TIP3    H263218   0.557   1.031  12.610 -0.4168  0.2975 -0.0413
13935TIP3   OH263219   5.291   5.962   0.348 -0.0431  0.5105  0.7097
13935TIP3    H163220   5.344   6.038   0.326  0.2014  0.1757  0.1374
13935TIP3    H263221   5.300   5.953   0.443  1.8217 -0.2042  0.4770
13936TIP3   OH263222   0.660   1.014   1.167 -0.4614 -0.0820  0.1463
13936TIP3    H163223   0.578   1.025   1.118 -0.1461  1.5447 -0.0329
13936TIP3    H263224   0.701   0.937   1.128 -1.8720 -0.8581  0.1887
13937TIP3   OH263225   6.615   4.066   2.932  0.2514 -0.2733  0.1656
13937TIP3    H163226   6.675   3.997   2.904 -1.3516 -1.7942  0.4354
13937TIP3    H263227   6.550   4.021   2.986 -1.0244  1.3834  0.0395
13938TIP3   OH263228   0.678   4.679   4.602  0.2602  0.1196 -0.3127
13938TIP3    H163229   0.696   4.771   4.621 -0.0201 -0.0821  0.9913
13938TIP3    H263230   0.737   4.630   4.660 -1.5822 -0.5155  1.0908
13939TIP3   OH263231   1.170   2.064  12.602  0.3718 -0.0186  0.0934
13939TIP3    H163232   1.247   2.118  12.620  0.2156  0.2423 -0.0138
13939TIP3    H263233   1.155   2.016  12.683 -0.1825  0.9723  0.5864
13940TIP3   OH263234   3.730   2.947   3.533  0.0116 -0.2760 -0.4640
13940TIP3    H163235   3.700   2.920   3.619 -1.3415  0.9016 -0.5401
13940TIP3    H263236   3.770   2.868   3.495 -1.2975 -1.3852  0.4092
13941TIP3   OH263237   0.903   2.128  11.216 -0.2932  0.0772  0.1271
13941TIP3    H163238   0.991   2.101  11.241  0.0774 -0.1132 -1.3575
13941TIP3    H263239   0.901   2.222  11.233 -0.0863 -0.0681  0.9692
13942TIP3   OH263240   4.581   4.029   2.978  0.4748  0.0158 -0.4130
13942TIP3    H163241   4.571   3.977   3.058 -0.5064  0.8368 -0.0028
13942TIP3    H263242   4.603   3.964   2.910 -0.5291 -0.9151  0.1367
13943TIP3   OH263243   0.109   6.174   3.484  0.4337 -0.0270  0.3636
13943TIP3    H163244   0.104   6.128   3.568 -0.8627 -2.5960 -1.0619
13943TIP3    H263245   0.058   6.254   3.497 -4.0118 -2.7375  0.6603
13944TIP3   OH263246   4.016   3.918   3.274  0.4495  0.1115  0.3841
13944TIP3    H163247   4.067   3.877   3.343  0.6762  1.3383  0.9652
13944TIP3    H263248   3.983   3.845   3.221  2.8175 -0.7189 -0.0170
13945TIP3   OH263249   1.938   2.890   1.848 -0.4398 -0.2065 -0.1870
13945TIP3    H163250   1.902   2.937   1.923  2.9285 -1.1573  2.0944
13945TIP3    H263251   1.989   2.955   1.800 -0.6248 -0.1788 -0.3511
13946TIP3   OH263252   3.586   0.360   0.621 -0.4144 -0.2052 -0.9700
13946TIP3    H163253   3.521   0.293   0.641 -1.0462  0.8480  0.6604
13946TIP3    H263254   3.639   0.366   0.700  1.0805 -0.3881 -1.9463
13947TIP3   OH263255   2.879   3.865   4.949  0.0525 -0.2252  0.0380
13947TIP3    H163256   2.830   3.868   5.032 -0.7419 -2.8181 -0.3105
13947TIP3    H263257   2.914   3.954   4.940 -3.9534  1.5438  0.6675
13948TIP3   OH263258   0.927   3.175   4.639 -0.3284 -0.2209 -0.1196
13948TIP3    H163259   0.946   3.081   4.645 -1.3036 -0.4140 -0.0969
13948TIP3    H263260   0.931   3.206   4.730 -2.1488 -0.6618  0.1312
13949TIP3   OH263261   5.227   1.953   3.802 -0.2908  0.3397 -0.3419
13949TIP3    H163262   5.154   2.009   3.775 -1.5286 -1.1509 -0.1406
13949TIP3    H263263   5.246   1.900   3.725 -0.1228  0.0105 -0.0772
13950TIP3   OH263264   3.734   1.861  12.987  0.7985 -0.1037  0.1930
13950TIP3    H163265   3.804   1.914  13.025 -0.1479  2.2473 -1.2309
13950TIP3    H263266   3.693   1.919  12.922 -2.0473 -1.6468  0.5541
13951TIP3   OH263267   1.518   0.440   1.431  0.1081  0.3330 -0.2024
13951TIP3    H163268   1.504   0.389   1.511 -0.9100 -1.2500 -1.3709
13951TIP3    H263269   1.548   0.525   1.463  2.8968 -1.2759  1.7831
13952TIP3   OH263270   4.530   2.404   0.768 -0.1712  0.1414 -0.0270
13952TIP3    H163271   4.439   2.384   0.791 -0.4305  0.9907 -0.3022
13952TIP3    H263272   4.581   2.342   0.819 -0.8692  0.2183  0.7800
13953TIP3   OH263273   6.619   2.934  15.076 -0.6541 -0.3895 -0.0572
13953TIP3    H163274   6.550   2.867  15.069  0.8640 -2.0686  0.5863
13953TIP3    H263275   6.686   2.906  15.013  0.9354 -0.6690  1.7079
13954TIP3   OH263276   0.566   3.627  15.182  0.4495  0.2776 -0.2122
13954TIP3    H163277   0.565   3.710  15.134  0.9243  1.0644  1.1075
13954TIP3    H263278   0.513   3.644  15.260  1.1789 -0.4187  0.4473
13955TIP3   OH263279   6.527   4.694   6.572  0.6664  0.0906 -0.3818
13955TIP3    H163280   6.513   4.772   6.518  2.3123  0.1626 -0.7244
13955TIP3    H263281   6.577   4.635   6.516 -1.1524 -1.5101 -0.3652
13956TIP3   OH263282   1.702   5.483   3.316  0.1736  0.2050  0.0379
13956TIP3    H163283   1.744   5.464   3.400 -1.4214  0.2501  0.8645
13956TIP3    H263284   1.766   5.455   3.250  1.7341  0.8296  1.2549
13957TIP3   OH263285   1.099   1.407   1.387 -0.1041 -0.6823  0.1769
13957TIP3    H163286   1.122   1.454   1.467 -1.6862  1.5934 -0.6288
13957TIP3    H263287   1.141   1.458   1.317 -0.3103 -1.5425 -0.5791
13958TIP3   OH263288   0.032   3.600   0.965 -0.2378 -0.3366  0.0790
13958TIP3    H163289   0.034   3.635   1.054  0.9422  1.2231 -0.5265
13958TIP3    H263290   0.104   3.537   0.963  0.3662  0.3397 -0.0242
13959TIP3   OH263291   0.792   3.659   3.909  0.2662  0.1864 -0.2700
13959TIP3    H163292   0.771   3.668   3.816 -0.3206  2.1545  0.0242
13959TIP3    H263293   0.739   3.726   3.952  0.0598 -1.1284  1.5562
13960TIP3   OH263294   1.227   1.286  16.811  0.8262 -0.2506 -0.1088
13960TIP3    H163295   1.256   1.196  16.797  1.1952 -0.4642  1.8555
13960TIP3    H263296   1.215   1.322  16.723 -0.0398 -2.4451 -0.9058
13961TIP3   OH263297   1.134   1.207   4.049 -0.1901 -0.2516 -0.6863
13961TIP3    H163298   1.200   1.266   4.013 -1.6032 -0.7385 -4.2881
13961TIP3    H263299   1.154   1.122   4.009  0.0846 -1.6576  2.2386
13962TIP3   OH263300   3.945   4.063   0.829  0.6569 -0.1006  0.0644
13962TIP3    H163301   3.918   3.985   0.780 -4.0998  2.3126 -1.5210
13962TIP3    H263302   3.925   4.043   0.920  0.1658 -1.0432 -0.2488
13963TIP3   OH263303   1.927   6.005  13.495  0.0545 -0.0206 -0.3556
13963TIP3    H163304   1.986   6.058  13.442  0.0574 -0.0426 -0.3745
13963TIP3    H263305   1.840   6.024  13.459 -0.1158  1.1676  0.6305
13964TIP3   OH263306   3.997   5.287   5.414 -0.3404  0.5572 -0.8077
13964TIP3    H163307   4.089   5.311   5.406 -0.5675  1.5922 -0.3986
13964TIP3    H263308   3.998   5.195   5.440  0.6436  1.2979  1.9793
13965TIP3   OH263309   3.875   0.853  14.074 -0.5963 -0.6337 -0.2448
13965TIP3    H163310   3.820   0.885  14.003  0.7335  0.3019 -0.8717
13965TIP3    H263311   3.816   0.802  14.129 -2.0545  0.2339 -0.9763
13966TIP3   OH263312   2.789   3.113   4.858  0.1331  0.2284  1.0907
13966TIP3    H163313   2.696   3.111   4.881 -0.1612  0.3698 -0.0134
13966TIP3    H263314   2.813   3.206   4.864 -0.0869  0.3430  0.3388
13967TIP3   OH263315   5.206   2.139  16.647 -0.5950 -0.1126 -0.5223
13967TIP3    H163316   5.188   2.105  16.559 -1.1353 -0.3873 -0.3078
13967TIP3    H263317   5.256   2.219  16.632  1.2380 -1.3178 -1.0248
13968TIP3   OH263318   5.575   6.087  17.214 -0.2071  0.0763 -0.0713
13968TIP3    H163319   5.536   6.145  17.279 -1.0208 -1.9525  1.3204
13968TIP3    H263320   5.638   6.034  17.263  0.9303  0.1568 -1.4127
13969TIP3   OH263321   4.472   2.667   2.923 -0.3656 -0.4739  0.1552
13969TIP3    H163322   4.439   2.745   2.877 -0.4407 -1.2927 -1.2245
13969TIP3    H263323   4.561   2.657   2.891 -0.6063 -1.3765 -0.2497
13970TIP3   OH263324   1.501   0.582   2.556  0.3094 -0.2935 -0.1058
13970TIP3    H163325   1.535   0.617   2.474  2.2439 -0.3572  0.6365
13970TIP3    H263326   1.525   0.490   2.555  0.3142 -0.3027  0.5225
13971TIP3   OH263327   2.920   5.192   2.680 -0.1063 -0.0582  0.2767
13971TIP3    H163328   2.853   5.261   2.679 -0.3890 -0.3355 -0.2180
13971TIP3    H263329   2.997   5.234   2.718 -0.5464  0.2777  0.8094
13972TIP3   OH263330   3.142   5.159   2.407 -0.2874  0.4526  0.0386
13972TIP3    H163331   3.188   5.235   2.372  0.1981  0.0872 -0.1336
13972TIP3    H263332   3.189   5.138   2.488 -0.9530  0.8543  0.5300
13973TIP3   OH263333   4.022   3.388   4.998 -0.1026 -0.0701  0.2854
13973TIP3    H163334   4.066   3.368   5.080 -0.9245  1.1258  1.0253
13973TIP3    H263335   3.974   3.308   4.977 -2.6875  0.7290  2.7940
13974TIP3   OH263336   6.549   3.396  15.912 -0.1379 -0.3393 -0.7617
13974TIP3    H163337   6.597   3.466  15.957 -1.2317 -0.9752  1.4353
13974TIP3    H263338   6.458   3.409  15.938 -0.2201 -3.2517  0.6313
13975TIP3   OH263339   2.419   1.912   5.221 -0.3881 -1.1508 -0.6498
13975TIP3    H163340   2.365   1.919   5.299  1.0551  0.0972  0.2718
13975TIP3    H263341   2.447   2.002   5.203 -0.5244 -1.4667 -2.4705
13976TIP3   OH263342   5.543   2.396  17.131  0.4462  0.1622 -0.0073
13976TIP3    H163343   5.482   2.420  17.201  1.2450 -2.0845  1.5150
13976TIP3    H263344   5.488   2.353  17.065 -0.2768  2.0991 -0.6809
13977TIP3   OH263345   4.794   4.995  12.058  0.3074 -0.1193 -0.0479
13977TIP3    H163346   4.737   4.925  12.026 -3.0910  2.5711 -0.1575
13977TIP3    H263347   4.860   5.005  11.990 -2.1308  0.1249 -2.4646
13978TIP3   OH263348   4.438   4.894   3.471  0.0118 -0.1457  0.2877
13978TIP3    H163349   4.532   4.887   3.455  0.2487  1.4061  1.0009
13978TIP3    H263350   4.418   4.821   3.530  0.7026 -0.6367 -0.0826
13979TIP3   OH263351   3.016   2.776   2.798  0.1577  0.1895 -0.1088
13979TIP3    H163352   3.020   2.821   2.882 -0.7512 -0.8510  0.4976
13979TIP3    H263353   2.923   2.763   2.782  0.3992 -1.2582 -0.3810
13980TIP3   OH263354   2.266   4.893   6.475  0.4064  0.4220  0.2718
13980TIP3    H163355   2.189   4.852   6.515  0.5147 -0.1405 -0.1014
13980TIP3    H263356   2.322   4.916   6.549 -0.0162  0.6263  0.5325
13981TIP3   OH263357   2.101   3.193   2.560  1.2822 -0.1198  0.1642
13981TIP3    H163358   2.065   3.105   2.566  0.4316  0.2412  0.5580
13981TIP3    H263359   2.069   3.237   2.639  0.6512  0.8975 -0.6367
13982TIP3   OH263360   6.261   3.514  12.242 -0.0384 -0.8314  0.4131
13982TIP3    H163361   6.269   3.445  12.308 -1.6675 -2.4724 -1.0551
13982TIP3    H263362   6.304   3.479  12.164 -0.2722  0.1020 -0.1489
13983TIP3   OH263363   1.736   0.844   5.333 -0.0100 -0.3488 -0.6292
13983TIP3    H163364   1.761   0.933   5.310 -0.7626 -0.1588 -0.7373
13983TIP3    H263365   1.799   0.788   5.288  0.4066  0.1293 -0.6330
13984TIP3   OH263366   0.979   0.521   5.253  0.1737  0.3000  0.0076
13984TIP3    H163367   0.965   0.474   5.335  0.7492 -1.0079 -0.6396
13984TIP3    H263368   1.056   0.480   5.214 -1.1949 -0.3531 -2.0911
13985TIP3   OH263369   1.292   3.578   4.035  0.2811 -0.0080 -0.3763
13985TIP3    H163370   1.208   3.616   4.008 -2.0132 -2.4905  2.8453
13985TIP3    H263371   1.296   3.494   3.991  1.2760  0.2397 -0.7764
13986TIP3   OH263372   0.748   3.795  12.213 -0.0315 -0.1215 -0.4251
13986TIP3    H163373   0.783   3.706  12.210 -0.3491 -0.2676  0.2232
13986TIP3    H263374   0.711   3.803  12.301 -2.3554 -0.2253 -1.3734
13987TIP3   OH263375   4.075   5.522  11.712 -0.3762 -0.1431  0.3772
13987TIP3    H163376   4.002   5.500  11.654 -1.0531  0.6887  0.8988
13987TIP3    H263377   4.077   5.451  11.776 -0.6960 -0.2103  0.3153
13988TIP3   OH263378   5.264   5.350   4.795 -0.0904 -0.5454  0.3918
13988TIP3    H163379   5.222   5.265   4.784 -0.6039 -0.3791  1.0363
13988TIP3    H263380   5.355   5.329   4.817  0.2044 -0.9014 -1.1053
13989TIP3   OH263381   3.401   1.822   3.462 -0.3153  0.0097  0.5614
13989TIP3    H163382   3.329   1.760   3.477 -0.3955  0.1631  0.8230
13989TIP3    H263383   3.461   1.776   3.404 -2.0650  0.9543 -2.1017
13990TIP3   OH263384   0.914   4.158  16.683 -0.6491  0.4428  0.1883
13990TIP3    H163385   0.990   4.160  16.742 -0.5998  0.5557  0.1217
13990TIP3    H263386   0.944   4.201  16.603 -0.0181 -1.7190 -0.7606
13991TIP3   OH263387   0.880   4.953   5.935 -0.4656 -0.2900 -0.6097
13991TIP3    H163388   0.954   4.982   5.882 -0.6595  0.7670 -0.3237
13991TIP3    H263389   0.803   4.970   5.880 -0.5157 -1.1516 -0.8087
13992TIP3   OH263390   4.884   3.028  12.965  0.1730 -0.3040 -0.7493
13992TIP3    H163391   4.949   3.009  12.897 -0.2006 -0.9022 -0.9474
13992TIP3    H263392   4.800   3.028  12.919 -0.0196 -0.0700 -0.3999
13993TIP3   OH263393   2.734   2.452   3.572 -0.0662 -0.1185  0.5361
13993TIP3    H163394   2.789   2.465   3.649 -2.3586  0.8850  2.0842
13993TIP3    H263395   2.693   2.367   3.585 -0.5044  0.0780  0.4736
13994TIP3   OH263396   3.963   3.934  16.161  1.2019  0.7380  0.2861
13994TIP3    H163397   3.928   4.016  16.126  1.3529  0.9652  0.6601
13994TIP3    H263398   3.951   3.870  16.090 -1.2870  0.4455  0.9459
13995TIP3   OH263399   0.610   1.974   0.926  0.2970  0.1312 -0.0598
13995TIP3    H163400   0.571   1.890   0.948  2.9530 -1.3946 -0.9348
13995TIP3    H263401   0.607   1.977   0.830  2.0965  0.0653 -0.1356
13996TIP3   OH263402   0.779   4.001  12.912 -0.0186  0.1695 -0.5919
13996TIP3    H163403   0.711   4.007  12.845 -0.9243 -1.7199  0.1165
13996TIP3    H263404   0.763   4.076  12.969  0.7779  1.8204 -2.4480
13997TIP3   OH263405   1.327   0.177  15.287  0.5028 -0.3248 -0.4387
13997TIP3    H163406   1.329   0.229  15.207  1.9913 -1.6468 -1.2893
13997TIP3    H263407   1.332   0.086  15.258  0.3607 -0.8598  1.1218
13998TIP3   OH263408   1.165   5.216   2.526  0.3955  0.6379 -0.4427
13998TIP3    H163409   1.074   5.198   2.503  0.1992  0.0989  0.7353
13998TIP3    H263410   1.214   5.196   2.446 -0.6044  1.7994 -1.3677
13999TIP3   OH263411   3.053   0.364  15.782  0.5012 -0.3534  0.3195
13999TIP3    H163412   3.030   0.276  15.812  0.5299 -0.0468  1.2435
13999TIP3    H263413   3.125   0.391  15.838 -0.5621  0.8997  1.1152
14000TIP3   OH263414   5.817   2.200   1.375  0.4916 -0.2716 -0.4563
14000TIP3    H163415   5.805   2.284   1.332  0.2623 -0.0001  0.1218
14000TIP3    H263416   5.836   2.138   1.305 -2.5780 -0.3834 -1.2512
14001TIP3   OH263417   4.961   2.576   1.134 -0.4969 -0.1686 -0.3057
14001TIP3    H163418   4.951   2.612   1.222 -0.0681  0.8631 -0.6708
14001TIP3    H263419   4.902   2.627   1.080 -0.9346 -0.9548 -0.5845
14002TIP3   OH263420   0.811   2.572  12.347  0.0701 -0.5236 -0.1489
14002TIP3    H163421   0.895   2.607  12.317  0.6420 -1.4422  0.3488
14002TIP3    H263422   0.755   2.649  12.359 -0.0626 -0.0817 -3.1653
14003TIP3   OH263423   4.616   5.488   6.317  0.3960 -0.9518 -0.3151
14003TIP3    H163424   4.569   5.568   6.295  1.4072 -0.9405 -2.5965
14003TIP3    H263425   4.685   5.516   6.378  1.4344  0.1266 -1.9550
14004TIP3   OH263426   6.337   1.242  14.754 -0.0522 -0.4815  0.4919
14004TIP3    H163427   6.273   1.249  14.682  1.0967 -1.1720 -0.6146
14004TIP3    H263428   6.319   1.157  14.794  0.9901 -1.2482 -0.6351
14005TIP3   OH263429   1.940   1.851   2.306  0.1140  0.0740  0.6256
14005TIP3    H163430   1.973   1.835   2.395  0.0892 -1.0545  0.4377
14005TIP3    H263431   1.975   1.779   2.254 -2.5586 -1.1389  0.3986
14006TIP3   OH263432   0.251   5.469   4.624  0.1358  0.0399 -0.3449
14006TIP3    H163433   0.294   5.526   4.688 -1.4976  0.2337  0.6111
14006TIP3    H263434   0.218   5.396   4.676 -1.8838  0.5797 -0.8313
14007TIP3   OH263435   2.149   6.516   3.228 -0.1416 -0.2152  0.3917
14007TIP3    H163436   2.168   6.524   3.322  0.1558  0.1078  0.3057
14007TIP3    H263437   2.081   6.581   3.212 -0.6352 -0.7009  0.5064
14008TIP3   OH263438   0.914   2.863  15.459  0.5242 -0.3073  0.0703
14008TIP3    H163439   0.942   2.863  15.367  1.1461 -0.1112  0.2528
14008TIP3    H263440   0.865   2.782  15.470  1.8165 -1.1185 -0.0329
14009TIP3   OH263441   3.083   3.857  15.562  0.2137 -0.0510 -0.2242
14009TIP3    H163442   3.076   3.761  15.556  0.2846 -0.1117  0.6518
14009TIP3    H263443   3.090   3.886  15.471  0.8608 -0.9360 -0.4679
14010TIP3   OH263444   0.478   2.245   0.762  0.4202  0.4987  0.1837
14010TIP3    H163445   0.555   2.190   0.776  1.0246  1.2625 -0.0815
14010TIP3    H263446   0.502   2.328   0.803 -0.5006  0.5458  0.6242
14011TIP3   OH263447   6.431   0.088  12.136  0.2103 -0.3987  0.1236
14011TIP3    H163448   6.389   0.173  12.152  1.7941  0.5833 -0.7976
14011TIP3    H263449   6.411   0.068  12.044 -0.2711 -1.0843  0.3751
14012TIP3   OH263450   6.611   1.944  16.824  0.2539 -0.1064  0.4027
14012TIP3    H163451   6.521   1.950  16.791  0.9887  0.0055 -1.6312
14012TIP3    H263452   6.605   1.883  16.897 -1.8545  1.5462  1.6851
14013TIP3   OH263453   2.841   0.621   5.398 -0.0955  0.5367 -0.0216
14013TIP3    H163454   2.769   0.678   5.369 -1.0992 -1.1941 -0.9555
14013TIP3    H263455   2.804   0.533   5.399  1.8578 -0.3117  0.0410
14014TIP3   OH263456   0.036   6.121  12.963  0.3575 -0.3244 -0.7695
14014TIP3    H163457  -0.039   6.141  13.019 -0.0045  1.2369 -1.7840
14014TIP3    H263458   0.096   6.194  12.976  1.5207 -1.3352 -0.3244
14015TIP3   OH263459   3.501   1.872  16.161  0.0575 -0.7468  0.1109
14015TIP3    H163460   3.571   1.933  16.184  0.2924 -1.4842  1.3968
14015TIP3    H263461   3.470   1.902  16.076 -0.3068  1.5788  1.0514
14016TIP3   OH263462   3.127   2.044  16.863 -0.4569 -0.3783  0.2428
14016TIP3    H163463   3.067   2.063  16.790 -1.5219  0.5810  1.3590
14016TIP3    H263464   3.083   2.079  16.940  0.8442 -1.0554  1.3056
14017TIP3   OH263465   2.742   3.367  16.245 -0.4975 -0.2002  0.1851
14017TIP3    H163466   2.814   3.307  16.265  0.8230  0.4199 -2.5226
14017TIP3    H263467   2.670   3.310  16.218  0.0362 -0.6825 -0.2351
14018TIP3   OH263468   6.322   2.868   1.079 -0.0689 -0.0095  0.7583
14018TIP3    H163469   6.257   2.888   1.147 -0.4382 -0.2924  0.4867
14018TIP3    H263470   6.359   2.954   1.056  0.4934  0.0267  1.7489
14019TIP3   OH263471   2.156   5.181  10.837  0.0008  0.2474 -0.1957
14019TIP3    H163472   2.123   5.099  10.875 -0.1555 -0.2614 -1.4117
14019TIP3    H263473   2.078   5.225  10.804  0.3512 -0.2648 -1.7416
14020TIP3   OH263474   6.727   3.009  12.785 -0.3516 -0.6545  0.0477
14020TIP3    H163475   6.740   2.920  12.753  0.5699 -0.3629 -0.4315
14020TIP3    H263476   6.725   3.063  12.706  0.6666 -0.0756  0.4054
14021TIP3   OH263477   5.167   0.301  11.909  0.3820 -0.0065 -0.4025
14021TIP3    H163478   5.138   0.391  11.920 -0.2341 -0.1641 -0.7215
14021TIP3    H263479   5.263   0.306  11.910  0.3470  0.5624  0.2485
14022TIP3   OH263480   2.207   5.777  14.420 -0.0567  0.1592  0.4102
14022TIP3    H163481   2.171   5.723  14.350 -0.4947 -0.3057  0.9806
14022TIP3    H263482   2.200   5.866  14.388 -0.1094 -0.0656 -0.2023
14023TIP3   OH263483   6.039   3.249   2.336 -0.0209 -0.1633  0.2093
14023TIP3    H163484   6.023   3.213   2.423 -0.2578  0.4048  0.3999
14023TIP3    H263485   6.130   3.278   2.338  0.4192 -1.4826 -0.2043
14024TIP3   OH263486   1.542   5.531  16.801  0.1839  0.0694  0.3073
14024TIP3    H163487   1.504   5.451  16.837 -0.3962  0.5894  0.8533
14024TIP3    H263488   1.578   5.504  16.716 -0.0160 -0.7653  0.4835
14025TIP3   OH263489   6.359   1.137   4.003  0.6938  0.2550  0.2827
14025TIP3    H163490   6.440   1.104   3.963  1.1596  0.8206  0.7582
14025TIP3    H263491   6.360   1.230   3.983  0.8048  0.4997  1.4010
14026TIP3   OH263492   3.604   4.765   5.125 -0.0415 -0.0012  0.3268
14026TIP3    H163493   3.628   4.810   5.044  0.3071 -0.8520 -0.0379
14026TIP3    H263494   3.688   4.742   5.165 -0.1303  2.4307  2.0806
14027TIP3   OH263495   3.407   1.706   3.913  0.1875 -0.1527 -0.4084
14027TIP3    H163496   3.406   1.610   3.913  2.9483 -0.2424 -1.9322
14027TIP3    H263497   3.327   1.730   3.866 -0.6312 -1.6895  0.1520
14028TIP3   OH263498   2.304   0.764   0.903  0.5369 -0.7673 -0.1788
14028TIP3    H163499   2.209   0.769   0.906  0.5211 -1.1276 -0.0659
14028TIP3    H263500   2.328   0.810   0.822  0.1340 -2.5075 -1.3073
14029TIP3   OH263501   1.596   1.187   3.817 -0.4779 -0.3343 -0.2504
14029TIP3    H163502   1.631   1.106   3.781  0.0800 -0.1706 -0.0662
14029TIP3    H263503   1.671   1.234   3.852 -1.0786 -0.7357  1.6274
14030TIP3   OH263504   2.880   2.052  11.629  0.7021 -0.5240  0.5959
14030TIP3    H163505   2.876   1.957  11.629 -2.1973 -0.4537  1.5173
14030TIP3    H263506   2.859   2.078  11.719  0.4901  1.0132  0.1315
14031TIP3   OH263507   0.144   4.979   4.202 -0.0416  0.0521 -0.1504
14031TIP3    H163508   0.157   5.054   4.143 -0.7182 -0.2809 -0.7345
14031TIP3    H263509   0.164   4.903   4.148 -0.5803 -0.2489  0.0671
14032TIP3   OH263510   6.134   3.544  16.247  0.0752 -0.0607  0.1972
14032TIP3    H163511   6.046   3.550  16.284 -0.2571  1.8897 -0.8055
14032TIP3    H263512   6.126   3.586  16.161  1.9960  0.2313  0.1373
14033TIP3   OH263513   0.708   3.859  16.008  0.0241 -0.3143 -0.3700
14033TIP3    H163514   0.620   3.876  16.044  0.6814 -0.2422  1.2522
14033TIP3    H263515   0.706   3.899  15.921 -1.1536  0.7917  0.1313
14034TIP3   OH263516   4.213   0.872  10.426 -0.2820 -0.8331  0.2598
14034TIP3    H163517   4.279   0.941  10.425  0.2386 -1.3379 -2.2710
14034TIP3    H263518   4.262   0.792  10.446 -0.4809 -0.8974  0.5078
14035TIP3   OH263519   5.297   2.923   5.916  0.6467  0.0421  0.2116
14035TIP3    H163520   5.302   3.009   5.874  1.5883 -0.6752 -1.1973
14035TIP3    H263521   5.203   2.903   5.918  0.4558  0.9380  0.1991
14036TIP3   OH263522   5.221   5.423   5.260  0.0306  0.0588  0.4063
14036TIP3    H163523   5.167   5.456   5.188  0.2032  0.1112  0.2987
14036TIP3    H263524   5.176   5.452   5.339 -0.3565 -0.3159  0.3213
14037TIP3   OH263525   4.985   4.186  15.490  0.0821 -0.1476  0.8328
14037TIP3    H163526   4.992   4.282  15.485  0.0532 -0.1891 -0.0659
14037TIP3    H263527   5.043   4.161  15.561  1.2321  0.4064  0.0943
14038TIP3   OH263528   0.000   6.633   5.618 -0.4942  0.1996 -0.1931
14038TIP3    H163529  -0.059   6.658   5.547  0.6117  0.3186 -1.0955
14038TIP3    H263530  -0.036   6.551   5.653 -0.7583 -0.1375 -1.2446
14039TIP3   OH263531   4.374   4.873   0.541  0.1621  0.2321  0.0274
14039TIP3    H163532   4.306   4.924   0.497 -0.1293 -0.4472 -0.3266
14039TIP3    H263533   4.351   4.782   0.522  1.5115  0.0173 -0.6011
14040TIP3   OH263534   4.472   5.841  15.573  0.7196 -0.3562 -0.0115
14040TIP3    H163535   4.567   5.849  15.566  0.6203  0.7055 -0.2279
14040TIP3    H263536   4.456   5.819  15.665  1.1411  0.0169  0.1505
14041TIP3   OH263537   0.588   3.459   3.954  0.6597 -0.7469  0.3604
14041TIP3    H163538   0.600   3.396   3.884 -1.7841  2.5214 -3.2081
14041TIP3    H263539   0.670   3.510   3.955  0.3759 -0.2652 -0.7233
14042TIP3   OH263540   4.533   5.853   1.809 -0.3322  0.0558 -0.4525
14042TIP3    H163541   4.599   5.799   1.765 -0.4156  0.2071 -0.7696
14042TIP3    H263542   4.454   5.840   1.757 -0.6910 -0.5341  0.2313
14043TIP3   OH263543   2.595   3.895  13.543 -0.4626  0.0901 -0.1974
14043TIP3    H163544   2.682   3.901  13.583 -0.7231  0.4288  0.3251
14043TIP3    H263545   2.555   3.980  13.559 -1.4898 -0.5918  0.9894
14044TIP3   OH263546   2.239   5.073  12.699 -0.1499 -0.1464 -0.4203
14044TIP3    H163547   2.293   4.998  12.676  0.6698  0.5379 -0.7439
14044TIP3    H263548   2.149   5.039  12.696  0.2938 -1.4606  0.8236
14045TIP3   OH263549   5.479   1.292  14.897  0.0088  0.3469  0.2076
14045TIP3    H163550   5.392   1.331  14.890 -1.1313 -2.2068 -0.5887
14045TIP3    H263551   5.477   1.218  14.837  2.4332 -0.3201  0.8857
14046TIP3   OH263552   4.267   5.790  14.664 -0.5160 -0.0923 -0.4011
14046TIP3    H163553   4.298   5.833  14.743 -0.5925 -0.7225 -0.0260
14046TIP3    H263554   4.344   5.747  14.627 -0.3172  0.8257 -1.0834
14047TIP3   OH263555   5.762   0.653  10.806 -0.0209 -0.6032  0.0131
14047TIP3    H163556   5.677   0.608  10.799 -1.1929  1.5322 -0.0489
14047TIP3    H263557   5.774   0.667  10.900  0.5657 -1.4577  0.0657
14048TIP3   OH263558   3.774   5.554  15.461  0.0383 -0.1746  0.1407
14048TIP3    H163559   3.761   5.463  15.434  1.6088 -0.4505  0.2796
14048TIP3    H263560   3.704   5.602  15.416 -0.0214 -1.2586 -0.9580
14049TIP3   OH263561   6.425   2.243  16.074 -0.1381 -0.3911  0.3907
14049TIP3    H163562   6.498   2.303  16.057 -0.2383 -0.3466  0.1238
14049TIP3    H263563   6.355   2.272  16.016 -0.3101 -0.5442  0.5188
14050TIP3   OH263564   1.036   6.645  14.501 -0.0500 -0.5671 -0.2956
14050TIP3    H163565   1.002   6.607  14.420 -1.7865 -2.0341  1.0588
14050TIP3    H263566   1.119   6.601  14.516  0.9199  0.6559 -1.9310
14051TIP3   OH263567   2.106   5.431  12.170  0.5839 -0.6998 -0.2646
14051TIP3    H163568   2.130   5.517  12.136  0.1724 -0.0086  1.1378
14051TIP3    H263569   2.190   5.387  12.186  0.7816 -1.4447 -3.0991
14052TIP3   OH263570   0.622   2.855   6.133  0.0496 -0.5319 -0.1216
14052TIP3    H163571   0.647   2.915   6.203 -1.7325 -0.4425  0.4515
14052TIP3    H263572   0.656   2.896   6.053  1.4691 -0.2812  0.5874
14053TIP3   OH263573   2.671   1.590  10.178  0.1312  0.1760 -0.5486
14053TIP3    H163574   2.635   1.526  10.239  2.2990 -1.8395 -1.2785
14053TIP3    H263575   2.612   1.664  10.182 -1.5734 -1.2543  1.5313
14054TIP3   OH263576   0.378   6.403   3.874  0.4089 -0.2067 -0.2511
14054TIP3    H163577   0.354   6.473   3.814  0.9529  1.2076  1.1440
14054TIP3    H263578   0.303   6.395   3.933  1.8052  1.8180  1.9218
14055TIP3   OH263579   2.009   3.890   5.795 -0.1392  0.2069 -0.4939
14055TIP3    H163580   1.965   3.824   5.848  0.3201 -0.0193 -0.3996
14055TIP3    H263581   2.068   3.935   5.856  0.9473 -0.5483 -0.9697
14056TIP3   OH263582   3.605   4.684  10.815 -0.9474  0.1166  0.0088
14056TIP3    H163583   3.608   4.779  10.819  0.0309  0.2161 -2.0625
14056TIP3    H263584   3.534   4.664  10.754  0.1478 -0.3960 -1.1333
14057TIP3   OH263585   1.432   0.106   3.393  0.3678 -0.1442 -0.0767
14057TIP3    H163586   1.369   0.070   3.454 -1.1224 -1.6026 -2.3975
14057TIP3    H263587   1.517   0.096   3.436 -0.5579 -1.9895  1.3342
14058TIP3   OH263588   2.922   4.407   0.965  0.4500  0.1513  0.0617
14058TIP3    H163589   2.913   4.328   0.911 -0.7288 -0.5915  1.3399
14058TIP3    H263590   3.004   4.447   0.934  1.8966 -2.3860  0.4406
14059TIP3   OH263591   2.155   5.814   3.824  0.4608 -0.1660  0.6741
14059TIP3    H163592   2.087   5.815   3.757  1.8122 -0.8851 -0.7482
14059TIP3    H263593   2.234   5.788   3.777  1.5899  0.0447  2.4167
14060TIP3   OH263594   0.182   5.047   6.047 -0.0933  0.3456  0.2366
14060TIP3    H163595   0.274   5.059   6.068  0.6806 -2.6756 -1.2214
14060TIP3    H263596   0.157   5.127   6.000  2.2914  0.3219 -1.1062
14061TIP3   OH263597   4.163   3.861  11.350  0.0028  0.7322  0.1900
14061TIP3    H163598   4.226   3.833  11.283  0.5527  0.3475  0.8651
14061TIP3    H263599   4.208   3.931  11.397  0.0806  0.2102  0.9082
14062TIP3   OH263600   5.180   6.126   2.909  0.1650 -0.3108 -0.0569
14062TIP3    H163601   5.139   6.119   2.995  1.1582  0.2738  0.4688
14062TIP3    H263602   5.191   6.220   2.895 -1.2164 -0.3203 -1.4257
14063TIP3   OH263603   0.297   3.419   1.388 -0.0440  0.0132 -0.8215
14063TIP3    H163604   0.362   3.357   1.422 -0.2932  0.0094 -0.3452
14063TIP3    H263605   0.301   3.409   1.293  1.0788  0.4342 -0.8312
14064TIP3   OH263606   5.297   3.094  12.208 -0.0644  0.0578 -0.5519
14064TIP3    H163607   5.339   3.037  12.273 -3.0814 -0.5434  0.9598
14064TIP3    H263608   5.294   3.180  12.250 -0.8699 -0.0420 -0.3947
14065TIP3   OH263609   5.488   5.487   5.253 -0.5336  0.6945  0.3049
14065TIP3    H163610   5.425   5.558   5.268 -1.9943 -0.1392 -1.6402
14065TIP3    H263611   5.435   5.407   5.258  0.9972 -0.2484  1.9301
14066TIP3   OH263612   4.629   3.607   5.894  0.4825 -0.6161 -0.1495
14066TIP3    H163613   4.611   3.516   5.915  0.5082 -0.6503 -0.2723
14066TIP3    H263614   4.714   3.624   5.934 -0.2263 -0.1900  1.1937
14067TIP3   OH263615   6.013   3.983   4.902 -0.2441  0.4777  0.1596
14067TIP3    H163616   6.072   3.941   4.840 -0.0734 -0.3353  0.8738
14067TIP3    H263617   5.926   3.971   4.863 -0.5034 -3.0055  1.7254
14068TIP3   OH263618   2.911   2.642  11.894  0.0589 -0.2308 -0.0514
14068TIP3    H163619   2.856   2.564  11.891 -0.8615  0.3163  1.6017
14068TIP3    H263620   2.890   2.690  11.814 -1.0432 -0.5973  0.0115
14069TIP3   OH263621   3.078   2.369   3.033  0.5149  0.1076 -0.1523
14069TIP3    H163622   3.046   2.297   3.088  2.4888  0.5653  1.6553
14069TIP3    H263623   3.171   2.351   3.023  1.1414  2.6951  0.7923
14070TIP3   OH263624   4.767   2.042  15.243 -0.3773  0.2237  0.4732
14070TIP3    H163625   4.758   1.975  15.176 -1.1764  0.2396  0.5589
14070TIP3    H263626   4.737   2.123  15.201 -1.1366  0.1848  0.9169
14071TIP3   OH263627   5.883   6.171  14.799  0.3249  0.5577  0.1451
14071TIP3    H163628   5.830   6.187  14.721 -0.8608 -1.6387  0.4417
14071TIP3    H263629   5.967   6.141  14.764  0.4543  1.4191 -0.3000
14072TIP3   OH263630   5.187   0.611   4.966  0.0473 -0.2531 -0.3696
14072TIP3    H163631   5.196   0.706   4.970 -2.2442 -0.0739  1.6980
14072TIP3    H263632   5.234   0.586   4.886  2.2255  2.3830  0.0166
14073TIP3   OH263633   1.910   6.039   0.965  0.1439  0.2463 -0.5905
14073TIP3    H163634   1.826   6.020   1.007 -1.2340  3.7050 -1.6339
14073TIP3    H263635   1.960   6.084   1.032  0.4895 -0.1758 -0.5616
14074TIP3   OH263636   2.191   6.666  16.476  0.0851 -0.0985 -0.2994
14074TIP3    H163637   2.105   6.678  16.516  0.7428 -1.5248  1.6178
14074TIP3    H263638   2.219   6.755  16.453 -1.0952  0.5847  0.8170
14075TIP3   OH263639   5.408   4.885  16.918 -0.2498 -0.3536  0.1564
14075TIP3    H163640   5.394   4.806  16.866  0.0811 -0.4190  0.1675
14075TIP3    H263641   5.435   4.853  17.004 -2.4326 -0.3050  0.9026
14076TIP3   OH263642   2.666   3.873  13.836  0.6102  0.1850  0.4372
14076TIP3    H163643   2.670   3.818  13.757 -1.3042 -1.8357  1.6839
14076TIP3    H263644   2.716   3.824  13.901 -0.7524  0.1172  1.4447
14077TIP3   OH263645   1.426   2.900   2.911 -0.6273 -0.2245  0.5099
14077TIP3    H163646   1.440   2.961   2.838 -0.6861 -0.7011  0.0968
14077TIP3    H263647   1.331   2.892   2.918 -0.6014 -1.2889 -0.2941
14078TIP3   OH263648   1.138   2.052   6.401  0.6981  0.1300  0.1945
14078TIP3    H163649   1.157   2.139   6.365 -2.9582  0.3059 -1.6288
14078TIP3    H263650   1.197   1.993   6.354  1.4107  1.3399 -0.4507
14079TIP3   OH263651   0.075   2.915   3.274  0.1556 -0.0355  0.1304
14079TIP3    H163652   0.068   3.004   3.307  0.5055  0.5008 -1.2285
14079TIP3    H263653   0.000   2.869   3.312 -0.0277  0.8381  0.8257
14080TIP3   OH263654   3.840   2.742   2.128 -0.7850  0.4391 -0.1607
14080TIP3    H163655   3.750   2.766   2.150 -1.7927 -2.1123 -1.3597
14080TIP3    H263656   3.839   2.731   2.033  0.6614 -0.1195 -0.1214
14081TIP3   OH263657   4.659   5.108  13.674 -0.4013  0.2870  1.0322
14081TIP3    H163658   4.653   5.190  13.722 -1.6126  1.0030 -0.3307
14081TIP3    H263659   4.570   5.072  13.675 -0.5219  0.4635 -0.9263
14082TIP3   OH263660   2.675   5.612   3.425 -0.4269 -0.0668 -0.5971
14082TIP3    H163661   2.755   5.582   3.383  0.6521  2.9151 -0.7743
14082TIP3    H263662   2.701   5.630   3.516 -1.4727 -1.3188 -0.0303
14083TIP3   OH263663   3.120   3.954  13.262 -0.6298  0.1443  0.0028
14083TIP3    H163664   3.108   3.871  13.217 -2.3685  0.6503 -0.4985
14083TIP3    H263665   3.192   3.996  13.215 -2.0180  0.3993 -1.9533
14084TIP3   OH263666   5.703   4.470  16.706 -0.1592 -0.0189 -0.5526
14084TIP3    H163667   5.681   4.562  16.719 -0.7292 -0.1244 -0.7915
14084TIP3    H263668   5.796   4.471  16.683 -0.4293  0.5924 -1.6595
14085TIP3   OH263669   1.076   2.252  14.866  0.6439 -0.7179  0.1257
14085TIP3    H163670   1.031   2.284  14.944 -0.5177 -0.1451 -0.7644
14085TIP3    H263671   1.006   2.223  14.807  1.5151 -1.4497 -0.5745
14086TIP3   OH263672   6.623   2.641  16.594 -0.3112 -0.0993 -0.2018
14086TIP3    H163673   6.619   2.575  16.525 -0.6214  0.2869 -0.5579
14086TIP3    H263674   6.640   2.592  16.674  1.3184 -0.4283 -0.7342
14087TIP3   OH263675   3.712   1.919   4.764  0.1773  0.5769  0.5311
14087TIP3    H163676   3.797   1.957   4.742  0.5594 -0.1559  0.7318
14087TIP3    H263677   3.730   1.826   4.776 -1.0912 -0.0442 -1.9066
14088TIP3   OH263678   2.300   4.577   2.622  0.2639  0.1797  0.1578
14088TIP3    H163679   2.214   4.545   2.593  0.4615 -1.0632  0.9061
14088TIP3    H263680   2.363   4.520   2.576  0.7630  2.1208 -1.6559
14089TIP3   OH263681   5.928   3.185  14.613  0.2253  0.4414  0.4309
14089TIP3    H163682   5.994   3.217  14.674  0.4972 -0.8147  0.8147
14089TIP3    H263683   5.974   3.178  14.529 -0.0026  1.6383  0.2005
14090TIP3   OH263684   1.911   1.304  13.615 -0.2405  0.3067  0.1252
14090TIP3    H163685   1.925   1.263  13.700  0.1568  0.2310  0.0228
14090TIP3    H263686   1.978   1.372  13.609 -0.0075  0.0453 -0.2942
14091TIP3   OH263687   0.430   5.917  12.602  0.2976  0.2963 -1.0642
14091TIP3    H163688   0.354   5.913  12.661  1.1942  0.7894  0.1524
14091TIP3    H263689   0.406   5.860  12.529 -0.9107 -0.2068 -0.3049
14092TIP3   OH263690   0.093   2.396  15.676 -0.4777  0.3305  0.0282
14092TIP3    H163691   0.124   2.310  15.704  0.1676  0.7345  0.5414
14092TIP3    H263692   0.001   2.381  15.654 -0.2619 -0.5861 -0.2971
14093TIP3   OH263693   3.303   1.141  12.785  0.0327 -0.6786 -0.0451
14093TIP3    H163694   3.306   1.152  12.689  1.2723 -0.4373  0.0202
14093TIP3    H263695   3.265   1.053  12.797  1.4012 -1.3942 -0.7948
14094TIP3   OH263696   5.520   2.832  15.951 -0.3768  0.0001  0.0416
14094TIP3    H163697   5.497   2.801  16.039 -3.4617  3.1087  0.4302
14094TIP3    H263698   5.444   2.813  15.897  0.2632  0.9194 -1.2181
14095TIP3   OH263699   3.676   6.307   2.333  0.0010  0.0862  0.2188
14095TIP3    H163700   3.599   6.360   2.313 -0.4806 -0.7910 -0.2670
14095TIP3    H263701   3.744   6.371   2.354 -0.3720  0.9446 -1.0975
14096TIP3   OH263702   5.134   4.094  14.954  0.0361 -0.3633 -0.4283
14096TIP3    H163703   5.079   4.100  15.032  2.3032 -2.3996  1.3791
14096TIP3    H263704   5.159   4.185  14.936  0.4850  0.0167  1.9502
14097TIP3   OH263705   4.963   2.466  12.327 -0.2764  0.1224 -0.1421
14097TIP3    H163706   5.003   2.522  12.394 -2.2006  0.1920  0.9851
14097TIP3    H263707   4.981   2.511  12.245 -0.6438  1.7503  0.6359
14098TIP3   OH263708   0.919   1.491   6.006  0.2319 -0.0371  0.3323
14098TIP3    H163709   0.862   1.446   6.069 -0.2346 -0.8264 -0.6474
14098TIP3    H263710   0.864   1.559   5.969 -0.6407 -1.8621 -1.8471
14099TIP3   OH263711   1.044   0.617   3.694 -0.4393  0.6449 -0.1556
14099TIP3    H163712   1.103   0.612   3.769  0.1681  0.1404 -0.6678
14099TIP3    H263713   1.082   0.685   3.638 -0.4524  0.4507 -0.3974
14100TIP3   OH263714   1.001   3.064  16.521 -0.1149  0.0536 -0.6223
14100TIP3    H163715   1.050   3.142  16.546  1.2254 -0.9970  0.1445
14100TIP3    H263716   0.916   3.097  16.495 -0.0945  1.6488  1.1610
14101TIP3   OH263717   2.210   4.456  12.932  0.3750 -0.1370 -0.4681
14101TIP3    H163718   2.248   4.371  12.907 -0.7653 -0.3899 -1.3929
14101TIP3    H263719   2.206   4.453  13.027 -0.0255 -1.2965 -0.5051
14102TIP3   OH263720   3.498   2.550  11.591  0.0146  0.4992  0.1712
14102TIP3    H163721   3.481   2.593  11.507  0.7496 -1.5203 -1.0375
14102TIP3    H263722   3.580   2.503  11.577 -1.0341 -1.7269  1.2984
14103TIP3   OH263723   3.174   2.142   0.383 -0.0756 -0.4639 -0.3258
14103TIP3    H163724   3.254   2.105   0.345  0.4762  1.0506 -0.7006
14103TIP3    H263725   3.110   2.138   0.312  0.3949  0.5627 -0.8346
14104TIP3   OH263726   2.948   4.544   2.022 -0.6940 -0.0148 -0.5735
14104TIP3    H163727   2.992   4.533   2.107 -0.8404  0.0701 -0.4856
14104TIP3    H263728   2.862   4.503   2.035 -0.6248 -0.2208 -0.7588
14105TIP3   OH263729   3.499   4.807   3.182 -0.1564 -0.3211 -0.3004
14105TIP3    H163730   3.592   4.783   3.182 -0.0916 -0.0680 -0.5886
14105TIP3    H263731   3.469   4.783   3.094 -0.8676 -2.3765  0.4714
14106TIP3   OH263732   1.665   4.055  12.595  0.1061  0.7242  0.0235
14106TIP3    H163733   1.657   4.091  12.506  1.8655  1.8893  0.3027
14106TIP3    H263734   1.593   4.094  12.643  0.2776  1.6309 -0.4237
14107TIP3   OH263735   5.450   1.838  11.787 -0.6678  0.1987 -0.4880
14107TIP3    H163736   5.501   1.887  11.852 -0.6619 -1.8354  1.0825
14107TIP3    H263737   5.363   1.830  11.828 -0.6657 -1.0850 -0.7364
14108TIP3   OH263738   1.046   3.694   3.283 -0.4810 -0.2380  0.5493
14108TIP3    H163739   1.014   3.655   3.364 -0.0402 -1.6204  0.0794
14108TIP3    H263740   1.139   3.670   3.281 -0.7494 -1.2290 -0.9290
14109TIP3   OH263741   0.539   0.036   4.834  0.2698 -0.1131 -0.0217
14109TIP3    H163742   0.482  -0.034   4.864  0.5889 -0.9420 -1.3107
14109TIP3    H263743   0.564   0.083   4.914  0.5677 -1.8541  0.9267
14110TIP3   OH263744   4.467   6.732   5.915 -0.0389  0.2770 -0.0937
14110TIP3    H163745   4.422   6.815   5.928 -3.0054 -1.5735  2.4930
14110TIP3    H263746   4.506   6.712   6.001 -1.1935 -1.9395 -0.0317
14111TIP3   OH263747   3.258   4.816  13.953 -0.1333  0.1592 -0.5079
14111TIP3    H163748   3.231   4.857  13.871  0.8750  0.5942 -0.6271
14111TIP3    H263749   3.182   4.823  14.010 -0.0929  1.8606 -0.6555
14112TIP3   OH263750   6.196   6.110   4.281  0.5335  0.3482  0.2197
14112TIP3    H163751   6.189   6.172   4.208  1.5969 -0.1907 -0.3577
14112TIP3    H263752   6.281   6.067   4.267  0.2384 -0.5444  1.1577
14113TIP3   OH263753   4.200   1.010   4.887 -0.4053  0.0429  0.3150
14113TIP3    H163754   4.117   1.029   4.930 -0.4269 -0.3488  0.4474
14113TIP3    H263755   4.242   1.096   4.878 -0.7914  0.2337  0.3083
14114TIP3   OH263756   4.911   6.512  17.182  0.0486  0.3434 -0.9712
14114TIP3    H163757   4.986   6.548  17.229 -0.4308  1.1516 -0.8310
14114TIP3    H263758   4.891   6.576  17.115 -1.8501  1.1572  0.3337
14115TIP3   OH263759   5.122   1.775  11.998  0.5832  0.0435 -0.1170
14115TIP3    H163760   5.027   1.782  12.007  0.5517  2.1991 -1.8702
14115TIP3    H263761   5.135   1.711  11.928  0.4769 -1.3983  1.1556
14116TIP3   OH263762   5.036   0.096   5.022 -0.1033 -0.2440  0.2518
14116TIP3    H163763   5.109   0.128   5.075  0.6207  1.3541 -1.6261
14116TIP3    H263764   5.075   0.028   4.967 -0.0374  0.4326 -0.5678
14117TIP3   OH263765   0.920   0.512   4.078 -0.2827  0.8471  0.5330
14117TIP3    H163766   1.005   0.504   4.122  0.2843  0.7530 -0.5451
14117TIP3    H263767   0.927   0.594   4.028 -0.5687  0.5063 -0.0756
14118TIP3   OH263768   3.126   0.123   4.787 -0.2262 -0.4862  0.0018
14118TIP3    H163769   3.170   0.192   4.737 -2.1681  0.2918 -0.6604
14118TIP3    H263770   3.073   0.170   4.851  0.9652 -1.4498  1.7379
14119TIP3   OH263771   4.727   5.803   6.216  0.5977 -0.3802  0.1348
14119TIP3    H163772   4.668   5.806   6.291  1.1823  0.4718  0.5677
14119TIP3    H263773   4.755   5.894   6.204  3.5546 -1.0894  1.3332
14120TIP3   OH263774   3.787   0.754  14.378 -0.1746  0.2082 -0.4001
14120TIP3    H163775   3.834   0.834  14.404 -0.2605  0.6402 -1.5808
14120TIP3    H263776   3.845   0.683  14.406  0.5363  0.7086 -0.5864
14121TIP3   OH263777   2.461   3.218  12.869 -0.1878  0.5101 -0.0296
14121TIP3    H163778   2.482   3.179  12.953 -0.3366  0.3363 -0.0739
14121TIP3    H263779   2.441   3.310  12.889 -2.3447 -0.0350  0.4166
14122TIP3   OH263780   2.707   4.808  13.840  0.2431 -0.2606 -0.2117
14122TIP3    H163781   2.733   4.846  13.755 -0.8628 -0.3489 -0.5984
14122TIP3    H263782   2.790   4.795  13.886  0.8278  0.2558 -1.0831
14123TIP3   OH263783   3.093   2.571  15.444 -0.2052  0.3908  0.0011
14123TIP3    H163784   3.159   2.565  15.374  0.9274 -0.5227  1.1274
14123TIP3    H263785   3.098   2.486  15.488 -1.6842  0.5637  0.5167
14124TIP3   OH263786   0.812   1.637  14.477 -0.0143 -0.1944 -0.1653
14124TIP3    H163787   0.753   1.646  14.551  0.0381  1.4162 -0.2983
14124TIP3    H263788   0.888   1.590  14.513 -0.4069 -0.2913  0.5490
14125TIP3   OH263789   5.161   6.707   5.472 -0.1421  0.1605  0.1293
14125TIP3    H163790   5.203   6.713   5.386  2.2500  0.1097  1.2426
14125TIP3    H263791   5.110   6.787   5.480 -0.0356  0.3652 -1.1620
14126TIP3   OH263792   5.858   0.011   2.232 -0.4313  1.2696  0.0765
14126TIP3    H163793   5.886   0.102   2.241 -0.3559  1.1212  1.3177
14126TIP3    H263794   5.884  -0.013   2.143  2.2420  1.5336  0.7526
14127TIP3   OH263795   0.600   6.430   0.670 -0.3584  0.1462  0.3905
14127TIP3    H163796   0.578   6.517   0.704 -0.3550  0.3481 -0.1073
14127TIP3    H263797   0.516   6.393   0.642  0.0594  1.4970 -2.8378
14128TIP3   OH263798   5.878   3.435   5.286  0.4637 -0.2746 -0.1189
14128TIP3    H163799   5.797   3.420   5.335  0.1638  0.1210 -0.4873
14128TIP3    H263800   5.867   3.384   5.206  0.5922 -0.2509 -0.1519
14129TIP3   OH263801   1.845   3.856  14.678  0.3266  0.4263  0.3186
14129TIP3    H163802   1.843   3.943  14.717  0.1764  0.5208  0.0986
14129TIP3    H263803   1.811   3.868  14.589 -0.3937  0.0292  0.5282
14130TIP3   OH263804   2.938   3.652   3.438  0.3228  0.0661  0.0776
14130TIP3    H163805   2.908   3.739   3.414  0.4509 -0.0856 -0.6542
14130TIP3    H263806   2.901   3.636   3.524  0.4940  0.9382  0.3160
14131TIP3   OH263807   5.374   2.380  14.376 -0.0559 -0.1107 -0.4946
14131TIP3    H163808   5.436   2.406  14.309  1.6786 -0.5056  0.9148
14131TIP3    H263809   5.428   2.352  14.450 -1.8873 -1.9756  0.2086
14132TIP3   OH263810   6.092   0.045  12.012 -0.5476  0.0860 -0.0024
14132TIP3    H163811   6.070  -0.027  12.071  0.2248  1.9287  2.6017
14132TIP3    H263812   6.017   0.104  12.017  0.3928  1.2417  0.7457
14133TIP3   OH263813   3.951   0.409  11.693  0.4076  0.0100 -0.0421
14133TIP3    H163814   3.923   0.500  11.686  1.1004  0.2170 -0.1543
14133TIP3    H263815   4.032   0.405  11.642 -0.3845 -1.0006 -1.2241
14134TIP3   OH263816   2.444   2.322  11.626 -0.0218 -0.3182 -0.1632
14134TIP3    H163817   2.381   2.393  11.642  0.1885 -0.6524  2.3511
14134TIP3    H263818   2.524   2.350  11.671 -0.4154 -2.8193  2.1890
14135TIP3   OH263819   3.093   4.389  14.443  0.0182 -0.0061 -0.4768
14135TIP3    H163820   3.079   4.321  14.509 -0.9376  1.2786  0.6944
14135TIP3    H263821   3.091   4.343  14.359  1.1913 -1.6564  0.3816
14136TIP3   OH263822   0.223   3.392   3.278  0.4348 -0.0593 -0.6595
14136TIP3    H163823   0.292   3.330   3.252  0.9660  0.3579 -0.2440
14136TIP3    H263824   0.261   3.478   3.261  0.0194  0.1738 -0.4016
14137TIP3   OH263825   2.210   1.127  16.169 -0.3456 -0.2060  0.0765
14137TIP3    H163826   2.149   1.108  16.097  1.5884 -1.6051 -1.2523
14137TIP3    H263827   2.172   1.082  16.244 -1.6520  0.0677 -0.3938
14138TIP3   OH263828   5.875   1.366  15.829 -0.4447  0.0479 -0.2137
14138TIP3    H163829   5.922   1.441  15.792 -0.0762  0.4591  1.0826
14138TIP3    H263830   5.940   1.320  15.881 -1.4233  0.5376  1.4590
14139TIP3   OH263831   1.757   5.463  11.495 -0.0540 -0.6138  0.1886
14139TIP3    H163832   1.821   5.531  11.517  0.3608 -1.4874  1.7920
14139TIP3    H263833   1.684   5.478  11.555 -0.1635 -1.2869  0.2293
14140TIP3   OH263834   2.070   0.820   6.460  0.2293  0.2868 -0.1383
14140TIP3    H163835   1.985   0.863   6.468  0.0724  0.3946 -2.0479
14140TIP3    H263836   2.051   0.727   6.473  0.1290  0.5126  1.3303
14141TIP3   OH263837   3.177   3.000   2.490  0.1595 -0.2606  0.4548
14141TIP3    H163838   3.153   2.907   2.494 -1.0838  0.1129  2.3367
14141TIP3    H263839   3.126   3.041   2.560 -0.3990  2.1111 -1.2933
14142TIP3   OH263840   5.378   4.500  11.873 -1.2751  0.1007 -0.3863
14142TIP3    H163841   5.314   4.571  11.867 -0.3500  0.8780 -1.3427
14142TIP3    H263842   5.327   4.420  11.860 -1.8724  0.7957 -2.5452
14143TIP3   OH263843   2.788   5.481   0.889  0.3700  0.4417 -0.1865
14143TIP3    H163844   2.694   5.477   0.905  0.2120 -1.2182 -1.4572
14143TIP3    H263845   2.813   5.569   0.918 -1.5338  0.8474  0.3013
14144TIP3   OH263846   0.049   6.098   0.553 -0.0971 -0.2826 -0.8425
14144TIP3    H163847  -0.034   6.137   0.578 -0.0938 -1.5836  1.2787
14144TIP3    H263848   0.100   6.172   0.519 -1.5338  0.8108 -0.6903
14145TIP3   OH263849   4.761   1.659  13.945 -0.0511  0.2587  0.2581
14145TIP3    H163850   4.841   1.708  13.928  0.6864 -0.9481  0.1662
14145TIP3    H263851   4.736   1.624  13.859  0.1843 -0.6437  0.5548
14146TIP3   OH263852   4.928   3.306   1.148  0.0597  0.2516 -0.2647
14146TIP3    H163853   4.946   3.283   1.239  1.0444 -0.6585 -0.6823
14146TIP3    H263854   4.884   3.230   1.111  3.0224 -0.9227 -1.5504
14147TIP3   OH263855   3.377   3.973  17.144 -0.5631  0.3618 -0.1191
14147TIP3    H163856   3.425   3.909  17.091  0.3955  0.9466  0.0335
14147TIP3    H263857   3.302   3.924  17.179  0.5454 -0.8498  0.5788
14148TIP3   OH263858   3.561   1.619   0.439  0.6687 -0.9550  0.6542
14148TIP3    H163859   3.498   1.594   0.372  0.2735 -1.7872  1.3281
14148TIP3    H263860   3.639   1.568   0.419  0.8331 -0.5780  0.3346
14149TIP3   OH263861   5.883   1.958   4.024  0.0713  0.3327  0.1878
14149TIP3    H163862   5.817   2.027   4.020 -0.0667  0.1197 -2.0352
14149TIP3    H263863   5.956   1.997   4.073  0.4981  2.5424 -2.0829
14150TIP3   OH263864   6.186   4.374   2.547 -0.5582 -0.1154  0.0890
14150TIP3    H163865   6.196   4.314   2.473  3.1548  0.1759  0.2580
14150TIP3    H263866   6.185   4.461   2.508 -0.1624 -0.0303  0.2675
14151TIP3   OH263867   2.792   0.784  15.462 -0.8800 -0.2212  0.1949
14151TIP3    H163868   2.870   0.838  15.459 -1.8647  1.2334  0.2500
14151TIP3    H263869   2.797   0.738  15.545  1.2052 -2.1337 -0.9423
14152TIP3   OH263870   2.914   0.708   4.886  0.4907  0.2771  0.9406
14152TIP3    H163871   2.891   0.625   4.929  0.0067 -0.2562 -0.3238
14152TIP3    H263872   3.009   0.712   4.892  0.7478 -1.5178 -0.9785
14153TIP3   OH263873   4.600   4.922  16.371 -0.1585 -0.7362  0.2167
14153TIP3    H163874   4.664   4.958  16.310 -0.8456 -0.7645 -0.5245
14153TIP3    H263875   4.581   4.835  16.337  1.3865 -1.7920  1.9159
14154TIP3   OH263876   3.674   0.518   5.317  0.3055 -0.3440 -0.2189
14154TIP3    H163877   3.740   0.505   5.386  0.5863 -2.3358 -0.8637
14154TIP3    H263878   3.604   0.568   5.361  0.6793 -1.2009  1.3951
14155TIP3   OH263879   6.384   6.443   3.080 -0.1063  0.7053  0.9058
14155TIP3    H163880   6.321   6.496   3.131 -1.3049 -0.5798  0.7805
14155TIP3    H263881   6.404   6.498   3.004 -1.6118  0.8563  0.5945
14156TIP3   OH263882   0.698   4.769  13.037 -0.5468  0.5627 -0.0700
14156TIP3    H163883   0.674   4.772  12.945  1.1372  0.7754 -0.5212
14156TIP3    H263884   0.743   4.852  13.052  0.8798 -0.2903  0.4543
14157TIP3   OH263885   5.195   2.328  12.917 -0.0808 -0.1012  0.2075
14157TIP3    H163886   5.100   2.318  12.917 -0.0107 -0.9391  1.4871
14157TIP3    H263887   5.211   2.410  12.872 -1.3148 -0.8212 -1.6198
14158TIP3   OH263888   0.314   6.486  10.522 -0.3949 -0.7071  0.2921
14158TIP3    H163889   0.314   6.568  10.570 -1.6749 -0.3433 -0.3254
14158TIP3    H263890   0.222   6.462  10.514 -0.0062 -2.5400  1.0301
14159TIP3   OH263891   0.423   3.827   2.842 -0.7440  0.4977  0.1273
14159TIP3    H163892   0.381   3.751   2.883  2.2343 -0.9154  0.7219
14159TIP3    H263893   0.426   3.805   2.749  1.1398 -0.7270  0.4284
14160TIP3   OH263894   4.197   2.520  12.411 -0.4277  0.3788  0.0916
14160TIP3    H163895   4.221   2.433  12.380 -1.3785 -0.5019  1.7990
14160TIP3    H263896   4.107   2.511  12.441 -0.8421  2.1790 -0.5448
14161TIP3   OH263897   0.593   3.751  13.788  0.3257  0.1035 -0.8063
14161TIP3    H163898   0.516   3.705  13.754  0.3853 -0.7369  0.1575
14161TIP3    H263899   0.646   3.769  13.711  0.2932 -1.4531 -1.2174
14162TIP3   OH263900   2.752   2.027  16.935  0.8268 -0.1958 -0.7851
14162TIP3    H163901   2.799   2.007  16.854  2.3772  0.0947  0.0115
14162TIP3    H263902   2.796   2.106  16.968 -1.2603  1.0003 -0.8107
14163TIP3   OH263903   3.977   0.259   3.161 -0.0595  0.1310 -0.2672
14163TIP3    H163904   4.053   0.258   3.103 -0.4737  0.5255 -0.8228
14163TIP3    H263905   3.978   0.173   3.203  1.1454  0.4250  0.3268
14164TIP3   OH263906   5.721   3.295  13.774  0.3600  0.0482  0.1913
14164TIP3    H163907   5.672   3.231  13.722  1.2166 -0.8199  0.4382
14164TIP3    H263908   5.717   3.375  13.723  0.6971 -0.6438 -0.9388
14165TIP3   OH263909   6.426   1.616   4.792 -0.6670  0.1808 -0.5104
14165TIP3    H163910   6.510   1.570   4.789  0.0856  1.5394 -0.9476
14165TIP3    H263911   6.366   1.560   4.743 -0.2218 -1.1771  0.4444
14166TIP3   OH263912   3.459   2.047   3.800 -0.2576  0.3189 -0.1877
14166TIP3    H163913   3.415   1.964   3.778  1.3797 -0.9969  1.3436
14166TIP3    H263914   3.407   2.083   3.872 -0.6305  0.3288 -0.4600
14167TIP3   OH263915   0.728   4.647   5.266  0.0553 -0.1212  0.1545
14167TIP3    H163916   0.664   4.581   5.293 -0.3074 -0.0871 -0.5918
14167TIP3    H263917   0.741   4.631   5.172  0.7579  0.2007  0.1913
14168TIP3   OH263918   4.264   5.332   6.171 -0.4564  0.0925  0.4577
14168TIP3    H163919   4.360   5.325   6.172 -0.4056 -0.3439 -2.6547
14168TIP3    H263920   4.234   5.243   6.185 -0.3941  0.0612  0.3964
14169TIP3   OH263921   3.153   5.324  14.268 -0.2598  0.4628  0.4737
14169TIP3    H163922   3.105   5.385  14.325  1.1406  0.4535  1.7065
14169TIP3    H263923   3.214   5.379  14.220  0.5938  0.1221  1.1516
14170TIP3   OH263924   4.452   1.094  13.423  0.2072 -0.4438  0.0974
14170TIP3    H163925   4.446   1.155  13.497 -1.4634  0.2245 -0.5633
14170TIP3    H263926   4.494   1.016  13.460  0.4283  0.2988  1.4727
14171TIP3   OH263927   5.695   2.032  16.824  0.3094  0.6436 -0.3448
14171TIP3    H163928   5.732   1.944  16.816  0.1944  0.8022 -2.7228
14171TIP3    H263929   5.621   2.020  16.884  1.0771 -0.6274  0.3801
14172TIP3   OH263930   6.233   3.377   3.045 -0.0433 -0.5588 -0.1081
14172TIP3    H163931   6.236   3.283   3.028 -1.4512 -0.7400  0.5538
14172TIP3    H263932   6.276   3.417   2.970  0.3537 -1.7212 -0.5005
14173TIP3   OH263933   4.448   1.560   3.087  0.1036  0.2221 -0.1067
14173TIP3    H163934   4.523   1.616   3.069 -0.1709  1.2339  1.7628
14173TIP3    H263935   4.463   1.529   3.177 -0.4794 -1.5522 -0.5991
14174TIP3   OH263936   5.096   0.424  12.249  0.1172  0.2232  0.1604
14174TIP3    H163937   5.176   0.476  12.256 -0.4417  1.2427 -0.8168
14174TIP3    H263938   5.127   0.334  12.236  1.1660  0.9198 -2.6833
14175TIP3   OH263939   3.933   4.279   1.223  0.1298  0.5042 -0.0712
14175TIP3    H163940   3.980   4.317   1.148 -1.5767  0.8037 -1.0122
14175TIP3    H263941   3.841   4.284   1.198 -0.4408  0.3456  1.9426
14176TIP3   OH263942   0.978   3.596   5.450  0.1334  0.4603 -0.5980
14176TIP3    H163943   1.044   3.587   5.519 -0.4719  1.1951  0.0790
14176TIP3    H263944   0.941   3.508   5.441  0.3379  0.3239 -0.1157
14177TIP3   OH263945   0.545   3.615   0.235 -0.2350 -0.6374 -0.6852
14177TIP3    H163946   0.453   3.596   0.217  0.1868 -0.5453 -3.0848
14177TIP3    H263947   0.593   3.546   0.188  0.9837  0.5178 -1.1554
14178TIP3   OH263948   6.039   3.374  11.762 -0.3068 -0.3894 -0.4170
14178TIP3    H163949   5.995   3.397  11.844 -0.2752  3.0141 -1.2940
14178TIP3    H263950   5.978   3.401  11.694  0.5309 -1.3448 -1.5605
14179TIP3   OH263951   0.298   1.296   4.254 -0.2947  0.3339  0.2814
14179TIP3    H163952   0.224   1.240   4.278  0.4107  0.1185  2.0799
14179TIP3    H263953   0.337   1.321   4.338  0.0810  2.6207 -0.5305
14180TIP3   OH263954   0.928   2.998   3.677 -0.5956  0.6237  0.0528
14180TIP3    H163955   0.859   2.986   3.742  0.8400  0.5369  1.6160
14180TIP3    H263956   0.927   2.917   3.626 -0.3237 -0.2610  1.4031
14181TIP3   OH263957   5.180   5.928  13.337 -0.4230  0.6791  0.3524
14181TIP3    H163958   5.091   5.962  13.335 -0.1904  1.2710 -0.0455
14181TIP3    H263959   5.173   5.844  13.383 -1.0396  1.1350  1.0866
14182TIP3   OH263960   5.164   5.049   2.966 -0.2203 -0.3610 -0.4688
14182TIP3    H163961   5.151   4.955   2.984  1.1450 -0.4846 -0.0740
14182TIP3    H263962   5.191   5.086   3.050 -1.5898  0.5591 -0.4193
14183TIP3   OH263963   0.579   0.088  13.025 -0.2696 -0.4749  0.2488
14183TIP3    H163964   0.596   0.166  13.077  0.1649 -1.2567  1.3029
14183TIP3    H263965   0.664   0.044  13.019  0.1023  0.5175 -2.6698
14184TIP3   OH263966   1.428   0.619  16.732 -0.5476  0.5737 -0.5525
14184TIP3    H163967   1.341   0.643  16.702 -0.3199 -0.8569 -2.4348
14184TIP3    H263968   1.417   0.533  16.771 -0.2364  1.0414  0.5988
14185TIP3   OH263969   1.710   3.032  16.296  0.3894  0.3362  0.4125
14185TIP3    H163970   1.628   3.055  16.340 -0.5408 -0.9320 -0.6099
14185TIP3    H263971   1.732   2.946  16.331  1.7981  1.0681  1.3693
14186TIP3   OH263972   1.718   3.619  14.773  0.5435  0.2498 -0.6126
14186TIP3    H163973   1.771   3.698  14.764  1.0581 -0.1476 -1.0845
14186TIP3    H263974   1.687   3.621  14.863  1.5321  0.3764 -0.2686
14187TIP3   OH263975   2.253   2.111   1.599 -0.3246  0.1204  0.7040
14187TIP3    H163976   2.265   2.198   1.559  0.9609 -0.3240  0.1117
14187TIP3    H263977   2.338   2.091   1.639 -0.3114 -1.2832 -0.0017
14188TIP3   OH263978   5.088   4.833  17.000 -0.1330  0.9479 -0.1450
14188TIP3    H163979   5.103   4.821  16.906  0.7558  2.1696 -0.1703
14188TIP3    H263980   5.176   4.832  17.039 -0.5404 -0.3928  0.7961
14189TIP3   OH263981   6.313   3.878   0.379 -0.1034  0.2014 -0.0190
14189TIP3    H163982   6.229   3.849   0.414 -0.5086  1.4534  0.0469
14189TIP3    H263983   6.378   3.821   0.422 -0.8959 -0.7379 -0.0403
14190TIP3   OH263984   1.992   6.552   4.870  0.1393 -0.2152 -0.0996
14190TIP3    H163985   2.080   6.520   4.849 -0.1968 -0.4003 -1.2495
14190TIP3    H263986   1.933   6.485   4.838 -0.4440  0.0308  0.4415
14191TIP3   OH263987   1.406   2.408   3.888  0.3928 -0.4113  0.4459
14191TIP3    H163988   1.431   2.464   3.961 -0.8005  0.6331  0.0707
14191TIP3    H263989   1.313   2.424   3.876  0.1947 -1.9072 -0.1669
14192TIP3   OH263990   1.944   2.950  12.412  0.2516  0.1883  0.5692
14192TIP3    H163991   1.966   2.948  12.319 -0.1880 -0.2201  0.4717
14192TIP3    H263992   1.864   2.899  12.419  0.1532  0.4148  1.1388
14193TIP3   OH263993   6.215   0.975   0.604 -0.1120  0.0773 -0.3035
14193TIP3    H163994   6.131   0.934   0.582 -0.3579 -0.7294  1.9525
14193TIP3    H263995   6.193   1.067   0.620 -0.3975  0.0830 -0.7211
14194TIP3   OH263996   0.939   6.053  12.471  0.1928  0.8241  0.2625
14194TIP3    H163997   0.968   5.970  12.509 -0.3539 -0.5737 -2.2583
14194TIP3    H263998   1.019   6.094  12.437  0.2980  0.7757  0.4530
14195TIP3   OH263999   6.126   6.492   4.910 -0.3113  0.3751  0.3904
14195TIP3    H164000   6.101   6.423   4.971 -0.3998  0.5530  0.5577
14195TIP3    H264001   6.048   6.547   4.902  1.0658  3.0184  3.7312
14196TIP3   OH264002   4.303   6.499  16.934  0.2918  0.1070 -0.2042
14196TIP3    H164003   4.261   6.438  16.874  0.9252  0.3038 -0.8653
14196TIP3    H264004   4.334   6.570  16.877  0.6665  0.4214  0.3875
14197TIP3   OH264005   4.112   1.990   3.664  0.2454  0.3853  0.1901
14197TIP3    H164006   4.031   1.948   3.694  0.6098  0.1589  0.8774
14197TIP3    H264007   4.148   2.031   3.743  1.1050 -0.0259  0.0157
14198TIP3   OH264008   4.282   1.629  12.127  0.0272 -0.4421 -0.5184
14198TIP3    H164009   4.199   1.660  12.162 -0.7617 -0.9965 -1.8698
14198TIP3    H264010   4.343   1.636  12.200 -0.9349  1.0414  0.1646
14199TIP3   OH264011   5.500   3.575   5.448 -0.1283 -0.0124 -0.2465
14199TIP3    H164012   5.405   3.583   5.441 -0.1576 -0.5416 -0.4508
14199TIP3    H264013   5.516   3.480   5.449  0.0522 -0.0735  3.9770
14200TIP3   OH264014   0.893   6.256  11.525 -0.0567  0.0289  0.4900
14200TIP3    H164015   0.836   6.231  11.598 -1.6456  1.1709 -0.3136
14200TIP3    H264016   0.842   6.233  11.447  1.6553 -1.2630 -0.2809
14201TIP3   OH264017   5.006   2.698   3.704  0.0122  0.1417  0.5952
14201TIP3    H164018   4.955   2.689   3.784  0.6758  0.4972  1.0733
14201TIP3    H264019   5.024   2.792   3.698 -0.9262  0.2532 -0.5387
14202TIP3   OH264020   0.456   6.741  16.583  0.6668  0.2380  0.8097
14202TIP3    H164021   0.383   6.698  16.539  1.6338 -1.5699  0.9242
14202TIP3    H264022   0.531   6.725  16.525  1.7062 -1.1099  2.4884
14203TIP3   OH264023   0.631   1.588   2.467  0.4787 -0.0556 -0.0105
14203TIP3    H164024   0.608   1.668   2.419  0.4462 -1.1313 -1.7902
14203TIP3    H264025   0.564   1.582   2.535 -2.0020 -0.8114 -2.4635
14204TIP3   OH264026   0.075   2.426   1.512 -0.5119  0.4319  0.1895
14204TIP3    H164027   0.061   2.374   1.433  1.0879 -0.1090  0.2444
14204TIP3    H264028   0.039   2.513   1.491  1.3592  0.7709 -1.7144
14205TIP3   OH264029   1.637   0.146   2.988 -0.3492  0.2998 -0.2679
14205TIP3    H164030   1.626   0.071   3.046  1.0074 -0.8442 -1.4302
14205TIP3    H264031   1.654   0.220   3.046 -2.3377 -0.1679  0.9200
14206TIP3   OH264032   6.506   0.646  15.535 -0.1506 -0.1487 -0.2250
14206TIP3    H164033   6.495   0.652  15.630  0.0530 -0.2853 -0.1908
14206TIP3    H264034   6.456   0.569  15.509 -1.7668  0.9709 -0.4926
14207TIP3   OH264035   5.183   1.649   6.044  0.6200 -0.1009 -0.4121
14207TIP3    H164036   5.113   1.674   6.105  0.5783 -0.8452 -0.1466
14207TIP3    H264037   5.235   1.728   6.034 -1.0405  0.8693 -1.6905
14208TIP3   OH264038   5.205   0.822   2.039  0.1496 -0.4789  0.4172
14208TIP3    H164039   5.215   0.908   1.999 -1.4948 -0.5049 -0.0895
14208TIP3    H264040   5.237   0.761   1.973 -0.9755 -0.4051 -0.2166
14209TIP3   OH264041   6.129   1.995  12.828  0.7421  0.3533  0.2221
14209TIP3    H164042   6.159   1.973  12.740 -2.4414  0.8439 -1.0559
14209TIP3    H264043   6.092   2.083  12.820  0.9829  0.6709  2.2002
14210TIP3   OH264044   1.781   2.405  16.826  0.2813  0.0451 -0.0965
14210TIP3    H164045   1.730   2.472  16.872  1.1196  0.6934 -0.0879
14210TIP3    H264046   1.872   2.435  16.835  0.8279 -1.9420  1.3100
14211TIP3   OH264047   1.755   4.379   5.636 -0.4442  1.1674 -0.0486
14211TIP3    H164048   1.671   4.373   5.591 -0.4447 -0.7920  0.1413
14211TIP3    H264049   1.818   4.339   5.575 -0.4362 -1.4712  1.5851
14212TIP3   OH264050   2.423   0.652  11.847  0.1374  0.9422 -0.2410
14212TIP3    H164051   2.390   0.562  11.844 -1.2602  1.4742 -1.3405
14212TIP3    H264052   2.502   0.651  11.792  1.5928 -0.1660  1.7933
14213TIP3   OH264053   6.445   2.512   4.576 -0.3693  0.4761 -0.1629
14213TIP3    H164054   6.513   2.573   4.550 -0.2994  0.3324 -0.3169
14213TIP3    H264055   6.491   2.432   4.599 -0.1560  1.4731  3.1868
14214TIP3   OH264056   4.352   6.496   4.085  0.4787  0.0414 -0.5546
14214TIP3    H164057   4.309   6.497   4.171 -0.0052  2.3729 -0.7751
14214TIP3    H264058   4.298   6.437   4.032 -0.5614  0.3678  0.1175
14215TIP3   OH264059   5.408   5.322   6.599 -0.2246 -0.5616  0.1260
14215TIP3    H164060   5.451   5.392   6.549  0.9350 -0.9141  0.6109
14215TIP3    H264061   5.469   5.249   6.595 -0.5923 -0.9337  1.2035
14216TIP3   OH264062   3.915   2.475   2.569 -0.0502  0.0618 -0.0276
14216TIP3    H164063   3.908   2.530   2.490  0.1825  0.7664  0.4341
14216TIP3    H264064   3.979   2.521   2.624 -3.0039  1.6656  2.2179
14217TIP3   OH264065   2.152   0.165   3.061 -0.2304 -0.3246  0.0399
14217TIP3    H164066   2.094   0.242   3.059 -1.1327 -0.9822  0.4551
14217TIP3    H264067   2.221   0.189   3.122  0.4645  0.8263 -1.1473
14218TIP3   OH264068   3.424   3.949   5.061 -0.3288 -0.2619  0.0606
14218TIP3    H164069   3.505   3.931   5.110  0.8642  2.0010 -0.9869
14218TIP3    H264070   3.368   3.995   5.123  1.7227  3.8727 -0.9391
14219TIP3   OH264071   3.586   4.543  11.198 -0.1197 -0.3254 -0.3819
14219TIP3    H164072   3.551   4.461  11.165 -1.8435  0.9724 -1.8879
14219TIP3    H264073   3.527   4.610  11.163  1.6243  1.6000  0.2697
14220TIP3   OH264074   0.840   5.031   1.136  0.0469 -0.2571 -0.4778
14220TIP3    H164075   0.811   5.119   1.114  0.6071  0.6076  2.0949
14220TIP3    H264076   0.935   5.034   1.129  0.0706 -0.6454 -0.3344
14221TIP3   OH264077   3.394   3.992  12.567 -0.0429  0.6094  0.2821
14221TIP3    H164078   3.370   3.992  12.474  1.3294  0.7523 -0.0936
14221TIP3    H264079   3.379   4.082  12.596 -0.6199  0.5272  0.2441
14222TIP3   OH264080   6.046   1.825   3.827  0.0949  0.2232 -0.1366
14222TIP3    H164081   5.989   1.797   3.755  1.1705  1.8137 -1.6375
14222TIP3    H264082   5.990   1.879   3.883 -0.0431  1.2944 -1.2880
14223TIP3   OH264083   3.775   5.378   5.216 -1.1020 -0.1460 -0.1548
14223TIP3    H164084   3.851   5.370   5.274 -1.7244  0.4391  0.7517
14223TIP3    H264085   3.741   5.289   5.209  1.4750 -1.0061 -3.0887
14224TIP3   OH264086   3.460   0.469  10.674 -0.1600 -0.0841 -0.2943
14224TIP3    H164087   3.427   0.380  10.683  1.7381 -0.5492  3.0154
14224TIP3    H264088   3.554   0.458  10.659 -0.2504  1.3197 -2.0090
14225TIP3   OH264089   1.185   2.450  16.395 -0.0750 -0.4865 -0.4220
14225TIP3    H164090   1.090   2.441  16.407 -0.0064 -1.4125 -0.5297
14225TIP3    H264091   1.195   2.480  16.305 -0.3365  1.0985  0.0690
14226TIP3   OH264092   2.661   3.327   0.122  0.6236 -0.7812 -0.2666
14226TIP3    H164093   2.719   3.360   0.053  0.2095 -0.4193 -0.4498
14226TIP3    H264094   2.577   3.315   0.078  0.5017 -1.0840  0.0496
14227TIP3   OH264095   2.959   2.478  13.442 -0.4541  0.3309  0.5822
14227TIP3    H164096   3.015   2.540  13.489  1.4401 -0.6260 -0.3614
14227TIP3    H264097   3.019   2.411  13.410 -2.2322 -1.0132  0.0055
14228TIP3   OH264098   5.793   4.506  13.231 -0.1063 -0.3925  0.4302
14228TIP3    H164099   5.749   4.539  13.153 -2.2712 -1.6683  1.0654
14228TIP3    H264100   5.854   4.440  13.198  0.8757  0.9198 -0.4056
14229TIP3   OH264101   2.934   4.945   0.548 -0.3373 -0.2793  0.2887
14229TIP3    H164102   2.885   5.025   0.564  0.4326  0.1397  0.5894
14229TIP3    H264103   2.999   4.970   0.481  0.0396 -0.5882  0.5359
14230TIP3   OH264104   3.254   2.431   4.395  0.5017  0.1640  0.2868
14230TIP3    H164105   3.257   2.527   4.389  1.6588  0.0317 -1.5307
14230TIP3    H264106   3.342   2.403   4.372  0.0675 -1.3738  0.4533
14231TIP3   OH264107   2.830   6.497   4.566  0.0092  0.2787  0.2431
14231TIP3    H164108   2.907   6.532   4.612  0.0062 -0.1859  0.6057
14231TIP3    H264109   2.855   6.408   4.542 -0.8122 -0.2703  1.3388
14232TIP3   OH264110   2.092   2.054   2.007 -0.0389 -0.4262  0.0326
14232TIP3    H164111   2.003   2.018   2.009  0.7375 -2.8028 -3.4625
14232TIP3    H264112   2.089   2.122   1.940  0.5358  0.3429  0.7696
14233TIP3   OH264113   3.623   1.812  12.090  0.1433 -0.8227  0.0496
14233TIP3    H164114   3.674   1.820  12.170 -0.0151  2.1559 -0.1218
14233TIP3    H264115   3.681   1.842  12.020 -1.1451  0.7739 -0.3781
14234TIP3   OH264116   0.549   4.155   1.854 -0.5416  0.1311  0.1493
14234TIP3    H164117   0.553   4.155   1.950  0.8678 -0.1475  0.1066
14234TIP3    H264118   0.457   4.140   1.834 -0.8079 -0.0861  1.4688
14235TIP3   OH264119   1.746   4.175  13.157 -0.3120  0.0552  0.1366
14235TIP3    H164120   1.718   4.089  13.125  0.1771  0.6394 -1.9201
14235TIP3    H264121   1.841   4.171  13.157 -0.2695  0.8235 -0.6444
14236TIP3   OH264122   1.903   6.610  12.040 -0.6399  0.0005 -0.1231
14236TIP3    H164123   1.932   6.667  11.968  0.9005 -0.7237 -0.1075
14236TIP3    H264124   1.882   6.527  11.996  0.1502 -0.3914  0.2207
14237TIP3   OH264125   3.696   0.155  11.831  0.0565  0.4482  0.2046
14237TIP3    H164126   3.784   0.190  11.846 -0.3681  1.0470  1.3661
14237TIP3    H264127   3.644   0.232  11.806 -0.6877  0.5196  1.9164
14238TIP3   OH264128   6.775   2.915   5.372 -0.4995  0.0379  0.2672
14238TIP3    H164129   6.866   2.912   5.341 -0.4407  2.5138  0.1017
14238TIP3    H264130   6.757   2.826   5.402  1.5586 -0.8100 -0.8985
14239TIP3   OH264131   2.763   4.071   4.542 -0.3617  0.1288 -0.2576
14239TIP3    H164132   2.719   4.021   4.611  0.4488 -1.1652 -0.6586
14239TIP3    H264133   2.849   4.029   4.534 -0.7961 -0.3746 -2.7165
14240TIP3   OH264134   0.527   3.790  11.793  0.0728  0.0253  0.1806
14240TIP3    H164135   0.492   3.713  11.748  1.2344  0.3719 -1.3670
14240TIP3    H264136   0.526   3.859  11.727  1.5909  0.6031  0.7360
14241TIP3   OH264137   3.387   5.768  12.558  0.2548  0.5703  0.2618
14241TIP3    H164138   3.363   5.754  12.650 -0.8303  0.6969  0.0076
14241TIP3    H264139   3.469   5.721  12.547  0.2590  0.3411  1.2343
14242TIP3   OH264140   0.437   4.152   3.066 -0.2366  0.4160 -0.6387
14242TIP3    H164141   0.519   4.104   3.050 -0.7368  0.3930 -3.3164
14242TIP3    H264142   0.460   4.218   3.132  1.6847 -0.2271 -0.6373
14243TIP3   OH264143   5.396   5.889   4.582  0.1778  0.4848 -0.3058
14243TIP3    H164144   5.427   5.976   4.606  2.8426 -0.4027 -0.2974
14243TIP3    H264145   5.325   5.904   4.520  1.2654  2.6460 -1.0556
14244TIP3   OH264146   1.348   5.598   3.564  0.4798  0.3184  0.1780
14244TIP3    H164147   1.376   5.618   3.475  0.2593  0.7839  0.2158
14244TIP3    H264148   1.303   5.677   3.594  0.5873  0.1766  0.7166
14245TIP3   OH264149   4.784   5.305   5.296 -0.2037  0.3006 -0.1049
14245TIP3    H164150   4.847   5.339   5.232  0.9250 -1.5271  0.0128
14245TIP3    H264151   4.796   5.360   5.373  0.1103  0.9821 -0.6348
14246TIP3   OH264152   6.028   5.283  16.714 -0.4429 -0.3543 -0.1806
14246TIP3    H164153   6.013   5.371  16.750  2.5492  0.5135 -0.8830
14246TIP3    H264154   6.041   5.229  16.792  0.2184  0.3481  0.2159
14247TIP3   OH264155   0.476   2.093  12.257  0.7637  0.1985  0.0098
14247TIP3    H164156   0.466   2.166  12.197  0.5852 -0.1422 -0.3775
14247TIP3    H264157   0.485   2.016  12.200  2.2155  0.0747  0.3769
14248TIP3   OH264158   0.313   6.559  12.431 -0.1068  0.1249 -0.8911
14248TIP3    H164159   0.325   6.553  12.525  1.5121  1.2237 -1.0168
14248TIP3    H264160   0.337   6.472  12.398 -2.2205 -0.7588 -0.1551
14249TIP3   OH264161   3.787   1.085   3.199 -0.2669 -0.3895  0.5674
14249TIP3    H164162   3.825   1.054   3.117 -1.9503 -1.9647  0.3635
14249TIP3    H264163   3.833   1.037   3.267  0.1037 -0.1637  0.4788
14250TIP3   OH264164   0.786   3.748   2.502  0.0193  0.3442 -0.2198
14250TIP3    H164165   0.710   3.716   2.550  1.4653  0.0788  1.9354
14250TIP3    H264166   0.825   3.670   2.463  0.2474  0.2383  0.2213
14251TIP3   OH264167   5.496   3.865  17.032 -0.0749  0.2681  0.3278
14251TIP3    H164168   5.541   3.826  17.108  1.4572  2.6989  0.7159
14251TIP3    H264169   5.558   3.856  16.960 -0.4044  0.4432  0.0204
14252TIP3   OH264170   3.256   6.289  16.368  0.2855  0.1438 -0.4741
14252TIP3    H164171   3.344   6.314  16.398 -0.1613 -0.3896  1.3380
14252TIP3    H264172   3.219   6.371  16.335  0.2492  1.1214  1.8578
14253TIP3   OH264173   2.202   2.835  15.176  0.4083 -0.3808  0.1315
14253TIP3    H164174   2.280   2.780  15.179 -0.0346 -1.1377 -1.5096
14253TIP3    H264175   2.129   2.774  15.190  0.0070  0.0102 -0.2329
14254TIP3   OH264176   3.724   6.510   4.555 -0.1079  0.2980  0.4753
14254TIP3    H164177   3.767   6.564   4.622 -1.8991 -0.2483  2.0928
14254TIP3    H264178   3.744   6.420   4.581  0.0205  0.0969 -0.3063
14255TIP3   OH264179   5.034   3.138   0.790  0.8763  0.3502 -0.1547
14255TIP3    H164180   4.965   3.194   0.756 -0.4061 -1.1091  0.0243
14255TIP3    H264181   5.001   3.108   0.875  1.5065 -0.7653 -0.2992
14256TIP3   OH264182   1.606   2.004  17.194 -0.3736 -0.2209  0.5342
14256TIP3    H164183   1.606   1.919  17.238 -0.1673 -0.3197  0.3458
14256TIP3    H264184   1.517   2.037  17.205 -0.2844 -0.1854  1.1397
14257TIP3   OH264185   0.923   4.793   2.158  0.1355  0.0690 -0.6309
14257TIP3    H164186   0.985   4.864   2.142 -0.4834  0.6047 -0.6583
14257TIP3    H264187   0.849   4.812   2.100 -0.1811 -0.4090 -0.3895
14258TIP3   OH264188   4.109   5.607   2.153 -0.2994 -0.2239 -0.4042
14258TIP3    H164189   4.151   5.688   2.180  0.0650 -0.9256  1.1920
14258TIP3    H264190   4.134   5.543   2.220 -3.6333 -0.7499  0.4131
14259TIP3   OH264191   5.330   5.029   2.590 -0.1306 -0.8211  0.2561
14259TIP3    H164192   5.421   5.059   2.579 -0.5810  0.1192 -1.0268
14259TIP3    H264193   5.300   5.074   2.669  0.0342  0.1078 -0.1927
14260TIP3   OH264194   6.605   3.268  17.124  0.1493  0.6584 -0.1270
14260TIP3    H164195   6.635   3.339  17.181  0.2621  1.2240 -0.8837
14260TIP3    H264196   6.685   3.233  17.085  0.0700  0.2746  0.0561
14261TIP3   OH264197   0.604   2.018   5.707  0.7018 -0.6708  0.5115
14261TIP3    H164198   0.696   2.009   5.682  1.1624  0.6568  1.6989
14261TIP3    H264199   0.606   2.036   5.801 -0.7066  0.9344  0.2514
14262TIP3   OH264200   0.919   4.274   6.040 -0.1378 -0.1997  0.1444
14262TIP3    H164201   0.942   4.366   6.050 -0.5550  0.0511 -1.1750
14262TIP3    H264202   0.973   4.243   5.968 -0.3664 -0.8716  0.2571
14263TIP3   OH264203   5.822   1.451  11.568  0.0552 -0.2814  0.0611
14263TIP3    H164204   5.843   1.544  11.575 -0.1816 -0.2018 -0.2581
14263TIP3    H264205   5.869   1.410  11.640 -0.0954  0.1317  0.3957
14264TIP3   OH264206   0.272   3.932   6.464  0.1322 -0.1013  0.1267
14264TIP3    H164207   0.325   4.011   6.479 -0.7030  0.2766  1.0959
14264TIP3    H264208   0.286   3.879   6.542 -1.6940  0.4378  0.8296
14265TIP3   OH264209   3.231   3.804   1.636 -0.2430 -0.1678  0.3690
14265TIP3    H164210   3.266   3.870   1.575  1.9104 -2.8796 -1.4199
14265TIP3    H264211   3.308   3.762   1.673 -1.5112 -3.9274 -1.0253
14266TIP3   OH264212   6.458   4.418   5.174  0.4019  0.0310 -0.8571
14266TIP3    H164213   6.510   4.495   5.198  0.5732 -0.5827  0.7827
14266TIP3    H264214   6.376   4.454   5.139 -0.9919  0.9952  3.1820
14267TIP3   OH264215   1.156   6.632   3.843  0.2750  0.3533  1.1174
14267TIP3    H164216   1.232   6.610   3.897  0.0646 -0.4574  1.0788
14267TIP3    H264217   1.081   6.617   3.900  0.1030  0.3955  0.9001
14268TIP3   OH264218   4.996   1.029   3.073  0.2256 -0.4202  0.2095
14268TIP3    H164219   5.012   0.940   3.044  0.2952 -0.6203  0.8593
14268TIP3    H264220   5.078   1.057   3.113 -0.0573 -0.3541  0.7446
14269TIP3   OH264221   5.463   4.954  14.834 -0.6562 -0.0855  0.1037
14269TIP3    H164222   5.378   4.947  14.791 -1.3742  0.5356  1.3574
14269TIP3    H264223   5.460   4.887  14.903 -0.3131  0.2292  0.4271
14270TIP3   OH264224   0.400   2.203   5.309  1.0941  0.1814  0.3100
14270TIP3    H164225   0.387   2.265   5.237  0.7072 -0.9697 -0.6283
14270TIP3    H264226   0.480   2.233   5.352  0.9705  1.2681 -0.2032
14271TIP3   OH264227   6.183   3.431   4.412  0.1564 -0.3650 -0.4876
14271TIP3    H164228   6.193   3.460   4.502  0.7486  0.5142 -0.8297
14271TIP3    H264229   6.272   3.437   4.375 -0.6826  2.6683 -2.1410
14272TIP3   OH264230   4.283   0.396  12.309 -0.0281 -0.1478 -0.0865
14272TIP3    H164231   4.332   0.425  12.385 -0.1488  0.7416 -0.3426
14272TIP3    H264232   4.348   0.390  12.239 -0.2624  0.9563 -0.4073
14273TIP3   OH264233   6.087   3.605   1.466 -0.6598 -0.6280 -0.0168
14273TIP3    H164234   6.063   3.682   1.414  0.1779  0.8760  1.7487
14273TIP3    H264235   6.003   3.563   1.487 -1.2727  0.8441  0.5422
14274TIP3   OH264236   4.398   4.682  16.510 -0.5643 -0.3090 -0.2460
14274TIP3    H164237   4.418   4.726  16.592 -1.1546 -0.3886 -0.0563
14274TIP3    H264238   4.458   4.720  16.446 -0.5691  0.2313  0.0762
14275TIP3   OH264239   3.594   6.541   5.852 -0.6693  0.5514 -0.8154
14275TIP3    H164240   3.686   6.550   5.828 -0.7227  0.1194 -1.1852
14275TIP3    H264241   3.594   6.488   5.931 -0.6211  0.2751 -1.0005
14276TIP3   OH264242   1.493   6.194  13.868 -0.1175 -0.0497  0.3060
14276TIP3    H164243   1.488   6.131  13.796 -0.1878  0.6567 -0.3125
14276TIP3    H264244   1.498   6.279  13.824  0.0641  0.3658  1.1380
14277TIP3   OH264245   3.811   0.061  11.570  0.0911  0.3990 -1.0627
14277TIP3    H164246   3.737   0.092  11.623  2.1727  0.3485  2.0225
14277TIP3    H264247   3.848  -0.011  11.622  2.7953  0.9784 -2.1326
14278TIP3   OH264248   4.278   1.011   2.640 -0.4246  0.6152 -0.4281
14278TIP3    H164249   4.240   1.082   2.691  0.6078  0.9579 -0.1229
14278TIP3    H264250   4.308   1.054   2.559  1.7858  0.8787  0.4932
14279TIP3   OH264251   0.239   2.073   2.514 -0.0086 -0.0311 -0.3776
14279TIP3    H164252   0.271   2.052   2.602  0.1392 -0.2246 -0.4761
14279TIP3    H264253   0.168   2.010   2.499 -0.8174  0.7568  0.0611
14280TIP3   OH264254   2.746   5.212   3.004  0.4430  0.3580 -0.6720
14280TIP3    H164255   2.734   5.133   3.057  1.1203  0.4684 -0.3450
14280TIP3    H264256   2.840   5.229   3.007  0.0929  2.2681  0.8544
14281TIP3   OH264257   1.211   6.748  13.298 -0.1868  0.5877 -0.5102
14281TIP3    H164258   1.193   6.721  13.388  0.7464  0.9561 -0.2169
14281TIP3    H264259   1.186   6.672  13.246  0.7566 -0.2179  0.1866
14282TIP3   OH264260   1.964   0.519   1.071  0.6208  0.0008 -0.2183
14282TIP3    H164261   2.055   0.515   1.041  0.3780 -0.7698 -0.8708
14282TIP3    H264262   1.913   0.489   0.996 -0.0939 -0.6286  0.5136
14283TIP3   OH264263   3.005   2.591   5.487 -0.5157 -0.3652 -0.0902
14283TIP3    H164264   2.916   2.603   5.521 -0.5062 -1.9893  0.5612
14283TIP3    H264265   2.996   2.525   5.419  0.4755 -2.0046  1.3365
14284TIP3   OH264266   2.304   1.090   6.134  0.4062  0.1522 -0.3540
14284TIP3    H164267   2.260   1.119   6.215 -2.0526  1.3703 -2.0736
14284TIP3    H264268   2.375   1.034   6.165 -0.0201  1.1739  2.7043
14285TIP3   OH264269   4.977   0.536   2.814  0.1188  0.3278 -0.6426
14285TIP3    H164270   4.955   0.475   2.743  1.1194 -0.2427 -0.4699
14285TIP3    H264271   5.073   0.534   2.819  0.0267 -0.7918  1.7004
14286TIP3   OH264272   1.485   3.468   6.605 -0.2774 -0.1807 -0.5269
14286TIP3    H164273   1.427   3.507   6.670  2.4151 -1.6382  2.8921
14286TIP3    H264274   1.469   3.374   6.611  0.3994 -0.3826 -1.5883
14287TIP3   OH264275   3.943   1.588   0.090  0.0499  0.1372  0.8489
14287TIP3    H164276   3.997   1.575   0.012  1.3014  1.3557  1.4884
14287TIP3    H264277   3.894   1.668   0.071  0.8950  0.8409  1.5942
14288TIP3   OH264278   4.926   3.321   6.172  0.8974 -0.0398 -0.2623
14288TIP3    H164279   4.967   3.338   6.257 -0.1749  1.2599  0.0282
14288TIP3    H264280   4.992   3.349   6.108  1.3182 -0.0428  0.1658
14289TIP3   OH264281   3.806   4.412  15.984 -0.5818 -0.9174 -0.6262
14289TIP3    H164282   3.759   4.464  16.049  2.7420  0.1186  1.0248
14289TIP3    H264283   3.739   4.355  15.947 -3.0415  0.1582  1.9647
14290TIP3   OH264284   1.812   4.791  12.554 -0.2772 -0.4666 -0.0188
14290TIP3    H164285   1.885   4.791  12.493  2.0182 -1.8486  2.6200
14290TIP3    H264286   1.847   4.832  12.633 -3.0791  0.9879  0.5285
14291TIP3   OH264287   2.541   6.256   2.520 -0.3045 -0.3147 -0.1639
14291TIP3    H164288   2.603   6.330   2.518 -1.3800  0.5752 -1.9053
14291TIP3    H264289   2.587   6.186   2.472  0.0741 -0.2561  0.1076
14292TIP3   OH264290   4.154   6.008   6.278 -0.3144  0.2418 -0.4664
14292TIP3    H164291   4.159   6.102   6.298 -0.0618  0.3897 -1.2049
14292TIP3    H264292   4.060   5.990   6.271 -0.3381  0.9658 -2.6607
14293TIP3   OH264293   5.992   2.024  12.218 -0.0052  0.2813  0.1208
14293TIP3    H164294   6.080   2.020  12.181 -0.2875  0.7994 -0.6245
14293TIP3    H264295   5.933   2.016  12.143 -0.6408 -2.2356  0.8328
14294TIP3   OH264296   2.107   3.129   4.358 -0.4929 -0.0757  0.6095
14294TIP3    H164297   2.108   3.037   4.384 -0.1350 -0.5350 -0.9724
14294TIP3    H264298   2.046   3.171   4.419 -0.9302 -1.4283  1.1112
14295TIP3   OH264299   6.356   5.615   1.087 -0.4296  0.0465  0.0505
14295TIP3    H164300   6.332   5.535   1.135  0.7660  0.1370  0.8362
14295TIP3    H264301   6.394   5.584   1.005 -0.5387 -0.1823  0.0869
14296TIP3   OH264302   1.879   5.455   5.894 -0.4075  0.1064 -0.0456
14296TIP3    H164303   1.943   5.514   5.854 -0.9169  0.4099 -0.4281
14296TIP3    H264304   1.931   5.393   5.944  0.0939  1.3875  1.0468
14297TIP3   OH264305   0.832   2.481  13.334 -0.2757 -0.1051  0.1083
14297TIP3    H164306   0.916   2.524  13.321 -0.3126 -0.1453 -0.2634
14297TIP3    H264307   0.772   2.551  13.359 -0.6866  0.3031 -1.9573
14298TIP3   OH264308   6.596   3.789  11.640  0.2648 -0.6394 -0.1045
14298TIP3    H164309   6.616   3.882  11.644 -0.5078 -0.4839  0.1229
14298TIP3    H264310   6.680   3.746  11.658  0.5130  0.0127  0.3021
14299TIP3   OH264311   1.818   1.244  16.355  1.1765 -1.0905  0.4916
14299TIP3    H164312   1.755   1.280  16.293  2.5930 -0.1320 -0.4250
14299TIP3    H264313   1.781   1.264  16.441 -1.2164 -3.1742 -0.0018
14300TIP3   OH264314   5.951   2.584   3.643 -0.5026  0.2843 -0.3878
14300TIP3    H164315   5.994   2.670   3.652  1.8005 -0.8289 -0.4163
14300TIP3    H264316   5.946   2.571   3.548 -1.9009  0.8681 -0.4094
14301TIP3   OH264317   5.218   0.261  10.856  0.0435  0.5636 -0.2197
14301TIP3    H164318   5.206   0.260  10.761  2.1567  0.5486 -0.5132
14301TIP3    H264319   5.245   0.351  10.876  0.9334  0.2207  0.1630
14302TIP3   OH264320   5.838   6.595  16.954  0.4727 -0.1752  0.5530
14302TIP3    H164321   5.812   6.598  16.862 -0.0188 -0.1308  0.6897
14302TIP3    H264322   5.892   6.673  16.966 -0.7329  0.6545  0.6757
14303TIP3   OH264323   4.438   5.188   2.858  0.3564  0.2246 -0.1080
14303TIP3    H164324   4.344   5.172   2.843  0.9624 -1.7110 -2.1761
14303TIP3    H264325   4.440   5.249   2.931 -2.5364  0.4566 -0.1359
14304TIP3   OH264326   0.063   6.159   2.515  0.4748 -0.2028 -0.1531
14304TIP3    H164327   0.001   6.230   2.533  0.4012  0.0616 -1.3763
14304TIP3    H264328   0.132   6.201   2.462  0.9548 -0.8181 -0.0182
14305TIP3   OH264329   2.445   3.080   2.887  0.3151 -0.4140  0.3773
14305TIP3    H164330   2.361   3.106   2.923 -0.3208 -0.3086 -1.1373
14305TIP3    H264331   2.431   2.991   2.854  1.2429 -1.0101  1.5382
14306TIP3   OH264332   4.147   3.048  15.244 -0.2672  0.5618  0.1303
14306TIP3    H164333   4.189   3.133  15.254 -0.6118  0.7051  0.3490
14306TIP3    H264334   4.219   2.988  15.225 -0.1483  1.0967 -1.1377
14307TIP3   OH264335   0.193   0.396   2.526  0.2013 -0.2354 -0.0096
14307TIP3    H164336   0.280   0.382   2.489  0.1801 -0.6291  0.0897
14307TIP3    H264337   0.174   0.315   2.575  0.4479  0.4716  1.2985
14308TIP3   OH264338   3.668   1.589   4.357  0.5718  0.3477  0.4593
14308TIP3    H164339   3.705   1.676   4.342 -0.5898  0.9200  0.8154
14308TIP3    H264340   3.623   1.596   4.441 -2.0501  0.2978 -0.8751
14309TIP3   OH264341   1.855   0.309   0.662 -0.2188  0.0711  0.2663
14309TIP3    H164342   1.780   0.260   0.628 -0.3362  0.9488 -0.7703
14309TIP3    H264343   1.874   0.374   0.595  1.2222  0.1293  0.7112
14310TIP3   OH264344   6.147   0.468  14.216 -0.4629  0.3611 -0.2527
14310TIP3    H164345   6.130   0.477  14.310  0.3975  1.5698 -0.1929
14310TIP3    H264346   6.230   0.422  14.211  0.2176  1.5652 -0.3723
14311TIP3   OH264347   2.723   3.510  16.479  0.4854  0.2145 -0.4219
14311TIP3    H164348   2.629   3.522  16.488  0.5516 -0.2968  1.2547
14311TIP3    H264349   2.737   3.491  16.386 -1.3171 -1.7234 -0.3355
14312TIP3   OH264350   0.869   6.103  10.814 -0.4780  0.0373 -0.2110
14312TIP3    H164351   0.931   6.093  10.886  0.3227  2.0939 -0.5829
14312TIP3    H264352   0.921   6.142  10.743 -1.9540  0.8341 -0.8763
14313TIP3   OH264353   4.923   1.905   5.311  0.6188 -0.2532 -0.0075
14313TIP3    H164354   5.012   1.898   5.275  0.6990 -1.1482  0.3665
14313TIP3    H264355   4.890   1.815   5.310  0.0285 -0.0402  0.6572
14314TIP3   OH264356   4.716   0.477   0.831 -0.0779 -0.5044 -0.3017
14314TIP3    H164357   4.730   0.494   0.924 -1.0369  0.6382 -0.3643
14314TIP3    H264358   4.742   0.385   0.820  0.5837 -0.4851  0.9666
14315TIP3   OH264359   4.617   3.083  11.043 -0.1107 -0.3085 -0.2949
14315TIP3    H164360   4.556   3.105  10.972 -0.1145  1.4269  0.2194
14315TIP3    H264361   4.571   3.109  11.123  1.4745  1.4940  0.0642
14316TIP3   OH264362   1.945   2.920  13.859  0.2177  0.2515  0.1781
14316TIP3    H164363   1.890   2.980  13.909 -0.0082  0.4702 -0.3293
14316TIP3    H264364   1.890   2.842  13.847 -0.4342  0.9339 -1.3673
14317TIP3   OH264365   2.946   0.137  11.965  0.0977 -0.3881  0.2328
14317TIP3    H164366   2.952   0.139  11.869  0.3180 -0.9189  0.2317
14317TIP3    H264367   2.875   0.197  11.986 -0.3775 -0.7530 -0.3082
14318TIP3   OH264368   3.497   0.323   4.223  0.2292 -0.0718  0.4025
14318TIP3    H164369   3.486   0.251   4.160  0.1671 -1.4201  1.9118
14318TIP3    H264370   3.416   0.373   4.216 -0.4265 -1.0912  0.4800
14319TIP3   OH264371   5.700   0.725  11.070  0.6230  0.0918  0.6489
14319TIP3    H164372   5.727   0.816  11.056  0.5627  0.3306  2.0151
14319TIP3    H264373   5.662   0.725  11.157 -0.1468 -1.0842  0.3133
14320TIP3   OH264374   4.611   2.672   2.114 -0.6229 -0.0098  0.6510
14320TIP3    H164375   4.527   2.717   2.123  0.1110  1.8228 -1.3538
14320TIP3    H264376   4.653   2.714   2.039  1.6462 -1.6120  0.9815
14321TIP3   OH264377   6.365   3.138   1.040 -0.5950 -0.5004  0.6616
14321TIP3    H164378   6.280   3.160   1.004  0.7524  0.9456 -1.7522
14321TIP3    H264379   6.378   3.200   1.112 -0.7684  0.5501 -0.2057
14322TIP3   OH264380   5.288   3.739   0.774  0.0318  0.4501 -0.1507
14322TIP3    H164381   5.209   3.687   0.789  0.2556  0.2334  0.2739
14322TIP3    H264382   5.264   3.828   0.801 -0.6031  0.7523 -1.6188
14323TIP3   OH264383   1.389   1.343   0.400  0.0671  0.1615  0.6358
14323TIP3    H164384   1.324   1.274   0.412 -0.9401  0.1431 -4.0556
14323TIP3    H264385   1.344   1.424   0.423 -1.5076  0.0951 -2.1162
14324TIP3   OH264386   5.312   4.678  11.459 -0.0883 -0.3969  0.6606
14324TIP3    H164387   5.225   4.642  11.479 -0.1573 -0.3629  0.4212
14324TIP3    H264388   5.326   4.657  11.367  0.8016 -1.7273  1.0885
14325TIP3   OH264389   1.767   4.787  11.279  0.0994 -0.2238 -0.1107
14325TIP3    H164390   1.855   4.751  11.281  0.6385  0.9484 -1.6042
14325TIP3    H264391   1.724   4.741  11.206  0.1536  0.7254 -0.7412
14326TIP3   OH264392   0.398   4.319  15.173  0.0969  0.2461  0.5993
14326TIP3    H164393   0.343   4.360  15.239  0.5096  1.8755 -0.0283
14326TIP3    H264394   0.345   4.319  15.093  0.1864 -0.2185  0.5373
14327TIP3   OH264395   5.572   3.241  11.472  0.3564  0.0668 -0.4592
14327TIP3    H164396   5.534   3.283  11.395 -0.3973  0.7373  0.2730
14327TIP3    H264397   5.665   3.233  11.451 -0.0814 -1.1239 -2.0487
14328TIP3   OH264398   0.148   4.594  17.165  0.1109  0.6814 -0.2306
14328TIP3    H164399   0.135   4.540  17.243  0.2337 -0.5465 -1.0409
14328TIP3    H264400   0.102   4.675  17.184 -1.3732 -0.2902  0.4091
14329TIP3   OH264401   1.920   0.860  15.363  0.5463  0.4607  0.0659
14329TIP3    H164402   1.863   0.784  15.353  0.7673 -0.0094  2.0533
14329TIP3    H264403   2.003   0.835  15.322  0.1827  0.1487 -0.4741
14330TIP3   OH264404   4.244   2.309   0.019 -0.5895  0.4229 -0.0638
14330TIP3    H164405   4.198   2.226   0.034 -1.7238  1.3721  1.9617
14330TIP3    H264406   4.319   2.306   0.079 -0.6183  0.8285 -0.0055
14331TIP3   OH264407   2.059   3.979  14.046 -0.0016 -0.9699 -0.0046
14331TIP3    H164408   2.006   3.915  14.093 -0.0904 -0.6777  0.3002
14331TIP3    H264409   2.056   3.951  13.955  0.5200 -1.7898  0.2244
14332TIP3   OH264410   2.970   6.199  14.887  0.6467 -0.8509  0.1669
14332TIP3    H164411   3.051   6.174  14.930  0.6548  0.6973  1.1045
14332TIP3    H264412   2.903   6.189  14.954  0.5096  0.6264  0.2753
14333TIP3   OH264413   1.122   0.706  16.298 -0.1039  0.1247 -0.0863
14333TIP3    H164414   1.194   0.665  16.345 -0.5689  2.0832  2.4861
14333TIP3    H264415   1.160   0.783  16.257 -0.5468  0.7562  0.6643
14334TIP3   OH264416   5.772   1.009   5.879  0.2082 -0.1965 -0.3091
14334TIP3    H164417   5.773   0.944   5.808 -0.8546  0.4741 -0.9428
14334TIP3    H264418   5.778   1.093   5.834 -1.2151  0.2675  0.3351
14335TIP3   OH264419   3.403   3.667  15.672 -0.3569 -0.0995 -0.8916
14335TIP3    H164420   3.349   3.708  15.604 -0.9473 -0.3307 -0.5705
14335TIP3    H264421   3.376   3.710  15.753 -0.3336 -0.4862 -0.6762
14336TIP3   OH264422   5.802   2.266  14.736 -0.0601  0.3534  0.1754
14336TIP3    H164423   5.805   2.268  14.832  1.8180  2.3452  0.1228
14336TIP3    H264424   5.736   2.331  14.713  0.3962  0.7901  0.0978
14337TIP3   OH264425   5.329   5.225   2.796 -0.1293 -0.1561 -0.2600
14337TIP3    H164426   5.259   5.181   2.844 -1.6438  0.3311 -1.9451
14337TIP3    H264427   5.402   5.230   2.858 -1.6949 -0.3993  1.6517
14338TIP3   OH264428   1.648   0.839   2.941 -0.0564  0.9268 -0.2657
14338TIP3    H164429   1.640   0.816   2.849  1.9689  0.1690 -0.2560
14338TIP3    H264430   1.651   0.935   2.941 -0.8252  0.9575 -0.9120
14339TIP3   OH264431   4.505   5.966  16.396 -0.1291 -0.6156 -0.3785
14339TIP3    H164432   4.586   5.970  16.447  0.2034  0.3291 -0.9530
14339TIP3    H264433   4.475   5.875  16.403 -0.7099 -0.2298  2.4237
14340TIP3   OH264434   5.908   3.707   3.611  0.1282  0.2170  0.3876
14340TIP3    H164435   5.832   3.664   3.650  0.4113  0.3572  1.0912
14340TIP3    H264436   5.976   3.640   3.613 -0.3562 -0.3696 -1.5047
14341TIP3   OH264437   6.602   2.061  16.438  0.1297  0.4206  0.0239
14341TIP3    H164438   6.657   2.081  16.514  1.5318  0.5380 -1.0086
14341TIP3    H264439   6.574   1.970  16.452  1.5410 -0.0336 -0.0033
14342TIP3   OH264440   4.076   6.652  13.039 -0.2292 -0.4057  0.3433
14342TIP3    H164441   4.021   6.574  13.046 -0.6195 -0.5052 -2.9185
14342TIP3    H264442   4.015   6.722  13.015  0.5739  0.2182  0.1164
14343TIP3   OH264443   1.429   0.732  10.731  0.3646  0.2727 -0.2823
14343TIP3    H164444   1.341   0.770  10.732 -0.2664 -1.1716  0.6438
14343TIP3    H264445   1.462   0.750  10.643 -0.6558  1.2671 -0.4797
14344TIP3   OH264446   6.290   3.650   4.219  0.2004 -0.2223  0.4655
14344TIP3    H164447   6.380   3.673   4.240  0.5933 -1.1810 -0.1370
14344TIP3    H264448   6.292   3.556   4.202 -0.1486  0.3962 -3.5400
14345TIP3   OH264449   1.228   4.407   3.242 -0.5616  0.0452  0.2496
14345TIP3    H164450   1.193   4.476   3.185 -1.4626 -1.3088 -0.9026
14345TIP3    H264451   1.153   4.350   3.258 -0.0098 -0.2509  1.8095
14346TIP3   OH264452   3.120   2.142  12.492  0.4059  0.1245 -0.2614
14346TIP3    H164453   3.161   2.075  12.436  1.0875  0.2866  0.0420
14346TIP3    H264454   3.037   2.162  12.448 -0.8661 -2.5213  0.7941
14347TIP3   OH264455   0.658   5.239  14.186 -0.3232  0.9000  0.0353
14347TIP3    H164456   0.744   5.282  14.189  1.5862 -2.6736 -0.2308
14347TIP3    H264457   0.661   5.176  14.258 -2.4207  0.1834 -0.4877
14348TIP3   OH264458   1.279   3.857   5.584 -0.4818 -0.6567 -0.2009
14348TIP3    H164459   1.238   3.771   5.575 -2.2251  0.3191 -1.8364
14348TIP3    H264460   1.297   3.885   5.495  0.8547  0.3507  0.3603
14349TIP3   OH264461   5.881   4.862  13.369 -0.4576 -0.0114  0.8370
14349TIP3    H164462   5.870   4.881  13.463 -0.1065 -1.2316  1.1275
14349TIP3    H264463   5.908   4.770  13.366 -1.3302 -0.2429 -0.5115
14350TIP3   OH264464   0.620   5.489  15.635 -0.2531  0.5431 -0.0472
14350TIP3    H164465   0.670   5.486  15.717 -1.0511 -0.2522  0.4193
14350TIP3    H264466   0.672   5.436  15.574  2.0772  3.8329 -1.0676
14351TIP3   OH264467   5.826   1.664   0.950 -0.1616  0.2339 -0.3461
14351TIP3    H164468   5.919   1.644   0.946 -0.4603 -1.1545 -0.5467
14351TIP3    H264469   5.786   1.584   0.985 -1.5533 -0.0534 -2.5199
14352TIP3   OH264470   4.364   4.042  14.779  0.0449 -0.0668 -0.5951
14352TIP3    H164471   4.306   3.973  14.748 -1.5082  1.4569 -1.1770
14352TIP3    H264472   4.448   4.023  14.737 -0.5982 -1.1105 -1.4502
14353TIP3   OH264473   1.891   6.003   3.734  0.3164  0.2419  0.2553
14353TIP3    H164474   1.952   6.027   3.664 -0.7322 -0.7710 -1.0578
14353TIP3    H264475   1.805   5.999   3.690 -0.0435 -2.5285  1.1155
14354TIP3   OH264476   2.445   3.254  12.291  0.0580 -0.3842 -0.2402
14354TIP3    H164477   2.478   3.320  12.351 -0.7369 -0.1725 -0.0233
14354TIP3    H264478   2.354   3.280  12.274  0.3820 -0.2163 -1.8342
14355TIP3   OH264479   6.429   2.013   4.545 -0.2375 -0.2410 -0.6872
14355TIP3    H164480   6.334   2.007   4.533 -0.3763  1.3093 -0.5351
14355TIP3    H264481   6.455   1.927   4.577 -2.0269  0.1654  2.0331
14356TIP3   OH264482   0.655   4.579  11.846  0.3441 -0.8575 -0.2333
14356TIP3    H164483   0.614   4.628  11.774 -0.2077  0.3270  0.8616
14356TIP3    H264484   0.749   4.589  11.831  0.2544  1.0166  0.2414
14357TIP3   OH264485   2.972   2.950  15.839 -0.4943 -0.1179 -0.7203
14357TIP3    H164486   2.905   2.883  15.841 -0.3292 -0.4093 -3.1165
14357TIP3    H264487   2.943   3.011  15.771  0.8478  0.6258 -0.6503
14358TIP3   OH264488   3.976   1.369  11.566 -0.1308 -0.3678 -0.2003
14358TIP3    H164489   4.060   1.414  11.568 -0.1373 -0.3358 -0.5777
14358TIP3    H264490   3.932   1.396  11.647 -0.0111  0.0656 -0.2772
14359TIP3   OH264491   6.205   4.345   0.753  0.1821 -0.2592  0.3086
14359TIP3    H164492   6.190   4.334   0.659  1.0096 -0.9022  0.2442
14359TIP3    H264493   6.160   4.427   0.775 -0.3997 -0.3396 -0.5545
14360TIP3   OH264494   3.604   3.035   5.819  0.1858  0.2841  1.0466
14360TIP3    H164495   3.563   2.951   5.798 -2.5519  1.6335  0.7990
14360TIP3    H264496   3.541   3.100   5.789  2.3590  2.4463  1.0676
14361TIP3   OH264497   1.917   4.884   2.595 -0.1080  0.0278 -0.0297
14361TIP3    H164498   1.873   4.884   2.509 -2.4347  1.3123  1.1111
14361TIP3    H264499   2.009   4.898   2.574 -0.6630  0.5641 -2.3268
14362TIP3   OH264500   6.776   6.114  10.964  0.8396 -0.6994 -0.0455
14362TIP3    H164501   6.845   6.080  10.906  1.2733 -0.7325  0.4774
14362TIP3    H264502   6.807   6.092  11.052  0.4365 -0.2013  0.2224
14363TIP3   OH264503   2.778   4.587  12.458 -0.5380 -0.3461  0.0235
14363TIP3    H164504   2.734   4.504  12.438  0.9919 -1.3416  0.6700
14363TIP3    H264505   2.842   4.564  12.525  0.7729  1.1243 -0.6998
14364TIP3   OH264506   4.725   4.064  15.420  0.4799  0.0648 -0.7142
14364TIP3    H164507   4.801   4.122  15.427  0.8708 -0.3018 -1.6991
14364TIP3    H264508   4.687   4.086  15.335  1.0989 -1.6648 -1.4493
14365TIP3   OH264509   5.503   1.574   2.585 -0.0028  0.3392 -0.4524
14365TIP3    H164510   5.448   1.546   2.658 -1.1715  0.5883 -1.2170
14365TIP3    H264511   5.527   1.493   2.540 -0.3229  0.2795 -0.5187
14366TIP3   OH264512   3.175   1.086   4.076  0.2512  0.2830  0.4430
14366TIP3    H164513   3.159   1.006   4.026 -0.4825 -0.4169  1.7721
14366TIP3    H264514   3.239   1.135   4.024  1.6386 -1.7397  0.2287
14367TIP3   OH264515   1.675   5.449   2.871 -0.2123 -0.2988  0.5343
14367TIP3    H164516   1.735   5.387   2.912  2.0455  2.7174  2.0686
14367TIP3    H264517   1.699   5.448   2.778  0.5407 -0.9362  0.7265
14368TIP3   OH264518   3.454   6.303   3.770 -0.2124 -0.2978 -0.6327
14368TIP3    H164519   3.369   6.347   3.770 -0.1292 -0.1328  0.2392
14368TIP3    H264520   3.514   6.367   3.807 -0.1208 -1.1759  0.7720
14369TIP3   OH264521   5.189   1.788   1.908  0.3011  0.0734  0.0374
14369TIP3    H164522   5.215   1.880   1.910 -0.6955  0.3719 -0.2042
14369TIP3    H264523   5.159   1.774   1.818  3.2415 -1.2974 -0.7728
14370TIP3   OH264524   4.126   3.594   4.832  0.2260  0.1124  0.2777
14370TIP3    H164525   4.216   3.576   4.805  0.1157 -0.1054  0.0537
14370TIP3    H264526   4.099   3.517   4.882 -0.2463 -0.3585 -0.6873
14371TIP3   OH264527   0.696   5.583  14.351  0.4114  0.7776  0.1727
14371TIP3    H164528   0.761   5.653  14.350  1.2110  0.0480 -1.4536
14371TIP3    H264529   0.728   5.520  14.286  0.8234 -2.1348  3.0200
14372TIP3   OH264530   4.838   0.572  12.999  0.0292 -0.1740 -0.3276
14372TIP3    H164531   4.895   0.504  12.962 -0.9211 -0.9582 -0.3618
14372TIP3    H264532   4.897   0.626  13.052  0.7318 -1.2724  0.0337
14373TIP3   OH264533   4.837   1.175   3.374  0.5798  0.4565  0.3685
14373TIP3    H164534   4.903   1.227   3.327  0.7473 -1.1090 -1.2053
14373TIP3    H264535   4.886   1.129   3.442  0.8868  0.4263  0.1305
14374TIP3   OH264536   6.101   6.522   2.092 -0.1714 -0.0914  0.1842
14374TIP3    H164537   6.154   6.507   2.171  0.5734 -0.0512 -0.2996
14374TIP3    H264538   6.086   6.435   2.056  2.0168  0.0614 -1.2432
14375TIP3   OH264539   1.888   4.065   0.929 -0.5306  0.2120 -1.1875
14375TIP3    H164540   1.834   3.996   0.968  1.8032 -1.2786 -0.4617
14375TIP3    H264541   1.873   4.056   0.835  0.9722 -2.4642 -1.2476
14376TIP3   OH264542   1.318   5.322  11.245  0.0230 -0.4316  0.7969
14376TIP3    H164543   1.263   5.252  11.210  1.7466 -0.4398 -2.0318
14376TIP3    H264544   1.272   5.403  11.221  0.0574 -0.4948  0.5157
14377TIP3   OH264545   6.636   6.025   3.758  0.2830  0.6898  0.3368
14377TIP3    H164546   6.587   6.046   3.679 -0.5668 -0.9894  0.4003
14377TIP3    H264547   6.717   6.076   3.750  0.2180  0.5194 -1.6082
14378TIP3   OH264548   5.638   5.325  13.870 -0.2410  0.2987  0.1904
14378TIP3    H164549   5.585   5.249  13.895  0.6958 -0.6770 -0.7404
14378TIP3    H264550   5.700   5.291  13.806 -0.3803  2.0489 -0.9119
14379TIP3   OH264551   3.659   6.076  16.124  0.4020 -0.4302  0.5687
14379TIP3    H164552   3.641   6.127  16.044  2.6758 -1.4585 -0.6480
14379TIP3    H264553   3.703   6.138  16.182  2.4838 -0.7126 -0.6248
14380TIP3   OH264554   0.374   4.860   4.368 -0.1301 -0.4734  0.3137
14380TIP3    H164555   0.387   4.945   4.328  0.5795 -0.8947 -0.3775
14380TIP3    H264556   0.327   4.809   4.302 -5.1605  0.8958  2.6150
14381TIP3   OH264557   1.583   0.411  17.113 -0.4026 -0.3193 -0.2862
14381TIP3    H164558   1.627   0.352  17.052  0.8202  0.2827  0.0063
14381TIP3    H264559   1.649   0.477  17.136 -1.5879  0.8737 -0.2081
14382TIP3   OH264560   2.183   4.648   4.506  0.3447 -0.8492 -0.2097
14382TIP3    H164561   2.272   4.616   4.490  0.1221 -1.7310  0.2967
14382TIP3    H264562   2.185   4.681   4.595  0.0618 -1.2393 -0.0582
14383TIP3   OH264563   6.494   1.064   5.380  0.2201  0.5441  0.3814
14383TIP3    H164564   6.418   1.113   5.349 -0.3640 -0.0536  0.8477
14383TIP3    H264565   6.457   0.997   5.437  0.9774 -0.6705 -0.5360
14384TIP3   OH264566   1.413   2.825  11.057 -0.0633  0.3265  0.1695
14384TIP3    H164567   1.401   2.869  10.973  0.2572 -0.2249 -0.1683
14384TIP3    H264568   1.388   2.891  11.122 -1.5119  0.3624 -0.3876
14385TIP3   OH264569   3.251   6.059   4.290  0.2247  0.3063  0.6568
14385TIP3    H164570   3.256   6.131   4.228 -0.6374  0.3384  0.6187
14385TIP3    H264571   3.275   5.981   4.239 -2.1224  0.0891 -0.1545
14386TIP3   OH264572   3.525   2.691   1.650 -0.3799 -0.2914  0.0265
14386TIP3    H164573   3.545   2.671   1.559 -0.3280  1.0736 -0.2706
14386TIP3    H264574   3.489   2.780   1.648  1.4783  0.5290  1.5613
14387TIP3   OH264575   0.128   4.471   0.178  0.4303 -0.3106  0.2078
14387TIP3    H164576   0.153   4.380   0.158  0.4095 -0.3147  0.1994
14387TIP3    H264577   0.085   4.465   0.264  0.5706 -0.2863  0.2793
14388TIP3   OH264578   3.899   4.498   2.285 -0.2778 -0.0995 -0.0576
14388TIP3    H164579   3.968   4.457   2.233 -0.3459 -0.5068  0.1697
14388TIP3    H264580   3.830   4.518   2.222 -0.2152 -0.2727 -0.1819
14389TIP3   OH264581   5.008   5.863  10.444 -0.5462  0.5044  0.3096
14389TIP3    H164582   5.013   5.958  10.455  2.1438  0.2904  1.1974
14389TIP3    H264583   4.922   5.849  10.404 -1.0800  3.2823  0.3378
14390TIP3   OH264584   2.979   5.760   6.460  0.1932  0.2939  0.1578
14390TIP3    H164585   3.020   5.674   6.456 -1.0223 -0.3648  1.5586
14390TIP3    H264586   2.916   5.753   6.531  0.0455  2.3321  0.2402
14391TIP3   OH264587   5.211   0.530  14.017  1.0192  0.0270  0.5226
14391TIP3    H164588   5.240   0.448  14.057 -1.0060 -1.0824 -0.1857
14391TIP3    H264589   5.203   0.510  13.924  2.6590  1.6948 -0.0158
14392TIP3   OH264590   0.324   0.444  10.941  0.3689 -0.6383  0.2223
14392TIP3    H164591   0.323   0.402  10.855  0.5077 -0.3032  0.0555
14392TIP3    H264592   0.241   0.419  10.981  1.2104 -2.5273  0.8349
14393TIP3   OH264593   0.605   5.850   6.503  0.3958  0.3574  0.2881
14393TIP3    H164594   0.679   5.836   6.444  1.0680 -0.6481  1.3532
14393TIP3    H264595   0.582   5.762   6.533 -0.0420  0.8389  1.3968
14394TIP3   OH264596   2.510   6.575   3.009 -0.3463 -0.1008 -0.6602
14394TIP3    H164597   2.500   6.668   3.025 -1.2214  0.0596 -2.0174
14394TIP3    H264598   2.596   6.567   2.967  0.2024 -0.0501  0.4390
14395TIP3   OH264599   3.323   3.629  13.730 -0.2618  0.1341  0.0338
14395TIP3    H164600   3.388   3.694  13.704  0.1388  0.5461  1.9304
14395TIP3    H264601   3.266   3.619  13.654  0.0705  2.2060 -0.5196
14396TIP3   OH264602   0.065   5.369   4.996 -0.6236 -0.8765 -0.5141
14396TIP3    H164603   0.098   5.338   4.912 -1.3524 -2.0160 -0.4050
14396TIP3    H264604   0.117   5.322   5.061  0.3456  0.4563 -0.3245
14397TIP3   OH264605   5.122   4.253   3.849 -0.1382 -0.2461 -0.5714
14397TIP3    H164606   5.085   4.270   3.935 -0.3494 -0.0594 -0.6992
14397TIP3    H264607   5.062   4.297   3.788 -0.2027 -0.6982 -0.8372
14398TIP3   OH264608   5.151   5.204  15.264  0.6768 -0.0590 -0.9808
14398TIP3    H164609   5.067   5.241  15.237  0.0449 -1.2467 -0.6859
14398TIP3    H264610   5.211   5.227  15.194  0.5797  2.5096 -0.2563
14399TIP3   OH264611   2.123   2.504  12.781  0.4526  0.2399 -0.6581
14399TIP3    H164612   2.096   2.588  12.747  1.7801  0.5318 -1.0287
14399TIP3    H264613   2.089   2.440  12.719  2.0193  0.7041 -2.0266
14400TIP3   OH264614   0.937   2.633   3.857  0.1167 -0.1122 -0.0972
14400TIP3    H164615   0.892   2.718   3.855  1.0644  0.4487  1.6248
14400TIP3    H264616   1.029   2.655   3.874  0.4459 -1.4596 -0.1056
14401TIP3   OH264617   1.234   1.441  16.254 -0.5516 -0.4952  0.1341
14401TIP3    H164618   1.301   1.504  16.229 -2.5255  1.3119 -0.7095
14401TIP3    H264619   1.267   1.357  16.220  0.1539  0.7426 -2.3478
14402TIP3   OH264620   5.650   0.301  15.066 -0.1143 -0.0282  1.0201
14402TIP3    H164621   5.707   0.331  14.995 -0.0317  0.9660  1.4915
14402TIP3    H264622   5.594   0.377  15.084 -1.8022 -1.0925  0.3464
14403TIP3   OH264623   3.578   4.828  12.987 -0.0899  0.4594  0.1065
14403TIP3    H164624   3.543   4.846  13.075  0.0821 -1.3747  0.5740
14403TIP3    H264625   3.644   4.760  13.002 -0.2046 -0.0042 -1.4853
14404TIP3   OH264626   4.339   0.221   1.940  0.1667  0.6026  0.1681
14404TIP3    H164627   4.259   0.236   1.889  1.0007  0.5605 -1.1953
14404TIP3    H264628   4.379   0.144   1.900  1.0517  0.8165  0.6147
14405TIP3   OH264629   3.218   2.688   4.396  0.4940 -0.4145  0.1041
14405TIP3    H164630   3.167   2.707   4.476  0.5122 -1.5655  0.4049
14405TIP3    H264631   3.258   2.771   4.373 -2.4073  0.7952 -0.7630
14406TIP3   OH264632   4.441   4.260   1.503 -0.1230 -0.1266  0.2803
14406TIP3    H164633   4.480   4.195   1.445  1.8363 -0.6297  2.0839
14406TIP3    H264634   4.485   4.342   1.480  0.1707 -0.1985  0.5707
14407TIP3   OH264635   5.721   3.907  14.472  0.4062 -0.4025 -0.0332
14407TIP3    H164636   5.807   3.948  14.479  0.2195 -0.1818  1.0914
14407TIP3    H264637   5.670   3.945  14.544 -0.7720 -0.2014 -0.9517
14408TIP3   OH264638   4.432   3.065  11.640 -0.5588 -0.6178 -0.2688
14408TIP3    H164639   4.440   2.974  11.611  0.0548  0.2581 -3.0301
14408TIP3    H264640   4.349   3.095  11.604 -0.2980  0.1896 -0.2084
14409TIP3   OH264641   3.681   5.524  11.897  0.2092 -0.2035  0.1427
14409TIP3    H164642   3.743   5.541  11.968 -0.6555 -0.9520  1.1043
14409TIP3    H264643   3.719   5.565  11.820  1.5051  0.0202  0.9022
14410TIP3   OH264644   1.000   2.079   4.543  0.9102 -0.2305 -0.2446
14410TIP3    H164645   1.062   2.124   4.600 -0.1152  0.3640  0.4331
14410TIP3    H264646   0.924   2.063   4.599 -0.0031  0.1050 -1.3751
14411TIP3   OH264647   5.623   2.579  11.892  0.2756 -0.9905 -0.1333
14411TIP3    H164648   5.594   2.489  11.908 -0.6807 -0.5895  0.4546
14411TIP3    H264649   5.695   2.592  11.954  0.5507 -1.4053 -0.3583
14412TIP3   OH264650   4.450   6.685   0.877 -0.5227  0.4981  0.4865
14412TIP3    H164651   4.383   6.624   0.848 -0.2603 -0.1399  1.2054
14412TIP3    H264652   4.402   6.755   0.920 -0.9742  1.8126 -2.0419
14413TIP3   OH264653   2.553   6.383   3.768  0.3224  0.0690  0.1307
14413TIP3    H164654   2.510   6.423   3.844  0.0572  0.5392 -0.2667
14413TIP3    H264655   2.483   6.372   3.704  0.3040 -1.4599  0.4099
14414TIP3   OH264656   2.017   4.661  11.315  0.6515 -0.0661  0.5968
14414TIP3    H164657   2.035   4.578  11.358 -0.3102 -1.0098 -0.7776
14414TIP3    H264658   2.091   4.674  11.255 -0.7021 -1.5016 -1.4554
14415TIP3   OH264659   6.111   6.401   0.839 -0.0032  0.3845  0.5370
14415TIP3    H164660   6.026   6.408   0.795  0.2280  0.2732  0.0746
14415TIP3    H264661   6.126   6.307   0.847  1.2226  0.3575 -1.6166
14416TIP3   OH264662   6.100   1.646  13.636 -0.8728  0.2433 -0.3099
14416TIP3    H164663   6.073   1.683  13.720 -1.7612  1.9812 -1.3210
14416TIP3    H264664   6.045   1.568  13.625 -1.2097  0.3737  0.4107
14417TIP3   OH264665   3.326   6.296  12.326  0.8215 -0.4638  0.3343
14417TIP3    H164666   3.422   6.299  12.331  0.7441  1.3695  1.4213
14417TIP3    H264667   3.299   6.387  12.343 -1.1047 -0.9419 -0.0734
14418TIP3   OH264668   2.845   6.446  16.324 -0.0609  0.4145 -0.0757
14418TIP3    H164669   2.777   6.386  16.292 -1.3553  1.8210 -0.0284
14418TIP3    H264670   2.884   6.481  16.244  0.6643 -0.4395 -0.1015
14419TIP3   OH264671   4.607   3.705  15.275  0.4629  0.0803 -0.1053
14419TIP3    H164672   4.567   3.779  15.320  1.0008  1.0645 -1.2180
14419TIP3    H264673   4.538   3.639  15.270 -0.6910  1.3204 -1.0084
14420TIP3   OH264674   0.682   0.514  13.820 -0.0753 -0.5793 -0.0179
14420TIP3    H164675   0.712   0.522  13.730  2.4657 -1.5488  0.7106
14420TIP3    H264676   0.587   0.502  13.813 -0.1166  0.9258 -2.4563
14421TIP3   OH264677   5.509   0.910  11.517  0.0305 -0.0108 -0.2294
14421TIP3    H164678   5.552   0.990  11.486  1.0484  0.3836  2.1028
14421TIP3    H264679   5.420   0.915  11.483  0.2742  1.8046 -0.6346
14422TIP3   OH264680   1.301   0.527   4.487  0.4959 -0.5643  0.0886
14422TIP3    H164681   1.348   0.527   4.404 -0.5036 -1.8179 -0.4937
14422TIP3    H264682   1.313   0.438   4.521 -1.6947 -1.0023 -0.2262
14423TIP3   OH264683   2.302   2.910   1.685 -0.4419 -0.4121  0.4618
14423TIP3    H164684   2.388   2.886   1.720 -0.5056 -1.0691  0.1699
14423TIP3    H264685   2.255   2.827   1.676 -1.2081 -0.0335  0.8720
14424TIP3   OH264686   2.183   6.108  13.421 -0.5879 -0.2570  0.2171
14424TIP3    H164687   2.208   6.074  13.336  1.7156 -0.2242  0.8595
14424TIP3    H264688   2.178   6.203  13.410  0.3922 -0.1975  0.2905
14425TIP3   OH264689   5.089   0.208   1.682 -0.1834  0.1136 -0.3518
14425TIP3    H164690   5.115   0.229   1.592 -1.2889 -0.0603 -0.7199
14425TIP3    H264691   5.099   0.291   1.730  2.3124 -0.2557 -0.1579
14426TIP3   OH264692   0.721   5.848   2.427 -0.0046  0.3781  0.1011
14426TIP3    H164693   0.751   5.910   2.360 -0.7427 -0.4461 -1.0112
14426TIP3    H264694   0.628   5.836   2.408  0.1220 -1.0606  0.3155
14427TIP3   OH264695   6.589   0.770   1.803 -0.8055 -0.5620 -0.3687
14427TIP3    H164696   6.678   0.793   1.827 -1.3062  0.7116  0.3191
14427TIP3    H264697   6.595   0.679   1.773  0.7812 -0.3544 -0.7374
14428TIP3   OH264698   2.567   1.841   6.232  0.5334  0.1509 -0.0766
14428TIP3    H164699   2.571   1.887   6.149  1.6836 -0.4308 -0.3588
14428TIP3    H264700   2.644   1.783   6.231 -0.4784 -1.2267  0.5708
14429TIP3   OH264701   5.360   2.173   4.434  0.1196 -0.1807  0.0830
14429TIP3    H164702   5.330   2.262   4.452 -1.0814 -0.4896 -0.3669
14429TIP3    H264703   5.431   2.185   4.370 -0.7509  0.3817 -0.7968
14430TIP3   OH264704   5.880   4.447  16.344  0.4199 -0.0698 -0.6590
14430TIP3    H164705   5.933   4.490  16.276  0.7757  0.2586 -0.1788
14430TIP3    H264706   5.919   4.475  16.426 -0.6030  0.2978 -0.2942
14431TIP3   OH264707   3.533   1.275  17.055 -0.0724 -0.0243  0.4550
14431TIP3    H164708   3.579   1.358  17.070  1.2577 -0.4656 -1.0325
14431TIP3    H264709   3.511   1.244  17.143 -0.5427  1.8726  1.0351
14432TIP3   OH264710   6.092   3.520   3.735  0.3317  0.1577  0.1270
14432TIP3    H164711   6.184   3.494   3.732 -0.0693 -1.3321  0.0579
14432TIP3    H264712   6.072   3.524   3.829  0.8095  1.7892  0.1681
14433TIP3   OH264713   3.158   0.439   0.756 -0.4391 -0.1528 -0.1152
14433TIP3    H164714   3.116   0.478   0.833 -2.7022 -1.6340 -0.5568
14433TIP3    H264715   3.248   0.422   0.784 -1.0003  0.1322  1.9329
14434TIP3   OH264716   2.852   5.434  13.844  0.1871  0.2312  0.8834
14434TIP3    H164717   2.867   5.400  13.757 -0.1900 -1.7280  1.5647
14434TIP3    H264718   2.916   5.389  13.900  0.4537  1.4803  1.6318
14435TIP3   OH264719   2.765   0.926  12.477  0.4493 -0.2562 -0.3188
14435TIP3    H164720   2.761   0.993  12.409 -0.9995  1.5840  1.5081
14435TIP3    H264721   2.674   0.900  12.492  0.8604 -1.5248  0.0499
14436TIP3   OH264722   5.573   1.232   1.299 -0.5160  0.5380  0.0571
14436TIP3    H164723   5.613   1.183   1.371 -1.3412  1.2114  0.9877
14436TIP3    H264724   5.617   1.199   1.221 -0.5972 -1.2425  0.7194
14437TIP3   OH264725   4.362   4.145   3.782 -0.0891 -0.1878 -0.3837
14437TIP3    H164726   4.421   4.164   3.709 -0.9914 -0.8455 -1.2911
14437TIP3    H264727   4.378   4.053   3.802  2.3228  0.7244  2.2351
14438TIP3   OH264728   2.158   2.544   4.512 -0.5493  0.2304 -0.2579
14438TIP3    H164729   2.232   2.588   4.470 -0.8393  0.9429 -0.0439
14438TIP3    H264730   2.168   2.565   4.605 -1.0198  0.3285 -0.2297
14439TIP3   OH264731   3.552   0.786  14.721  0.0117  0.1183  0.1038
14439TIP3    H164732   3.593   0.760  14.638  0.8028  0.3949  0.4109
14439TIP3    H264733   3.498   0.862  14.698  0.0633  0.0677 -0.1947
14440TIP3   OH264734   2.759   1.956   0.135  0.1271  0.3299 -0.9576
14440TIP3    H164735   2.730   1.865   0.128 -2.0410  0.7421  1.7005
14440TIP3    H264736   2.789   1.979   0.047 -2.2675 -1.9923 -2.4556
14441TIP3   OH264737   4.749   6.119  16.977 -0.3649  0.0302 -0.8828
14441TIP3    H164738   4.829   6.095  17.024 -1.2591  0.1304  0.7416
14441TIP3    H264739   4.776   6.187  16.915  0.6945  0.4955  0.0729
14442TIP3   OH264740   3.442   4.140   3.175 -1.1321 -0.5253  0.2158
14442TIP3    H164741   3.393   4.092   3.242 -1.7807 -0.3822 -0.1593
14442TIP3    H264742   3.517   4.083   3.156 -1.0797 -0.6832  0.8838
14443TIP3   OH264743   5.026   3.245   2.342 -0.9176  0.2776  0.8228
14443TIP3    H164744   4.964   3.277   2.407 -2.0516 -0.9704  0.3974
14443TIP3    H264745   5.004   3.292   2.262 -0.1602  1.1059  1.0964
14444TIP3   OH264746   5.910   3.638  17.041  0.3151  0.0170 -0.0109
14444TIP3    H164747   5.984   3.638  17.101  0.0773 -2.2990  0.3250
14444TIP3    H264748   5.910   3.550  17.002 -1.7029  0.2725 -0.6795
14445TIP3   OH264749   1.886   6.039   5.896  0.0407  0.2286  0.1869
14445TIP3    H164750   1.823   6.002   5.834  1.0797 -0.0818 -0.6863
14445TIP3    H264751   1.856   6.009   5.981  1.7674 -4.0480 -0.6057
14446TIP3   OH264752   4.496   3.993   1.409  0.3274  0.0370  0.1565
14446TIP3    H164753   4.588   3.981   1.387  0.2075 -0.5929 -0.0090
14446TIP3    H264754   4.452   4.004   1.324  0.1147 -0.6514  0.1709
14447TIP3   OH264755   5.061   3.789   3.814 -0.3767  0.0137 -0.3381
14447TIP3    H164756   5.074   3.711   3.867 -1.3754 -0.1794 -0.3827
14447TIP3    H264757   5.023   3.757   3.732 -0.5069  0.5099 -0.4753
14448TIP3   OH264758   5.673   4.191  13.428  0.2661  0.2101 -0.0999
14448TIP3    H164759   5.647   4.223  13.342 -0.4374  1.0016  0.3924
14448TIP3    H264760   5.689   4.098  13.416  1.2765  0.5287 -1.3248
14449TIP3   OH264761   4.188   4.699   6.586  0.2706  0.5760  0.3038
14449TIP3    H164762   4.247   4.757   6.635  2.4871 -1.9231  0.7030
14449TIP3    H264763   4.134   4.657   6.654  0.3752  0.3325  0.2366
14450TIP3   OH264764   3.855   6.430   2.917 -0.5383 -0.0186 -0.7049
14450TIP3    H164765   3.798   6.452   2.991  0.9704  0.0197  0.4781
14450TIP3    H264766   3.817   6.350   2.881 -1.5407  0.2007 -0.1660
14451TIP3   OH264767   4.793   1.198   1.885 -1.0102  0.2847  0.0623
14451TIP3    H164768   4.814   1.169   1.796 -0.7669 -1.0594  0.5324
14451TIP3    H264769   4.719   1.142   1.911 -0.3460 -0.1202  1.1065
14452TIP3   OH264770   6.426   3.012   4.944  0.9279  0.1179  0.2516
14452TIP3    H164771   6.479   3.039   5.018  0.0608 -0.8735  1.2511
14452TIP3    H264772   6.420   2.917   4.951  2.1570 -0.1764 -2.0076
14453TIP3   OH264773   2.913   0.129   5.330 -0.6442 -0.1872  0.3317
14453TIP3    H164774   2.897   0.091   5.244 -0.0662 -0.5617  0.3898
14453TIP3    H264775   2.926   0.054   5.387 -0.3351  0.0785  0.6120
14454TIP3   OH264776   6.279   4.469  15.264 -0.6892 -0.7573 -0.2997
14454TIP3    H164777   6.356   4.526  15.268 -1.5334  0.5660 -2.5296
14454TIP3    H264778   6.289   4.412  15.341  2.5113 -0.6318 -0.5346
14455TIP3   OH264779   6.251   1.554   2.789  0.1245  0.4738 -0.1342
14455TIP3    H164780   6.334   1.506   2.786 -0.1963 -0.1059 -0.0267
14455TIP3    H264781   6.227   1.552   2.882 -0.7661 -0.6981 -0.3823
14456TIP3   OH264782   4.569   1.862   0.005  0.0883  0.0700  0.1348
14456TIP3    H164783   4.475   1.847  -0.001 -0.2084  1.8343  0.2053
14456TIP3    H264784   4.606   1.774   0.015 -1.4407 -0.7377 -1.0843
14457TIP3   OH264785   0.868   0.177   5.311  0.0846 -0.1390  0.3834
14457TIP3    H164786   0.956   0.164   5.345  0.3786  1.1063  0.1282
14457TIP3    H264787   0.818   0.209   5.386  0.2440  0.6817  0.1442
14458TIP3   OH264788   1.231   5.658   3.908 -0.2875 -0.2968 -0.1987
14458TIP3    H164789   1.238   5.703   3.824 -0.5678  0.1008 -0.0106
14458TIP3    H264790   1.235   5.729   3.973 -0.7263 -0.5429  0.0971
14459TIP3   OH264791   1.207   1.149   4.737 -0.1231  0.1695 -0.1015
14459TIP3    H164792   1.225   1.225   4.792 -2.2291  1.1010 -0.6273
14459TIP3    H264793   1.216   1.182   4.647  0.9397 -0.7194 -0.3212
14460TIP3   OH264794   6.265   0.370   4.139 -0.1677 -0.2452  0.2805
14460TIP3    H164795   6.337   0.401   4.194  0.2901  0.7693 -0.8737
14460TIP3    H264796   6.210   0.319   4.198  0.2194  0.9781  1.7339
14461TIP3   OH264797   3.449   5.344   4.097  0.5547 -0.3059  0.5415
14461TIP3    H164798   3.487   5.282   4.035 -0.2346 -0.3276  0.0615
14461TIP3    H264799   3.363   5.364   4.060  0.1651 -0.1416  1.5177
14462TIP3   OH264800   4.608   4.835   1.939  0.4258  0.2475 -0.1920
14462TIP3    H164801   4.544   4.900   1.970 -0.5986 -0.3734 -0.9489
14462TIP3    H264802   4.619   4.856   1.846  0.5531 -0.2822 -0.2978
14463TIP3   OH264803   3.623   2.505  12.390  0.7062 -0.1893 -0.1811
14463TIP3    H164804   3.549   2.565  12.386 -0.7640 -1.9272  0.1056
14463TIP3    H264805   3.647   2.489  12.299 -0.3188 -0.8507 -0.3401
14464TIP3   OH264806   3.735   0.343   0.865  0.4927  0.0381  0.1687
14464TIP3    H164807   3.757   0.265   0.916  0.7296 -0.0951 -0.1379
14464TIP3    H264808   3.809   0.402   0.877  0.3837  0.1552  0.2746
14465TIP3   OH264809   5.316   1.870  15.519  0.3372 -0.7800  0.3158
14465TIP3    H164810   5.299   1.913  15.603 -1.1806 -0.1891 -0.2680
14465TIP3    H264811   5.229   1.845  15.487  0.8431 -0.3689 -1.4101
14466TIP3   OH264812   5.382   1.443  15.545 -0.7836 -0.1018  0.1666
14466TIP3    H164813   5.357   1.377  15.609 -0.2860 -0.8290 -0.3740
14466TIP3    H264814   5.461   1.407  15.503 -0.5579  0.7916 -0.1935
14467TIP3   OH264815   2.231   0.181  10.495 -0.2493  0.2867 -0.2870
14467TIP3    H164816   2.303   0.230  10.533 -1.7101  1.6868  0.7375
14467TIP3    H264817   2.203   0.232  10.419 -1.4968  0.8524  0.5305
14468TIP3   OH264818   4.905   3.575   2.835  0.3996  0.1697  0.3532
14468TIP3    H164819   4.847   3.593   2.761 -1.6926 -1.0959  1.6252
14468TIP3    H264820   4.975   3.640   2.827 -0.7382  1.2033 -1.6993
14469TIP3   OH264821   3.571   5.139   0.543 -0.3201  0.2457  0.0373
14469TIP3    H164822   3.649   5.170   0.588 -0.5184 -0.1532  0.6617
14469TIP3    H264823   3.552   5.207   0.478 -0.4314  1.1720  1.0202
14470TIP3   OH264824   0.517   5.114  12.542  0.1843  0.2670 -0.2743
14470TIP3    H164825   0.488   5.191  12.494 -1.1170 -0.4873 -0.7394
14470TIP3    H264826   0.490   5.040  12.487 -1.5326 -0.6199  1.6729
14471TIP3   OH264827   3.645   1.630   5.365  0.5228 -0.4981 -0.4072
14471TIP3    H164828   3.715   1.628   5.431  0.4180 -0.8648 -0.3024
14471TIP3    H264829   3.614   1.539   5.362  0.0058 -0.3206 -0.4035
14472TIP3   OH264830   5.036   2.829  11.145  0.5100 -0.3299 -0.7970
14472TIP3    H164831   5.027   2.754  11.085 -0.0726 -1.4551  0.6713
14472TIP3    H264832   5.114   2.809  11.196  1.0039  0.6354 -1.1581
14473TIP3   OH264833   3.403   4.289  16.138 -0.3326  0.0098  0.1236
14473TIP3    H164834   3.397   4.282  16.233  1.0476  0.5951  0.2642
14473TIP3    H264835   3.429   4.379  16.121 -1.5354  0.1842 -0.8631
14474TIP3   OH264836   1.691   6.382   2.756  0.1868  0.0921 -0.0939
14474TIP3    H164837   1.695   6.413   2.666 -1.0453 -1.1825 -0.6003
14474TIP3    H264838   1.621   6.317   2.757 -0.6743  0.9904  2.0639
14475TIP3   OH264839   0.292   2.838   4.680  0.1781 -0.7282  0.2247
14475TIP3    H164840   0.288   2.776   4.752  1.2248 -0.5519  0.4499
14475TIP3    H264841   0.385   2.839   4.655 -0.0468 -0.2167 -0.6167
14476TIP3   OH264842   6.309   3.553   4.967 -0.4503  0.1067  0.1899
14476TIP3    H164843   6.313   3.608   5.044  1.2038  0.7628 -0.3475
14476TIP3    H264844   6.241   3.593   4.912 -2.1172 -0.7572  1.5694
14477TIP3   OH264845   5.668   3.963   2.140  0.7590  0.2375 -0.3806
14477TIP3    H164846   5.687   3.869   2.132  2.5838  0.5312  0.0770
14477TIP3    H264847   5.703   4.001   2.060 -0.3153  0.4858 -0.7329
14478TIP3   OH264848   5.680   6.535  15.551  0.5858  0.2550 -0.0804
14478TIP3    H164849   5.644   6.611  15.506 -0.9427  1.0803  2.4178
14478TIP3    H264850   5.619   6.464  15.531  0.9035  0.1829 -0.7832
14479TIP3   OH264851   5.619   3.046  12.626  0.6219  0.2871 -0.6009
14479TIP3    H164852   5.574   2.970  12.664  0.2834  0.8145  0.0680
14479TIP3    H264853   5.696   3.010  12.583  1.5392 -0.2225  1.4150
14480TIP3   OH264854   0.581   4.193   2.117  0.0032 -0.1437  0.2347
14480TIP3    H164855   0.665   4.169   2.156  0.7836  1.6113 -0.3466
14480TIP3    H264856   0.516   4.151   2.174  1.2182 -0.5161  1.3834
14481TIP3   OH264857   5.942   5.738   1.356  0.1019 -0.1066 -0.3750
14481TIP3    H164858   5.921   5.749   1.263  0.0854  0.0271 -0.3550
14481TIP3    H264859   6.037   5.740   1.360  0.2112 -2.6370 -0.7213
14482TIP3   OH264860   5.452   2.849  12.839  0.0390  0.6610  0.4244
14482TIP3    H164861   5.397   2.792  12.892  0.5534 -0.2371  0.0232
14482TIP3    H264862   5.534   2.857  12.889  0.6450 -0.4543 -0.3691
14483TIP3   OH264863   6.552   3.218   0.831  0.3469 -0.0127  0.1470
14483TIP3    H164864   6.557   3.307   0.863  0.6601  0.3139 -0.7771
14483TIP3    H264865   6.486   3.176   0.885  0.0805  0.8295  0.4763
14484TIP3   OH264866   2.001   0.570   0.181  0.1951 -0.4216 -0.6188
14484TIP3    H164867   2.033   0.654   0.215 -0.9571 -0.4305  0.5024
14484TIP3    H264868   2.060   0.505   0.218  0.4067 -0.2178 -0.5934
14485TIP3   OH264869   3.099   5.418  12.174 -0.4333 -0.0285 -0.2803
14485TIP3    H164870   3.192   5.435  12.161 -0.4642 -0.1805 -0.7071
14485TIP3    H264871   3.055   5.486  12.122 -0.5611 -0.2219 -0.4244
14486TIP3   OH264872   0.357   4.241   5.562  0.2138  0.1524 -0.5464
14486TIP3    H164873   0.292   4.288   5.614 -0.2857 -1.0651 -0.0560
14486TIP3    H264874   0.441   4.281   5.588 -0.0984  0.0626  0.6444
14487TIP3   OH264875   0.855   5.371   4.601 -0.2072 -0.6537  0.0086
14487TIP3    H164876   0.847   5.465   4.580 -3.4235 -0.7785  0.3106
14487TIP3    H264877   0.904   5.368   4.682  1.0685  0.6872 -0.6942
14488TIP3   OH264878   6.000   3.555  15.115 -0.5105 -0.2113 -0.7087
14488TIP3    H164879   5.991   3.550  15.210 -1.6128 -0.7254 -0.8379
14488TIP3    H264880   6.062   3.627  15.101 -1.7177  1.0627  0.3142
14489TIP3   OH264881   4.725   5.139   2.277  0.1966  0.3510  0.5155
14489TIP3    H164882   4.746   5.201   2.347  0.2698  0.2205  0.6104
14489TIP3    H264883   4.793   5.072   2.284 -0.2195 -0.0483  0.7892
14490TIP3   OH264884   3.112   0.141   2.538 -0.4338  0.1659  0.1111
14490TIP3    H164885   3.204   0.122   2.518 -0.5589  0.3788 -0.6854
14490TIP3    H264886   3.113   0.173   2.628  0.2249 -0.1862  0.2357
14491TIP3   OH264887   2.279   1.682  16.662  0.0831 -0.0077  0.5403
14491TIP3    H164888   2.288   1.650  16.752  1.3726 -0.3221  0.3150
14491TIP3    H264889   2.199   1.641  16.630 -0.1638 -0.2192  1.4118
14492TIP3   OH264890   6.143   4.981  13.582 -0.0211 -0.1326 -0.3018
14492TIP3    H164891   6.094   4.902  13.607  0.7764 -0.7218 -0.5986
14492TIP3    H264892   6.190   5.006  13.661  1.1274 -0.9894 -0.7050
14493TIP3   OH264893   6.713   6.457   2.025 -0.1603 -0.6117 -0.4068
14493TIP3    H164894   6.780   6.521   2.050 -0.4428 -0.6658  0.5080
14493TIP3    H264895   6.734   6.435   1.934  1.1467 -0.7276 -0.0904
14494TIP3   OH264896   5.900   2.384   3.006  0.1897  0.0302  0.1023
14494TIP3    H164897   5.981   2.343   3.036 -0.7819 -1.0887  1.2394
14494TIP3    H264898   5.902   2.472   3.042  0.2306 -0.4764  1.3500
14495TIP3   OH264899   5.931   5.447   0.551  0.7935 -0.3517 -0.1077
14495TIP3    H164900   5.960   5.527   0.508  5.3206 -0.2649  2.6966
14495TIP3    H264901   5.880   5.477   0.626 -0.5778 -0.2471 -1.0720
14496TIP3   OH264902   1.835   3.393  14.185  0.3002  0.5217  0.8446
14496TIP3    H164903   1.868   3.426  14.102 -0.5878  2.8103  1.3652
14496TIP3    H264904   1.901   3.329  14.213 -0.3894 -1.7678 -2.5393
14497TIP3   OH264905   0.154   1.934   3.222  0.3772  0.0764 -0.0712
14497TIP3    H164906   0.134   1.989   3.298  1.1720 -0.4434  0.5147
14497TIP3    H264907   0.249   1.931   3.219  0.3819  1.0464 -1.7795
14498TIP3   OH264908   0.300   1.481  14.013  0.1080  0.3278 -0.0601
14498TIP3    H164909   0.293   1.395  13.972 -0.8713 -0.1163  1.0131
14498TIP3    H264910   0.239   1.536  13.965 -0.9332 -0.1540  0.7026
14499TIP3   OH264911   5.894   3.687  14.474 -0.1703 -0.5160 -0.8268
14499TIP3    H164912   5.940   3.670  14.556  0.2158  1.1735 -0.6676
14499TIP3    H264913   5.816   3.736  14.499 -0.6322 -0.9519 -1.3746
14500TIP3   OH264914   5.833   4.500   4.567  0.0212  0.7736 -0.3095
14500TIP3    H164915   5.759   4.552   4.600 -1.2273 -0.8043 -0.5581
14500TIP3    H264916   5.827   4.418   4.615  1.7434  0.6876 -0.2107
14501TIP3   OH264917   1.039   2.996  10.813 -0.0778 -0.4088 -0.2135
14501TIP3    H164918   1.075   3.065  10.757  0.1648 -0.3548  0.0093
14501TIP3    H264919   0.948   2.987  10.784 -0.2761  0.4119  0.1379
14502TIP3   OH264920   1.849   2.021  11.632 -0.2376  0.4558 -0.6399
14502TIP3    H164921   1.874   2.023  11.725 -0.2538  0.8425 -0.6441
14502TIP3    H264922   1.753   2.026  11.633 -0.3716 -1.9942 -0.5953
14503TIP3   OH264923   1.075   2.622  13.363  0.7478 -0.3949  0.1849
14503TIP3    H164924   1.132   2.657  13.432  1.2901  1.0919 -0.9942
14503TIP3    H264925   1.029   2.699  13.330  0.7899 -1.0395 -1.3870
14504TIP3   OH264926   4.457   4.845   2.867 -0.1188 -1.0794  0.5678
14504TIP3    H164927   4.500   4.895   2.798 -0.4520  0.3291  1.3615
14504TIP3    H264928   4.413   4.774   2.821 -0.2303 -0.2282 -0.6654
14505TIP3   OH264929   4.266   3.266   3.433  0.2378  0.1051 -0.1083
14505TIP3    H164930   4.276   3.222   3.517 -0.0778  0.5247  0.1499
14505TIP3    H264931   4.197   3.331   3.447 -0.2454 -0.2295 -0.8555
14506TIP3   OH264932   3.081   5.922   1.953 -0.1414 -0.0714  0.0140
14506TIP3    H164933   3.166   5.942   1.993 -0.2980 -0.3192  0.4665
14506TIP3    H264934   3.020   5.982   1.996 -0.3859 -0.6377  0.4486
14507TIP3   OH264935   1.127   1.703  17.195  0.2115 -0.0519  0.2588
14507TIP3    H164936   1.078   1.705  17.112  0.4138 -0.7855  0.1100
14507TIP3    H264937   1.166   1.615  17.197 -0.1222 -0.1835  1.3238
14508TIP3   OH264938   0.489   2.353  13.530  0.0372 -0.0796  0.2314
14508TIP3    H164939   0.529   2.435  13.558  1.4806  0.2070 -2.4372
14508TIP3    H264940   0.564   2.296  13.510 -0.8850 -0.5844 -1.9588
14509TIP3   OH264941   5.337   4.607  12.791  0.5108 -0.0675  0.0509
14509TIP3    H164942   5.324   4.607  12.886  1.6843  0.6215  0.2210
14509TIP3    H264943   5.277   4.539  12.759  1.1575 -1.3338  1.4270
14510TIP3   OH264944   2.825   5.775  16.376  0.3426 -0.1717 -0.3062
14510TIP3    H164945   2.767   5.704  16.403 -1.2814  2.5221  3.7938
14510TIP3    H264946   2.913   5.742  16.394 -0.3441 -1.5713  0.5355
14511TIP3   OH264947   4.943   2.437   4.760 -0.3527 -0.1932  0.8193
14511TIP3    H164948   4.981   2.396   4.682  0.5046  0.4780  0.8672
14511TIP3    H264949   4.915   2.363   4.815 -1.6664 -0.6531 -0.4515
14512TIP3   OH264950   0.291   5.401   5.377  0.3029  0.0349 -0.0272
14512TIP3    H164951   0.231   5.330   5.355 -0.8739  1.2504 -0.8285
14512TIP3    H264952   0.235   5.477   5.390  1.6795  1.3096 -1.2571
14513TIP3   OH264953   0.215   6.047  14.021  0.1467  0.0562  0.5099
14513TIP3    H164954   0.134   6.007  13.987  0.5982  0.0241 -0.5563
14513TIP3    H264955   0.267   5.973  14.052  1.6894 -0.4473 -2.9644
14514TIP3   OH264956   0.065   6.413  15.357 -0.4243  0.3634 -0.6902
14514TIP3    H164957   0.023   6.389  15.274 -0.0928  1.5034 -1.2027
14514TIP3    H264958   0.001   6.471  15.400 -0.5892 -0.2119 -0.1448
14515TIP3   OH264959   5.706   3.902   3.944 -0.5855 -0.1435  0.8052
14515TIP3    H164960   5.704   3.859   4.029 -0.7015 -0.9026  0.4230
14515TIP3    H264961   5.708   3.831   3.881 -0.6518  0.4135  0.1646
14516TIP3   OH264962   0.149   0.269  16.405  0.0574 -0.1585  0.1209
14516TIP3    H164963   0.098   0.190  16.420 -1.6638  0.5672 -1.6619
14516TIP3    H264964   0.191   0.256  16.320 -0.8617  1.1361 -0.5552
14517TIP3   OH264965   1.427   5.548   5.835  0.0170 -0.0823  0.2319
14517TIP3    H164966   1.354   5.502   5.877 -0.9267  1.2935  0.1187
14517TIP3    H264967   1.391   5.633   5.810  0.9669 -0.2976 -2.0175
14518TIP3   OH264968   4.476   3.343   0.633 -0.2068 -0.0564  0.2267
14518TIP3    H164969   4.509   3.255   0.655  0.6392  0.3361  0.5600
14518TIP3    H264970   4.474   3.344   0.537  2.6135  0.5545  0.1180
14519TIP3   OH264971   2.092   4.846  11.982  0.1855 -0.1087  0.0631
14519TIP3    H164972   2.031   4.851  12.056 -0.4962 -1.3918 -0.4025
14519TIP3    H264973   2.113   4.753  11.974  0.4622  0.0518 -1.1908
14520TIP3   OH264974   0.841   5.096  15.523  0.4584 -0.0125  0.3826
14520TIP3    H164975   0.820   5.004  15.533 -2.2915  0.6516  1.0633
14520TIP3    H264976   0.876   5.123  15.608 -1.2223  0.1825  1.0208
14521TIP3   OH264977   2.783   2.511  14.981  0.0229 -0.2324 -0.0971
14521TIP3    H164978   2.767   2.420  15.008 -0.3564 -0.8682 -2.3757
14521TIP3    H264979   2.873   2.511  14.949 -0.0317  0.1692 -0.2531
14522TIP3   OH264980   0.501   1.853  16.740 -0.1668  0.3053  0.5673
14522TIP3    H164981   0.585   1.879  16.779  0.2599 -1.4460  0.8372
14522TIP3    H264982   0.458   1.801  16.807  0.6493 -2.8885 -1.2744
14523TIP3   OH264983   4.838   0.148   1.171  0.4601 -0.3297  0.2454
14523TIP3    H164984   4.869   0.209   1.238  0.8661  0.4273 -0.6123
14523TIP3    H264985   4.748   0.174   1.154  1.0330  0.8719 -1.0355
14524TIP3   OH264986   0.699   3.709  15.678 -0.8130 -0.2953 -0.0705
14524TIP3    H164987   0.694   3.791  15.727  0.5266  0.9497 -1.9392
14524TIP3    H264988   0.769   3.723  15.615 -0.7528 -2.7974 -0.6179
14525TIP3   OH264989   4.244   2.610   3.962  0.1487  0.0321  0.3890
14525TIP3    H164990   4.182   2.540   3.979  0.8067 -0.7634 -0.3956
14525TIP3    H264991   4.205   2.660   3.890  1.1660 -1.4706 -1.2615
14526TIP3   OH264992   0.546   4.421  13.708 -0.1100 -0.2530  0.5166
14526TIP3    H164993   0.455   4.449  13.701  0.1486  0.2233 -1.1572
14526TIP3    H264994   0.592   4.473  13.642  0.8763 -2.5435 -0.6404
14527TIP3   OH264995   3.600   0.356  17.111 -0.1886  0.1870  0.1868
14527TIP3    H164996   3.633   0.421  17.051  0.9289 -1.1010 -0.6122
14527TIP3    H264997   3.672   0.294  17.123 -0.1649  0.7153  3.3094
14528TIP3   OH264998   3.368   3.943   2.592  0.4692 -0.8512 -0.7593
14528TIP3    H164999   3.344   3.989   2.511 -0.0663  0.9410  0.3819
14528TIP3    H265000   3.403   3.859   2.562 -0.8081 -0.7115 -2.8023
14529TIP3   OH265001   4.359   0.543  16.548 -0.2596 -0.6809 -0.1285
14529TIP3    H165002   4.451   0.556  16.523 -0.3656 -1.2422 -0.8476
14529TIP3    H265003   4.342   0.451  16.528 -1.6617  0.0030 -2.2637
14530TIP3   OH265004   5.917   5.631   0.086  0.4561  0.4669 -0.0125
14530TIP3    H165005   5.939   5.629  -0.007 -0.0802 -0.0996 -0.1253
14530TIP3    H265006   5.824   5.612   0.090 -0.0353  2.7524  0.4920
14531TIP3   OH265007   2.620   0.895  16.875 -0.1938  0.3906  0.2754
14531TIP3    H165008   2.677   0.945  16.817 -1.6897  1.9236  0.0886
14531TIP3    H265009   2.588   0.959  16.938 -0.2565 -0.8294  1.5149
14532TIP3   OH265010   5.351   4.570  13.661  0.0222 -0.1560  0.3198
14532TIP3    H165011   5.309   4.543  13.742  0.4964  0.1495  0.6730
14532TIP3    H265012   5.436   4.526  13.662 -0.0245 -0.2566 -0.0758
14533TIP3   OH265013   5.606   4.635  11.591  0.2876  0.4574  0.1477
14533TIP3    H165014   5.613   4.730  11.603  2.5789  0.8416 -3.6088
14533TIP3    H265015   5.517   4.622  11.559  0.1403  1.4054  0.1370
14534TIP3   OH265016   0.153   0.435   0.667 -0.1223  0.5527 -0.1011
14534TIP3    H165017   0.153   0.529   0.648  2.0649  0.7331  0.6142
14534TIP3    H265018   0.107   0.427   0.750 -1.8482  0.7816 -1.0234
14535TIP3   OH265019   2.145   5.404   1.470 -0.2163  0.2594 -0.1997
14535TIP3    H165020   2.076   5.343   1.495 -1.7106  1.8311 -0.3840
14535TIP3    H265021   2.115   5.489   1.503  0.8967  1.2128 -1.5770
14536TIP3   OH265022   2.291   4.625  11.575  0.0794 -0.4355  0.0219
14536TIP3    H165023   2.265   4.687  11.507 -0.1832 -0.2165  0.3235
14536TIP3    H265024   2.212   4.610  11.626  0.6395  0.5498  1.1849
14537TIP3   OH265025   1.655   0.025  16.900  0.0565  0.1123  0.4490
14537TIP3    H165026   1.608  -0.057  16.910  0.4756  0.0147  1.7312
14537TIP3    H265027   1.743  -0.001  16.872  0.3632  0.0776  1.4226
14538TIP3   OH265028   4.243   3.337   2.288  0.8066  0.3130  0.1012
14538TIP3    H165029   4.189   3.402   2.244  0.8691  0.8726  0.8364
14538TIP3    H265030   4.257   3.269   2.223  0.0207  0.6255 -0.4000
14539TIP3   OH265031   1.564   4.219  13.628  0.0156  0.0389  0.3334
14539TIP3    H165032   1.618   4.178  13.696  0.8287  0.2895 -0.1541
14539TIP3    H265033   1.594   4.179  13.547  0.9234  1.7027 -0.1668
14540TIP3   OH265034   5.003   2.260  11.787  0.1700 -0.2423 -0.1408
14540TIP3    H165035   4.943   2.323  11.747 -0.6377 -0.0569  1.3559
14540TIP3    H265036   5.064   2.314  11.837 -0.2698 -0.6310  0.8071
14541TIP3   OH265037   0.844   2.748   5.037  1.0888 -0.2614 -0.7253
14541TIP3    H165038   0.799   2.805   4.975  1.3244 -0.1253 -0.7692
14541TIP3    H265039   0.889   2.807   5.098 -0.0444 -0.3775  0.2479
14542TIP3   OH265040   5.487   0.726  11.737  0.2522 -0.2913  0.0954
14542TIP3    H165041   5.546   0.786  11.691 -1.0520  0.0941 -1.1492
14542TIP3    H265042   5.456   0.667  11.668 -2.3243  0.7677  0.2918
14543TIP3   OH265043   1.038   1.616   4.746 -0.9703 -0.2044  0.5257
14543TIP3    H165044   1.007   1.657   4.665 -2.1465  0.9893  1.5503
14543TIP3    H265045   0.971   1.551   4.767 -0.0792 -1.3320 -0.0602
14544TIP3   OH265046   2.089   6.630   1.609  0.2950  0.0609 -0.1187
14544TIP3    H165047   2.052   6.547   1.639 -0.5474  0.6883  0.5944
14544TIP3    H265048   2.117   6.674   1.689  1.0265  0.3355 -0.5194
14545TIP3   OH265049   1.227   3.834  16.851  0.0269  0.0495  0.2435
14545TIP3    H165050   1.138   3.849  16.881 -0.7981 -1.3124 -1.4395
14545TIP3    H265051   1.270   3.791  16.925 -1.0040 -0.2094  0.6939
14546TIP3   OH265052   1.618   4.827  14.997 -0.1717  0.0336  0.3636
14546TIP3    H165053   1.655   4.740  15.008 -1.3842 -0.5853 -0.4492
14546TIP3    H265054   1.667   4.881  15.059  1.0835 -1.0636  0.3500
14547TIP3   OH265055   1.344   0.358   5.886  0.4149  0.3687  0.4288
14547TIP3    H165056   1.380   0.411   5.958 -0.6427  0.8208  0.6248
14547TIP3    H265057   1.357   0.412   5.808  1.4156 -0.0543  0.2923
14548TIP3   OH265058   4.988   3.000   1.043  0.4035 -0.0030 -0.4644
14548TIP3    H165059   4.961   2.920   0.998 -1.1963  0.6810 -0.7541
14548TIP3    H265060   5.043   2.969   1.115 -0.4127 -1.3895 -0.4157
14549TIP3   OH265061   5.519   5.340   3.388  0.1762 -0.0796  0.6527
14549TIP3    H165062   5.535   5.247   3.374  0.0669  0.2233 -1.6375
14549TIP3    H265063   5.425   5.347   3.406 -0.3591 -0.1196 -2.0216
14550TIP3   OH265064   2.603   4.401  13.341 -0.5249  0.4406 -0.3526
14550TIP3    H165065   2.603   4.434  13.431 -1.5855  1.8839 -0.8529
14550TIP3    H265066   2.575   4.310  13.349 -1.0111  0.6798  0.7471
14551TIP3   OH265067   1.412   1.882   4.269 -0.2360  0.5787 -0.0781
14551TIP3    H165068   1.492   1.930   4.250 -0.4908  0.5050 -1.3890
14551TIP3    H265069   1.388   1.909   4.357  0.9026  1.0651  0.0832
14552TIP3   OH265070   1.047   4.667   4.245 -0.1558 -0.2190 -0.3374
14552TIP3    H165071   1.042   4.747   4.298 -0.6236 -0.3983 -0.1059
14552TIP3    H265072   1.140   4.650   4.237 -0.1053 -1.1812  1.9489
14553TIP3   OH265073   4.701   5.673   4.738  0.2791  0.4956  0.4051
14553TIP3    H165074   4.615   5.677   4.781  1.7625  0.7369  3.5002
14553TIP3    H265075   4.736   5.587   4.762  1.7042  1.1825  0.8249
14554TIP3   OH265076   4.986   0.896  16.645  0.6906  0.0896 -0.0890
14554TIP3    H165077   5.001   0.809  16.681 -0.4261  0.1775  0.6202
14554TIP3    H265078   4.961   0.879  16.554 -0.1706 -0.3994  0.2188
14555TIP3   OH265079   1.792   5.405   2.222  0.2277 -0.3621  0.3213
14555TIP3    H165080   1.778   5.494   2.255 -0.6416 -0.3506 -0.0845
14555TIP3    H265081   1.716   5.356   2.252  0.3619 -0.7990 -0.0602
14556TIP3   OH265082   0.125   4.410   4.832 -0.6852 -0.2439 -0.1100
14556TIP3    H165083   0.129   4.327   4.785  0.0404  0.0122 -0.4976
14556TIP3    H265084   0.053   4.398   4.894 -0.6216 -1.1382 -0.2011
14557TIP3   OH265085   1.531   1.566   0.196 -0.2797 -0.1827 -0.2686
14557TIP3    H165086   1.536   1.472   0.176  1.4066 -0.2830  0.6043
14557TIP3    H265087   1.437   1.585   0.194 -0.6471 -1.9042 -0.3733
14558TIP3   OH265088   3.886   2.668   5.554 -0.1750  0.1797 -0.8611
14558TIP3    H165089   3.981   2.661   5.562 -0.3379 -0.5896  0.6085
14558TIP3    H265090   3.858   2.584   5.519 -0.2563  0.6825 -2.0420
14559TIP3   OH265091   6.005   1.958  16.877  0.2744  0.2548  0.0214
14559TIP3    H165092   5.991   1.869  16.842  0.2960 -0.4006  1.6349
14559TIP3    H265093   6.098   1.961  16.898 -0.1922 -0.2095  2.2645
14560TIP3   OH265094   2.155   5.861   2.456  0.0849 -0.1215  0.0744
14560TIP3    H165095   2.156   5.939   2.399  0.6911  0.3695  0.7483
14560TIP3    H265096   2.245   5.829   2.454 -0.2541 -1.0407 -0.5153
14561TIP3   OH265097   6.771   6.117  13.398  0.3621 -0.3653 -0.0815
14561TIP3    H165098   6.813   6.043  13.443  3.3255 -0.1315 -2.2780
14561TIP3    H265099   6.737   6.078  13.317  0.1861  0.3037 -0.3258
14562TIP3   OH265100   6.478   6.511  14.845 -0.1384  0.4432 -0.1990
14562TIP3    H165101   6.417   6.467  14.904  0.7720 -0.6185 -0.0229
14562TIP3    H265102   6.504   6.443  14.783 -0.8799  1.4809 -1.6715
14563TIP3   OH265103   0.564   1.278  15.397  0.1338 -0.0210  0.2306
14563TIP3    H165104   0.636   1.323  15.353  0.3687  0.0713  0.7067
14563TIP3    H265105   0.602   1.195  15.425 -0.1483 -0.2843 -0.1621
14564TIP3   OH265106   1.002   0.018   4.311  0.9259 -0.3327 -0.3562
14564TIP3    H165107   0.908   0.015   4.324  1.1188 -1.0516  0.9728
14564TIP3    H265108   1.038  -0.035   4.382  2.2146 -2.1489 -2.3107
14565TIP3   OH265109   6.181   3.496   0.713 -0.1450 -0.6044 -0.5720
14565TIP3    H165110   6.093   3.496   0.751 -0.7677  0.4348 -1.9826
14565TIP3    H265111   6.172   3.545   0.631  1.6737 -0.7943 -0.9040
14566TIP3   OH265112   4.662   3.372  12.641  0.0310  0.3503  0.2212
14566TIP3    H165113   4.596   3.421  12.689  0.1296 -0.2115  0.9321
14566TIP3    H265114   4.739   3.429  12.642 -0.7541  1.4849 -1.5567
14567TIP3   OH265115   4.649   4.724  12.269  0.1211 -0.5673 -0.4999
14567TIP3    H165116   4.672   4.689  12.355 -1.0561 -0.3633 -0.0886
14567TIP3    H265117   4.658   4.819  12.278 -0.3246 -0.5230 -0.4996
14568TIP3   OH265118   1.734   6.672  16.319  0.0296 -0.0730 -0.1843
14568TIP3    H165119   1.675   6.713  16.255  1.0475  1.1974 -0.3434
14568TIP3    H265120   1.817   6.665  16.273  1.3374  2.7434  1.6195
14569TIP3   OH265121   3.969   4.057   4.030 -0.2905  0.0831 -0.1456
14569TIP3    H165122   3.910   3.982   4.038  2.4081 -2.3099 -1.8984
14569TIP3    H265123   3.994   4.077   4.120 -2.3727  0.0147  0.4765
14570TIP3   OH265124   6.091   2.078  15.713  0.0238 -0.6211 -0.1785
14570TIP3    H165125   6.175   2.065  15.669  0.2943 -1.4098  0.5665
14570TIP3    H265126   6.026   2.080  15.642  0.7857  1.1606 -0.8626
14571TIP3   OH265127   5.446   2.652  13.834  0.7314 -0.2593  0.3276
14571TIP3    H165128   5.536   2.624  13.853  0.3698 -1.4251  0.3387
14571TIP3    H265129   5.406   2.577  13.791 -0.0121  0.5340 -0.3964
14572TIP3   OH265130   0.821   0.783   2.968  0.0585 -0.8025 -0.3469
14572TIP3    H165131   0.883   0.835   2.918  2.1013 -1.6550  1.2154
14572TIP3    H265132   0.749   0.843   2.988  1.6522  0.9681  0.1277
14573TIP3   OH265133   4.562   6.212   5.046  0.0375  0.3924  0.3902
14573TIP3    H165134   4.619   6.207   5.123 -1.1016 -1.2586  1.1630
14573TIP3    H265135   4.488   6.266   5.074 -0.7380 -0.8168  0.7152
14574TIP3   OH265136   5.274   3.105   5.462 -0.0423  0.3690 -0.4938
14574TIP3    H165137   5.253   3.190   5.424  1.4400  0.4244 -1.2325
14574TIP3    H265138   5.338   3.125   5.530  0.3244 -0.1632 -0.6869
14575TIP3   OH265139   3.845   5.560   4.993 -0.0239 -0.0344  0.2262
14575TIP3    H165140   3.821   5.502   4.920  1.5207 -0.1444 -0.2157
14575TIP3    H265141   3.850   5.501   5.068 -1.1423 -0.0049  0.3324
14576TIP3   OH265142   4.700   5.067   2.868  0.2792  0.0343  0.0879
14576TIP3    H165143   4.614   5.099   2.842 -0.6834 -2.0108  0.6199
14576TIP3    H265144   4.733   5.020   2.791  1.1474  1.2328 -0.2827
14577TIP3   OH265145   3.122   3.616  16.114 -0.7504 -0.0370  0.5517
14577TIP3    H165146   3.124   3.584  16.204  1.3137 -0.6623  0.3138
14577TIP3    H265147   3.132   3.538  16.060 -0.0669  0.5156 -0.1452
14578TIP3   OH265148   0.697   3.026  14.775 -0.2163 -0.2633 -0.1833
14578TIP3    H165149   0.675   2.933  14.773  1.1939 -0.6111  0.0561
14578TIP3    H265150   0.636   3.064  14.838  0.7010 -1.4278  1.4233
14579TIP3   OH265151   0.468   5.741   2.135 -0.2478 -0.2550  0.3706
14579TIP3    H165152   0.504   5.752   2.223 -2.3716 -0.5690  1.3344
14579TIP3    H265153   0.373   5.741   2.149 -0.6179  0.4595 -2.0299
14580TIP3   OH265154   0.264   2.619  12.565  0.3950  0.6489  0.1061
14580TIP3    H165155   0.237   2.630  12.656  0.4885 -1.2765  0.3885
14580TIP3    H265156   0.355   2.589  12.571  0.4439  0.6401 -0.6189
14581TIP3   OH265157   3.953   0.882  15.256  0.2896  0.5326  0.0121
14581TIP3    H165158   4.041   0.884  15.220  0.1201  1.0998 -0.3808
14581TIP3    H265159   3.913   0.965  15.228 -0.4574  0.1571 -0.0555
14582TIP3   OH265160   3.020   5.983  11.479 -0.0045  0.1913 -0.0342
14582TIP3    H165161   2.940   5.941  11.511  0.2695  0.3240  0.8609
14582TIP3    H265162   3.077   5.986  11.556  0.8573  0.0969 -0.6689
14583TIP3   OH265163   4.684   0.894   1.417 -0.1224  0.1550  0.0867
14583TIP3    H165164   4.752   0.855   1.362 -0.3105 -0.6632  0.4237
14583TIP3    H265165   4.679   0.986   1.389  0.6149  0.0365 -0.4292
14584TIP3   OH265166   5.965   2.054  11.460 -0.1389 -0.0480  0.3519
14584TIP3    H165167   6.040   2.113  11.462  1.6591 -2.1818 -1.4886
14584TIP3    H265168   5.923   2.071  11.376 -2.1253  1.5130  1.5870
14585TIP3   OH265169   5.592   4.158   3.993 -0.4899  0.5901  0.0635
14585TIP3    H165170   5.521   4.183   3.934  1.7157  0.6965 -2.7109
14585TIP3    H265171   5.603   4.064   3.978  0.3750  0.7026 -0.0707
14586TIP3   OH265172   4.386   2.420   5.191 -0.6920 -0.1543 -0.6231
14586TIP3    H165173   4.363   2.398   5.282  2.8993 -0.8620  0.1791
14586TIP3    H265174   4.392   2.336   5.147 -0.5178  0.0800 -1.0434
14587TIP3   OH265175   2.425   2.313   1.068  0.7805 -0.1734  0.1517
14587TIP3    H165176   2.396   2.224   1.088  0.1382 -0.1409 -0.6326
14587TIP3    H265177   2.490   2.302   0.999  1.1434 -0.0793  0.4763
14588TIP3   OH265178   3.499   0.971  12.995 -0.3939 -0.5124 -0.5665
14588TIP3    H165179   3.592   0.982  13.011 -0.4370 -0.8357 -0.0805
14588TIP3    H265180   3.492   0.959  12.900 -0.1254  1.3787 -0.8472
14589TIP3   OH265181   2.329   3.440   0.687 -0.4321 -0.0431  0.6595
14589TIP3    H165182   2.343   3.351   0.719  2.1002  1.1213  3.0934
14589TIP3    H265183   2.234   3.449   0.681 -0.7071 -3.0580 -0.1650
14590TIP3   OH265184   6.753   6.322  13.602  0.3030 -0.0997 -0.2921
14590TIP3    H165185   6.673   6.285  13.564  0.1634 -0.1980  0.0939
14590TIP3    H265186   6.813   6.248  13.607 -0.4020 -0.5741  1.6482
14591TIP3   OH265187   1.959   4.334   4.365  0.1069 -0.1260  0.5864
14591TIP3    H165188   1.943   4.410   4.421  1.0241 -0.0876  0.8028
14591TIP3    H265189   1.872   4.301   4.344 -0.2730  0.5161  1.1377
14592TIP3   OH265190   6.728   1.729  16.455 -0.3713 -0.0264  0.1924
14592TIP3    H165191   6.787   1.740  16.530 -0.7783 -1.8875  0.8138
14592TIP3    H265192   6.688   1.643  16.468 -1.2901  0.1008 -1.5860
14593TIP3   OH265193   1.326   0.047   2.759 -0.6597 -0.4519 -0.3407
14593TIP3    H165194   1.290   0.033   2.672  0.2247  0.4253 -0.8619
14593TIP3    H265195   1.421   0.048   2.747 -0.5165 -0.6122  0.6741
14594TIP3   OH265196   3.881   0.240  16.412 -0.2843  0.2574 -0.3520
14594TIP3    H165197   3.870   0.230  16.507  1.6049 -0.7510 -0.2220
14594TIP3    H265198   3.924   0.159  16.384  0.9823  1.3795 -1.7477
14595TIP3   OH265199   6.448   5.117   0.665 -0.1799 -0.5981 -0.1419
14595TIP3    H165200   6.359   5.092   0.690 -0.5021 -0.4233 -1.0776
14595TIP3    H265201   6.441   5.137   0.571  1.0447 -1.5161 -0.4277
14596TIP3   OH265202   2.732   1.889   5.272 -0.1045  0.5414 -0.3933
14596TIP3    H165203   2.678   1.968   5.260 -1.2799 -0.0322  0.9053
14596TIP3    H265204   2.821   1.919   5.256 -0.2982  2.6409  2.0408
14597TIP3   OH265205   2.850   1.408  11.037 -0.1598  0.3167  0.6844
14597TIP3    H165206   2.815   1.369  11.117 -0.7758  0.5449  0.5332
14597TIP3    H265207   2.937   1.370  11.028 -1.0131 -1.5452  0.1610
14598TIP3   OH265208   6.496   1.539   4.042 -0.2722 -0.2942 -0.4308
14598TIP3    H165209   6.423   1.480   4.022 -0.0623 -1.2241  1.4701
14598TIP3    H265210   6.463   1.597   4.110  0.1361  0.5556 -0.9507
14599TIP3   OH265211   3.133   6.676  12.609  0.2298 -0.8104 -0.1051
14599TIP3    H165212   3.184   6.619  12.552  1.6798 -0.1736  0.5350
14599TIP3    H265213   3.073   6.616  12.654  0.5042 -1.5852 -0.7511
14600TIP3   OH265214   3.025   0.676   5.989 -0.0775  0.8895 -0.0281
14600TIP3    H165215   2.978   0.759   5.991  0.5744  1.3048 -1.2483
14600TIP3    H265216   3.055   0.667   5.898  0.6171 -0.2513  0.2912
14601TIP3   OH265217   5.349   2.235  12.658  0.4902  0.1935  0.2289
14601TIP3    H165218   5.255   2.247  12.648  0.3082 -0.5694  1.0465
14601TIP3    H265219   5.358   2.164  12.722  1.6086 -0.5148 -0.7006
14602TIP3   OH265220   6.257   3.340  11.945  0.5897  0.8325 -0.0120
14602TIP3    H165221   6.285   3.419  11.898 -1.0647 -0.0153 -2.5286
14602TIP3    H265222   6.164   3.330  11.921  0.9839 -2.3085 -0.4215
14603TIP3   OH265223   4.380   3.872  13.225  0.4852 -0.2664  0.0439
14603TIP3    H165224   4.420   3.807  13.167  1.0745  0.8902 -0.8837
14603TIP3    H265225   4.380   3.953  13.173 -0.6964  0.3515  0.9938
14604TIP3   OH265226   5.645   5.655  12.776  0.3444  0.1094  0.4842
14604TIP3    H165227   5.669   5.613  12.693 -1.3986  1.6548 -0.8421
14604TIP3    H265228   5.565   5.610  12.803  0.3852  0.2554  0.8466
14605TIP3   OH265229   0.625   1.288   0.273  0.0453 -0.7709 -0.5804
14605TIP3    H165230   0.664   1.201   0.266  1.5624 -0.1427  0.0686
14605TIP3    H265231   0.698   1.347   0.289 -1.3068  0.2276  2.2060
14606TIP3   OH265232   6.172   6.526   3.270  1.1669 -0.0716  0.4009
14606TIP3    H165233   6.215   6.529   3.356 -0.6357  0.4084  1.3021
14606TIP3    H265234   6.132   6.612   3.260 -0.8130 -0.9700  0.2374
14607TIP3   OH265235   4.438   0.426   2.583 -0.4370  0.6290 -0.5701
14607TIP3    H165236   4.492   0.372   2.525  0.2460  0.3636  0.3044
14607TIP3    H265237   4.354   0.431   2.538 -0.7564 -1.7856 -0.3336
14608TIP3   OH265238   3.150   0.270   1.176 -0.0855  0.4783  0.4594
14608TIP3    H165239   3.233   0.229   1.197 -0.3415 -0.5451 -0.4745
14608TIP3    H265240   3.142   0.262   1.081 -0.7885  1.4680  0.4187
14609TIP3   OH265241   2.417   6.783  14.170 -0.4060 -0.0986  0.5572
14609TIP3    H165242   2.332   6.769  14.129 -0.7016  3.3788 -0.1883
14609TIP3    H265243   2.396   6.808  14.261 -0.2453  1.1123  0.2759
14610TIP3   OH265244   6.046   3.010  10.682 -0.3558  0.7624 -0.1084
14610TIP3    H165245   6.032   2.916  10.691 -2.1746  0.9891 -0.3425
14610TIP3    H265246   6.135   3.018  10.647 -0.5104 -0.9206 -0.9476
14611TIP3   OH265247   0.451   5.146  13.263 -0.0723  0.8215 -0.0686
14611TIP3    H165248   0.401   5.209  13.315  0.3750  1.2082 -0.1023
14611TIP3    H265249   0.515   5.199  13.215 -2.5804  0.8688 -3.5385
14612TIP3   OH265250   6.292   2.414   3.558 -0.2831 -0.3728  0.5861
14612TIP3    H165251   6.300   2.502   3.595 -1.6984 -0.7161  1.7346
14612TIP3    H265252   6.286   2.429   3.463 -2.6583  0.9194  0.9230
14613TIP3   OH265253   0.574   6.699  12.626  0.4134  0.0210 -0.4177
14613TIP3    H165254   0.524   6.645  12.688 -0.5879  0.4675 -0.8185
14613TIP3    H265255   0.618   6.636  12.569 -0.0974 -0.3748 -0.3800
14614TIP3   OH265256   1.694   3.039  15.764 -0.9894 -0.0531 -0.1106
14614TIP3    H165257   1.727   3.027  15.853  0.8556  2.4108 -0.4105
14614TIP3    H265258   1.708   2.954  15.722 -1.7139 -1.1755  1.8866
14615TIP3   OH265259   3.857   5.788   1.824  0.1172  0.1720  0.0624
14615TIP3    H165260   3.885   5.823   1.908 -1.6064  0.8721  0.3519
14615TIP3    H265261   3.883   5.696   1.827  3.1967  0.9616 -0.0509
14616TIP3   OH265262   3.850   6.459  10.301  0.5625  0.0286  0.0349
14616TIP3    H165263   3.907   6.386  10.325  2.4562  1.3462 -0.3113
14616TIP3    H265264   3.894   6.536  10.338 -1.9861  0.8804  1.4059
14617TIP3   OH265265   5.548   3.258   3.372 -0.0065 -0.1422  0.9575
14617TIP3    H165266   5.526   3.275   3.464 -2.9043  1.4783  0.0472
14617TIP3    H265267   5.471   3.213   3.337  1.2429 -1.1213 -0.5985
14618TIP3   OH265268   4.770   6.188  14.032  0.1260  0.4882 -0.4870
14618TIP3    H165269   4.700   6.210  14.093  0.7605 -0.8286  0.7582
14618TIP3    H265270   4.780   6.266  13.978 -1.1179  1.3237  0.4406
14619TIP3   OH265271   4.769   0.337   3.358  0.0965 -0.2394  0.1814
14619TIP3    H165272   4.860   0.322   3.385  0.3436  2.4836  1.0499
14619TIP3    H265273   4.775   0.408   3.294 -1.4368 -0.0564  0.2178
14620TIP3   OH265274   6.447   0.523  10.959 -0.6332  0.2312  0.5084
14620TIP3    H165275   6.400   0.489  11.035 -0.8740 -1.8681 -0.5395
14620TIP3    H265276   6.529   0.475  10.958  0.1211  1.5119  0.4312
14621TIP3   OH265277   3.999   3.426  16.724  0.1961 -0.1653  0.2010
14621TIP3    H165278   4.004   3.345  16.675 -0.5401 -0.7155  1.0079
14621TIP3    H265279   3.945   3.484  16.671 -0.2700 -0.6207  0.1810
14622TIP3   OH265280   0.138   0.968  15.041  0.2647  0.1373  0.1029
14622TIP3    H165281   0.207   1.034  15.031 -0.2991  0.7591  0.2962
14622TIP3    H265282   0.082   1.002  15.110 -0.0156 -0.5628  0.2228
14623TIP3   OH265283   0.364   0.291   0.194 -0.3501 -0.0530 -0.2714
14623TIP3    H165284   0.315   0.220   0.154 -1.1137  0.1871  0.2215
14623TIP3    H265285   0.317   0.310   0.276 -1.0745  2.0585 -1.1456
14624TIP3   OH265286   3.981   3.629  16.514  0.2576 -0.4238 -0.2945
14624TIP3    H165287   4.037   3.704  16.492 -1.4675  0.8502 -0.5244
14624TIP3    H265288   3.941   3.604  16.431  0.9916 -1.7466 -0.2530
14625TIP3   OH265289   6.737   3.212   5.481  0.4243  0.2442 -0.4884
14625TIP3    H165290   6.696   3.226   5.567 -0.2030  3.2392 -1.2286
14625TIP3    H265291   6.728   3.118   5.465  0.2855 -0.3182  2.5762
14626TIP3   OH265292   2.731   6.637   2.317  0.9047 -0.9199  0.1126
14626TIP3    H165293   2.786   6.697   2.366  1.1751 -1.2909  0.2709
14626TIP3    H265294   2.786   6.608   2.244 -0.0682  0.9356 -1.3979
14627TIP3   OH265295   4.103   1.152   4.386 -0.2671 -0.3533  0.1101
14627TIP3    H165296   4.053   1.223   4.344 -1.0172 -0.2786  1.1308
14627TIP3    H265297   4.089   1.164   4.479 -2.0455 -3.0684  0.2395
14628TIP3   OH265298   5.525   1.918   5.337  0.0513  0.2323  0.1345
14628TIP3    H165299   5.597   1.913   5.400 -0.6986 -3.8191  0.8149
14628TIP3    H265300   5.446   1.924   5.391 -0.4273 -0.5271 -0.4645
14629TIP3   OH265301   5.199   0.526   4.150  0.4033  0.0301  0.3836
14629TIP3    H165302   5.114   0.568   4.161 -1.2090 -2.5973 -1.4232
14629TIP3    H265303   5.180   0.432   4.151  2.8837 -0.6211 -2.6622
14630TIP3   OH265304   3.608   5.816   4.199 -0.3014 -0.2909  0.0076
14630TIP3    H165305   3.520   5.845   4.223 -0.5671 -0.7169 -0.4295
14630TIP3    H265306   3.627   5.745   4.261  0.3345  0.7677  1.0538
14631TIP3   OH265307   6.527   4.947  13.523  0.0701 -0.6525 -0.2045
14631TIP3    H165308   6.482   4.889  13.584 -2.0766  1.2337  0.0561
14631TIP3    H265309   6.590   4.994  13.578 -1.3996  0.5670  0.4566
14632TIP3   OH265310   4.164   3.347  15.876  0.0908  0.2247 -0.1669
14632TIP3    H165311   4.120   3.332  15.793 -0.2875  0.8910 -0.0876
14632TIP3    H265312   4.224   3.420  15.860  0.1002  0.2808  0.1096
14633TIP3   OH265313   1.425   6.019   5.766 -0.3187  0.3291  0.5176
14633TIP3    H165314   1.384   5.933   5.753 -1.7087  0.6986  2.2146
14633TIP3    H265315   1.367   6.080   5.720  0.0774  0.4853  0.2240
14634TIP3   OH265316   3.912   3.334  12.754 -0.1659 -0.5486  0.2452
14634TIP3    H165317   3.922   3.377  12.839 -0.3242 -0.6608  0.3217
14634TIP3    H265318   3.931   3.241  12.772  0.6237 -0.4363 -0.0075
14635TIP3   OH265319   0.728   3.566  14.913 -0.1386  0.0070 -0.2392
14635TIP3    H165320   0.701   3.491  14.965  0.3107 -0.9568 -1.3737
14635TIP3    H265321   0.647   3.603  14.879 -0.3128 -0.4125 -0.2777
14636TIP3   OH265322   2.789   6.148  11.809  0.3218 -0.4513 -0.8883
14636TIP3    H165323   2.876   6.176  11.838  0.0686 -1.5231  0.9790
14636TIP3    H265324   2.730   6.215  11.842  0.1465 -1.1571  0.2673
14637TIP3   OH265325   4.365   5.100   1.025  0.3359  0.2134  0.5455
14637TIP3    H165326   4.411   5.136   1.101  0.7880  0.5725  0.1054
14637TIP3    H265327   4.277   5.082   1.057 -0.1668  2.5458  0.5726
14638TIP3   OH265328   2.589   2.161   5.184  0.2039  0.4569  0.0994
14638TIP3    H165329   2.670   2.177   5.135 -0.4310 -1.6127 -1.6847
14638TIP3    H265330   2.544   2.245   5.183  1.1436  0.9612 -1.1105
14639TIP3   OH265331   0.626   0.505  10.742 -0.8237 -0.3335  0.3310
14639TIP3    H165332   0.713   0.484  10.776 -1.6579 -1.2485  1.9673
14639TIP3    H265333   0.594   0.423  10.705 -0.6581  0.2157 -1.0496
14640TIP3   OH265334   3.835   5.934   5.662  0.1280  0.1885  0.0918
14640TIP3    H165335   3.869   5.878   5.731  0.1939 -0.0028 -0.0954
14640TIP3    H265336   3.911   5.981   5.628  0.2068 -0.2347 -0.3223
14641TIP3   OH265337   0.563   4.714  16.769  0.0923 -0.5149 -0.4212
14641TIP3    H165338   0.490   4.776  16.772 -0.4696 -1.2229  0.8901
14641TIP3    H265339   0.522   4.628  16.781  1.3747 -0.7497  2.5021
14642TIP3   OH265340   6.432   5.046  11.235 -0.0221  0.3518 -0.0806
14642TIP3    H165341   6.453   5.081  11.149  0.8706 -1.5574 -0.6745
14642TIP3    H265342   6.473   5.107  11.297  0.7292  0.8385 -1.0549
14643TIP3   OH265343   6.222   0.448   1.142  0.0933  0.0667  0.7052
14643TIP3    H165344   6.251   0.373   1.194  0.5539  1.7495  2.9644
14643TIP3    H265345   6.129   0.458   1.165 -0.0485  0.0027  0.1642
14644TIP3   OH265346   4.944   6.268  13.514 -0.4456 -0.3870 -0.1852
14644TIP3    H165347   5.039   6.272  13.514 -0.5183  2.2348  0.1609
14644TIP3    H265348   4.924   6.175  13.510  2.1219 -0.9683 -0.4180
14645TIP3   OH265349   5.457   3.461  16.735 -0.4025  0.2143  0.1931
14645TIP3    H165350   5.429   3.478  16.825  1.4092 -0.9894  1.0280
14645TIP3    H265351   5.551   3.475  16.737  0.0032 -2.0696 -0.9276
14646TIP3   OH265352   0.996   2.848   4.344 -0.4086 -0.0297  0.4845
14646TIP3    H165353   0.957   2.761   4.336  0.5225 -0.5080  1.0413
14646TIP3    H265354   0.929   2.900   4.387 -0.7110 -0.6517  0.7779
14647TIP3   OH265355   1.592   1.173  14.944  0.0578  0.4767  0.5365
14647TIP3    H165356   1.518   1.228  14.918  1.5667  1.6190 -1.5566
14647TIP3    H265357   1.552   1.091  14.972 -1.9967  0.9991 -0.7283
14648TIP3   OH265358   1.559   0.524  12.759  0.5959 -0.1307  1.0010
14648TIP3    H165359   1.558   0.432  12.783 -1.7981 -0.3700  0.1027
14648TIP3    H265360   1.551   0.571  12.842  1.6286 -0.7122  1.4439
14649TIP3   OH265361   5.701   3.497  13.076 -0.2946 -0.1433  0.0321
14649TIP3    H165362   5.675   3.588  13.080 -1.2962 -0.3119 -2.1948
14649TIP3    H265363   5.630   3.449  13.120 -0.6252 -0.0133 -0.3602
14650TIP3   OH265364   2.349   2.779  13.382 -0.1073  0.5065 -0.1402
14650TIP3    H165365   2.319   2.709  13.324  0.9111  1.0750 -1.3628
14650TIP3    H265366   2.417   2.739  13.436  0.6542  0.6061 -1.0131
14651TIP3   OH265367   0.333   0.580  13.307 -0.0375  0.1309 -0.4354
14651TIP3    H165368   0.315   0.666  13.345  0.0608 -2.1280  5.2009
14651TIP3    H265369   0.428   0.579  13.294  0.5502 -0.4617  3.3766
14652TIP3   OH265370   2.798   6.682  15.186  0.8725 -0.0754 -0.2024
14652TIP3    H165371   2.817   6.698  15.279 -1.3177  0.5639  0.1513
14652TIP3    H265372   2.797   6.770  15.147 -0.6224 -0.1484 -0.3399
14653TIP3   OH265373   5.607   6.313  11.037 -0.4263  0.2553 -0.3091
14653TIP3    H165374   5.603   6.337  10.945  0.5145 -2.0642 -1.0090
14653TIP3    H265375   5.624   6.395  11.084  1.5083  1.1059 -2.4227
14654TIP3   OH265376   4.826   4.593   1.008  0.0381 -0.0412 -0.6391
14654TIP3    H165377   4.842   4.543   0.928 -1.2279 -3.2445  1.0322
14654TIP3    H265378   4.876   4.548   1.075 -2.8396 -0.4512  1.3488
14655TIP3   OH265379   0.296   1.644  14.792  0.1867 -0.0979  0.3317
14655TIP3    H165380   0.218   1.616  14.743  0.0430  1.5546 -0.4119
14655TIP3    H265381   0.366   1.645  14.728  0.5074 -0.1251  0.6774
14656TIP3   OH265382   6.607   3.229  14.702 -0.2019  0.5150 -0.0212
14656TIP3    H165383   6.692   3.216  14.745  0.7022  1.3360 -1.5202
14656TIP3    H265384   6.557   3.150  14.723  1.5507 -0.7611 -0.5586
14657TIP3   OH265385   3.157   2.630   2.594 -0.4479  0.6347  0.5858
14657TIP3    H165386   3.146   2.689   2.520 -1.6812  0.6492  0.7700
14657TIP3    H265387   3.124   2.679   2.669 -0.5837  0.0724  0.9001
14658TIP3   OH265388   4.691   4.308  15.658  0.4487  0.5278  0.2798
14658TIP3    H165389   4.746   4.345  15.589 -0.7020 -1.0270 -1.5281
14658TIP3    H265390   4.607   4.352  15.647 -1.7323 -4.1898 -3.5342
14659TIP3   OH265391   1.000   4.899  14.908  0.2794  0.0925  0.0154
14659TIP3    H165392   0.960   4.908  14.994  0.0795 -0.9454  0.0372
14659TIP3    H265393   1.094   4.897  14.925  0.2779  0.8325  0.1198
14660TIP3   OH265394   5.880   1.168   3.788  0.5879 -0.2336 -0.1887
14660TIP3    H165395   5.800   1.153   3.738  0.6406  0.9720 -0.6486
14660TIP3    H265396   5.855   1.234   3.854  1.5721  1.2798 -1.3062
14661TIP3   OH265397   6.620   5.189  10.837  0.2883  0.2048 -0.2957
14661TIP3    H165398   6.639   5.266  10.784  0.8876  0.0898 -0.2551
14661TIP3    H265399   6.636   5.115  10.779 -2.9670  0.1386 -1.2032
14662TIP3   OH265400   2.545   3.520   2.578  0.0701  0.7168  0.3564
14662TIP3    H165401   2.538   3.428   2.551  0.9277  0.1934  1.8384
14662TIP3    H265402   2.637   3.531   2.600 -0.3435  1.4862  1.7393
14663TIP3   OH265403   6.240   0.753  16.955  0.2435 -0.2241 -0.0060
14663TIP3    H165404   6.231   0.667  16.913  0.9447  0.8699 -2.5094
14663TIP3    H265405   6.250   0.733  17.048  1.7351 -2.9682 -0.6767
14664TIP3   OH265406   5.469   4.556   5.524  0.7417  0.3687  0.3192
14664TIP3    H165407   5.558   4.591   5.523  0.0912  2.0739  0.0143
14664TIP3    H265408   5.459   4.511   5.440  1.3977 -0.0690  0.4711
14665TIP3   OH265409   0.607   3.421   2.007  0.4532 -0.0053 -0.2898
14665TIP3    H165410   0.643   3.463   1.929  2.2124  0.7497  0.9248
14665TIP3    H265411   0.598   3.492   2.071 -0.8847 -0.6391  0.2410
14666TIP3   OH265412   1.094   6.637   0.835  0.4475  0.0744  1.0440
14666TIP3    H165413   1.114   6.629   0.928 -0.1758 -0.9937  1.0918
14666TIP3    H265414   1.073   6.548   0.807 -0.3075  0.5416  0.1011
14667TIP3   OH265415   6.352   5.638  11.885 -0.5849  0.3551  0.5450
14667TIP3    H165416   6.337   5.725  11.848 -1.1545 -0.8281 -2.1142
14667TIP3    H265417   6.265   5.605  11.905 -0.4009  0.1425  1.0121
14668TIP3   OH265418   4.935   5.982  10.979 -0.1361 -0.1182 -0.4312
14668TIP3    H165419   4.849   6.021  10.968 -0.7378 -0.8747  1.3840
14668TIP3    H265420   4.991   6.055  11.007 -0.5992  0.0156  0.1474
14669TIP3   OH265421   2.054   2.761   3.830  0.1990  0.0746 -0.3315
14669TIP3    H165422   2.139   2.748   3.788  0.7293  1.3349  0.3019
14669TIP3    H265423   1.995   2.787   3.758  0.8458  1.1868 -0.4742
14670TIP3   OH265424   2.811   0.166  13.816 -0.7341 -0.4738 -0.5037
14670TIP3    H165425   2.788   0.259  13.823  0.4274 -0.1997 -0.2493
14670TIP3    H265426   2.853   0.158  13.731  0.0108 -0.5872 -0.1245
14671TIP3   OH265427   5.627   5.462  10.573 -0.5895 -0.3912 -0.8587
14671TIP3    H165428   5.533   5.475  10.562 -0.6284  0.1479  0.0453
14671TIP3    H265429   5.667   5.520  10.508 -0.8549  1.1250  0.2966
14672TIP3   OH265430   5.465   6.309   2.580 -0.0095 -0.2046  0.2490
14672TIP3    H165431   5.396   6.322   2.516  2.0754 -1.7209 -2.4244
14672TIP3    H265432   5.532   6.374   2.557 -0.0072  0.4503  2.0476
14673TIP3   OH265433   1.229   5.850   5.162 -0.4779 -0.4710  0.7238
14673TIP3    H165434   1.288   5.775   5.167  1.2818  0.7805 -0.5470
14673TIP3    H265435   1.262   5.911   5.229 -0.1025  0.3695 -0.2107
14674TIP3   OH265436   5.005   4.437   0.557  0.6633  0.2815  0.1981
14674TIP3    H165437   4.983   4.388   0.636 -0.1799  0.5240  0.1226
14674TIP3    H265438   4.961   4.521   0.568  0.1768  0.1499 -0.7327
14675TIP3   OH265439   1.285   6.768  13.779  0.4978 -0.0415 -0.3450
14675TIP3    H165440   1.347   6.733  13.714  0.5559  1.5245 -1.1711
14675TIP3    H265441   1.296   6.712  13.855  1.7576 -0.8015 -1.0621
14676TIP3   OH265442   5.017   4.336  16.017  0.2627  0.6294 -0.3749
14676TIP3    H165443   4.972   4.361  15.936 -0.5225  1.0913  0.1944
14676TIP3    H265444   5.109   4.328  15.992 -0.1102 -0.2254 -1.5392
14677TIP3   OH265445   4.265   5.718   1.908 -0.1961  0.8122 -0.1398
14677TIP3    H165446   4.189   5.673   1.947  1.7194 -2.1313  0.4104
14677TIP3    H265447   4.310   5.757   1.983  1.0073 -0.9670  0.1120
14678TIP3   OH265448   1.937   2.981   0.862 -0.4637  0.4120 -0.1525
14678TIP3    H165449   1.951   3.037   0.939 -0.6351  1.0048 -0.5509
14678TIP3    H265450   1.842   2.978   0.853 -0.4885 -0.8041  0.4971
14679TIP3   OH265451   2.024   1.823   3.370  0.6864  0.1868  0.2237
14679TIP3    H165452   2.115   1.848   3.383  0.7544 -0.6169  1.4405
14679TIP3    H265453   2.020   1.732   3.401 -0.5929  0.3242  0.4846
14680TIP3   OH265454   2.225   2.871   1.204 -0.4837  0.1753  0.0812
14680TIP3    H165455   2.305   2.839   1.244  1.3959  2.9108 -1.3008
14680TIP3    H265456   2.206   2.952   1.252  0.4906  2.2403 -2.9066
14681TIP3   OH265457   4.845   1.603   5.304 -0.0727  0.2541  0.4331
14681TIP3    H165458   4.937   1.626   5.296  0.1902 -0.3334  1.5828
14681TIP3    H265459   4.834   1.528   5.246  0.7107 -1.0816  1.9724
14682TIP3   OH265460   4.837   1.793  11.626 -0.8148  0.0088  0.0419
14682TIP3    H165461   4.928   1.811  11.600 -0.7728  3.0236  1.9803
14682TIP3    H265462   4.786   1.858  11.577 -1.5829  0.2965  1.2103
14683TIP3   OH265463   3.223   3.412   1.721 -0.8031 -0.8943 -0.0141
14683TIP3    H165464   3.285   3.400   1.793 -1.7425  0.5018  1.0455
14683TIP3    H265465   3.141   3.376   1.753 -0.7199 -2.1627 -1.1854
14684TIP3   OH265466   5.052   0.285  10.577  0.4340 -0.3802 -0.6567
14684TIP3    H165467   5.081   0.358  10.523 -0.6034 -0.6927 -1.6463
14684TIP3    H265468   4.989   0.324  10.638  1.3127 -0.1002  0.0762
14685TIP3   OH265469   1.777   5.802   0.604  0.5086  0.2719 -0.6922
14685TIP3    H165470   1.815   5.721   0.636 -1.6210 -0.9794 -1.2098
14685TIP3    H265471   1.852   5.857   0.581  1.9722 -1.2925  0.2703
14686TIP3   OH265472   3.988   6.208  10.276 -0.1136  0.6934  1.0077
14686TIP3    H165473   3.931   6.223  10.201  1.3019  0.2307 -0.1985
14686TIP3    H265474   3.951   6.131  10.319 -0.0291 -0.0008 -0.1401
14687TIP3   OH265475   2.755   5.532   1.238 -0.0851 -0.4991 -0.4092
14687TIP3    H165476   2.712   5.603   1.191 -0.5994  0.1717  1.0461
14687TIP3    H265477   2.709   5.453   1.210  0.2335 -0.2215 -1.7334
14688TIP3   OH265478   5.112   2.314   0.528 -0.1963  0.5079 -0.1027
14688TIP3    H165479   5.042   2.375   0.505  0.8740  1.4011 -1.0850
14688TIP3    H265480   5.168   2.312   0.451 -0.2975 -1.8874 -0.1524
14689TIP3   OH265481   5.926   0.744  13.079 -0.0480  0.1832  0.1178
14689TIP3    H165482   5.978   0.795  13.141 -0.0127  0.2965 -0.0055
14689TIP3    H265483   5.865   0.808  13.041 -0.6182 -0.0492  0.6287
14690TIP3   OH265484   0.451   1.311   4.474  0.0416 -1.0010  0.0354
14690TIP3    H165485   0.493   1.395   4.493 -0.3754 -0.3582 -1.8413
14690TIP3    H265486   0.524   1.250   4.464  0.4096 -0.5486 -0.0772
14691TIP3   OH265487   5.665   0.611   1.424  0.0032  0.0790  0.5267
14691TIP3    H165488   5.584   0.652   1.394 -0.9837 -0.8198  1.9151
14691TIP3    H265489   5.664   0.524   1.383 -0.8590 -0.7752  2.3233
14692TIP3   OH265490   4.408   3.757  14.516 -0.7803 -0.6518 -0.1048
14692TIP3    H165491   4.429   3.804  14.435 -0.7350 -0.0799  0.2380
14692TIP3    H265492   4.395   3.666  14.488 -1.7928 -0.2702 -0.9103
14693TIP3   OH265493   6.623   5.693  13.861  0.2739 -0.7822 -0.1296
14693TIP3    H165494   6.552   5.632  13.878 -1.5384  0.9994 -1.0889
14693TIP3    H265495   6.683   5.644  13.804 -0.9058 -1.8396 -0.4979
14694TIP3   OH265496   2.910   3.319  15.425  0.1202  0.3463  0.0725
14694TIP3    H165497   2.981   3.279  15.374  1.3160  0.2332  1.7855
14694TIP3    H265498   2.869   3.245  15.471  0.7887  0.7706  1.3693
14695TIP3   OH265499   4.972   5.480  16.601 -0.3177 -0.1459 -0.0436
14695TIP3    H165500   4.991   5.564  16.560  0.2851 -0.4342 -0.3604
14695TIP3    H265501   4.961   5.419  16.528  1.3320 -0.7881  0.2122
14696TIP3   OH265502   4.509   6.004  14.355  0.4440  0.2698 -0.2767
14696TIP3    H165503   4.433   6.010  14.413 -0.2733 -1.6009 -0.9679
14696TIP3    H265504   4.584   5.994  14.414 -0.1131 -0.2383  0.3505
14697TIP3   OH265505   5.614   5.963  12.268  0.2894 -0.4981 -0.3215
14697TIP3    H165506   5.539   5.923  12.226  0.0696 -1.0237  0.5528
14697TIP3    H265507   5.577   6.011  12.342  0.9458 -1.9501  0.9830
14698TIP3   OH265508   5.102   5.164   0.074  0.1777 -0.4157 -0.5917
14698TIP3    H165509   5.139   5.245   0.038 -0.8028  0.1383 -0.3720
14698TIP3    H265510   5.036   5.137   0.009  1.1090 -1.5118 -1.0910
14699TIP3   OH265511   3.109   3.953   3.514 -0.2019  0.6885  0.2818
14699TIP3    H165512   3.019   3.968   3.546 -1.0225 -1.1039 -1.1018
14699TIP3    H265513   3.104   3.972   3.420  0.5810 -0.4780 -0.0061
14700TIP3   OH265514   4.045   4.522  13.776  0.5279  0.1650 -0.1606
14700TIP3    H165515   4.070   4.472  13.854 -0.8142 -0.1980  0.0440
14700TIP3    H265516   3.971   4.475  13.739  1.0513  0.4335 -1.5867
14701TIP3   OH265517   6.556   6.756   5.027 -0.2009 -0.5683 -0.4675
14701TIP3    H165518   6.589   6.672   4.995 -0.5687 -0.9184  0.0666
14701TIP3    H265519   6.572   6.755   5.121  1.1942  0.6139 -0.6766
14702TIP3   OH265520   4.296   3.931   0.831  0.1234 -0.1525  0.5076
14702TIP3    H165521   4.244   4.006   0.801  2.6128  1.5444  0.2166
14702TIP3    H265522   4.232   3.863   0.849 -2.1815  1.8457  0.1831
14703TIP3   OH265523   1.078   6.624   2.269  0.0402  0.0425 -0.1656
14703TIP3    H165524   1.157   6.570   2.268  0.5105  0.7115  0.6049
14703TIP3    H265525   1.017   6.577   2.212  0.4721 -1.2566  0.4242
14704TIP3   OH265526   6.764   5.809   2.363  0.3168 -0.1792  0.1930
14704TIP3    H165527   6.714   5.734   2.395  0.0275  0.5368  1.4214
14704TIP3    H265528   6.698   5.876   2.345  0.6789  0.1573  0.1147
14705TIP3   OH265529   1.141   5.486  13.693  0.5228 -0.1326 -0.5400
14705TIP3    H165530   1.046   5.483  13.703  0.1939  1.1751 -2.9130
14705TIP3    H265531   1.158   5.437  13.613  1.7806  0.2315 -0.5118
14706TIP3   OH265532   4.181   0.076   5.360 -0.0574 -0.0927 -0.0039
14706TIP3    H165533   4.131   0.100   5.437  0.6980 -0.5455  0.6400
14706TIP3    H265534   4.272   0.075   5.390  0.3263  0.5345 -1.1004
14707TIP3   OH265535   6.391   3.514   2.839 -0.7951  0.1862  0.1376
14707TIP3    H165536   6.327   3.519   2.769 -1.9679  1.5423  1.2749
14707TIP3    H265537   6.430   3.602   2.842  1.9279 -0.9215 -1.2678
14708TIP3   OH265538   4.138   0.811  14.089 -0.3063 -0.1123 -0.0079
14708TIP3    H165539   4.139   0.731  14.037 -2.3117 -1.5301  2.0185
14708TIP3    H265540   4.046   0.838  14.089  0.0575  1.1470  0.8479
14709TIP3   OH265541   3.902   4.754  16.078 -0.3881  0.5534 -0.2042
14709TIP3    H165542   3.820   4.716  16.111 -0.6018 -0.0621 -1.4263
14709TIP3    H265543   3.903   4.733  15.985  0.3682  1.9955 -0.5448
14710TIP3   OH265544   5.736   3.203   2.932  0.4279  0.3681  0.5570
14710TIP3    H165545   5.780   3.281   2.968  1.5411 -0.4083  0.8886
14710TIP3    H265546   5.735   3.218   2.838  0.9200  0.6305  0.5921
14711TIP3   OH265547   2.535   2.013   6.002 -0.3226 -0.6088 -0.0930
14711TIP3    H165548   2.440   2.012   6.009 -0.2542  0.5769  1.2440
14711TIP3    H265549   2.557   2.107   6.000  0.7153 -0.8594 -1.9743
14712TIP3   OH265550   0.534   6.581  11.629 -0.2649  0.1330  0.2770
14712TIP3    H165551   0.501   6.491  11.622  2.5003 -0.9543  0.2690
14712TIP3    H265552   0.456   6.636  11.629 -2.1107 -2.3752  1.9449
14713TIP3   OH265553   2.202   6.298  14.047 -0.3211  0.1788 -0.2603
14713TIP3    H165554   2.202   6.388  14.080 -1.3385 -0.3717  1.2762
14713TIP3    H265555   2.176   6.245  14.122  2.5688 -1.6648 -0.4902
14714TIP3   OH265556   3.193   5.619  16.092 -0.0851 -0.3664  0.5717
14714TIP3    H165557   3.275   5.579  16.062  0.5002 -0.3180  2.0817
14714TIP3    H265558   3.148   5.550  16.140 -1.4458 -0.7119 -1.1430
14715TIP3   OH265559   4.126   4.890   6.379 -0.1880 -0.3962  0.1302
14715TIP3    H165560   4.132   4.872   6.473 -1.8268  0.1372  0.3485
14715TIP3    H265561   4.133   4.803   6.338 -2.4670 -1.0059  0.9157
14716TIP3   OH265562   6.777   4.713   2.954  0.2061  0.6250 -0.2443
14716TIP3    H165563   6.772   4.785   2.891  2.4008  2.4931  1.6606
14716TIP3    H265564   6.733   4.746   3.032  0.5630 -0.3876  0.3938
14717TIP3   OH265565   5.917   6.457  14.834  0.3504 -0.0440  0.1557
14717TIP3    H165566   5.905   6.362  14.840  2.9852 -0.5666 -1.9123
14717TIP3    H265567   5.839   6.488  14.787 -0.8689 -1.0500  1.4559
14718TIP3   OH265568   1.539   4.152  15.350  0.0080 -0.3662 -0.2119
14718TIP3    H165569   1.467   4.090  15.363  1.3934 -1.9381  0.1038
14718TIP3    H265570   1.526   4.218  15.419 -1.9794  0.2139 -1.0930
14719TIP3   OH265571   4.569   2.946   3.305  0.5838 -0.6057  0.0805
14719TIP3    H165572   4.655   2.904   3.311  0.4299 -0.5311  3.8850
14719TIP3    H265573   4.529   2.932   3.391 -2.2873  1.3656 -0.8507
14720TIP3   OH265574   2.006   2.959   3.392  0.1163 -0.7362  0.5695
14720TIP3    H165575   2.081   2.934   3.337  1.5413 -0.0378  2.1431
14720TIP3    H265576   2.043   3.020   3.456 -1.6729 -0.8953  1.7883
14721TIP3   OH265577   4.127   3.269  15.620 -0.2458 -0.3254  0.1826
14721TIP3    H165578   4.204   3.222  15.651 -1.0750 -1.5194  0.4494
14721TIP3    H265579   4.066   3.201  15.593 -1.1125  0.6160 -0.2726
14722TIP3   OH265580   3.221   3.110   1.189  0.1331 -0.2759  0.2645
14722TIP3    H165581   3.129   3.084   1.188 -0.1022  0.5789 -0.6837
14722TIP3    H265582   3.229   3.166   1.267 -0.3859  0.4878 -0.2237
14723TIP3   OH265583   4.582   2.172  13.490  0.1476 -0.2590  0.0137
14723TIP3    H165584   4.506   2.143  13.541  0.9785 -2.4164  0.1010
14723TIP3    H265585   4.582   2.267  13.497 -2.2315 -0.2704  0.4537
14724TIP3   OH265586   4.371   2.059   2.112 -0.2472 -0.2649 -0.4303
14724TIP3    H165587   4.449   2.053   2.057 -0.4568  0.6997 -0.8354
14724TIP3    H265588   4.302   2.019   2.059 -0.6979  1.6716 -1.3613
14725TIP3   OH265589   6.284   4.865   6.103  0.3268 -0.4516 -0.3843
14725TIP3    H165590   6.350   4.933   6.116 -1.2429  1.1721 -0.6970
14725TIP3    H265591   6.246   4.884   6.017 -2.0076 -0.0507  0.6821
14726TIP3   OH265592   3.703   5.844  11.520 -0.3730 -0.4987 -0.0344
14726TIP3    H165593   3.717   5.936  11.542 -0.2223 -0.3119 -0.8861
14726TIP3    H265594   3.782   5.819  11.472 -0.8988 -0.7543 -0.7737
14727TIP3   OH265595   4.088   1.981  14.249 -0.1744 -0.0302  0.4917
14727TIP3    H165596   4.048   1.900  14.281 -0.9592 -0.0147 -0.4011
14727TIP3    H265597   4.177   1.956  14.224 -0.4786 -0.6674  0.0234
14728TIP3   OH265598   1.716   6.165   3.888  0.4955  0.0068 -0.5180
14728TIP3    H165599   1.784   6.110   3.849  1.8189  1.1154  0.2068
14728TIP3    H265600   1.759   6.249   3.905 -0.8622  0.5003  0.5890
14729TIP3   OH265601   1.595   4.694   0.536 -0.1081  0.1128 -0.2583
14729TIP3    H165602   1.653   4.756   0.581 -1.2985  0.6070  0.6295
14729TIP3    H265603   1.508   4.713   0.571 -0.6342 -1.4181 -0.6982
14730TIP3   OH265604   2.393   2.210  15.550  0.3757  0.4027  0.0062
14730TIP3    H165605   2.364   2.172  15.467  0.4068  2.0089 -0.7585
14730TIP3    H265606   2.469   2.157  15.576  1.8217  1.3271 -2.2030
14731TIP3   OH265607   5.762   1.578   6.610 -0.6942  0.3419 -0.0284
14731TIP3    H165608   5.669   1.557   6.618 -0.6926  0.6384  0.7565
14731TIP3    H265609   5.791   1.525   6.536 -0.6431 -2.5973  1.9898
14732TIP3   OH265610   2.169   5.323  15.494 -0.1096  0.0866  0.0614
14732TIP3    H165611   2.160   5.376  15.415  1.1503  0.1593 -0.0556
14732TIP3    H265612   2.236   5.369  15.546 -0.9100  0.0280  1.1600
14733TIP3   OH265613   6.598   5.986  13.636  0.0226  0.0226  0.7441
14733TIP3    H165614   6.681   6.008  13.593 -0.7856  1.0904 -0.2945
14733TIP3    H265615   6.600   6.034  13.718  0.0304  0.7855  0.3014
14734TIP3   OH265616   5.417   0.332  10.554 -0.2799 -0.2729 -0.3762
14734TIP3    H165617   5.355   0.388  10.506  0.3074  0.6510 -0.0644
14734TIP3    H265618   5.502   0.374  10.540  0.1252 -0.9472  0.0824
14735TIP3   OH265619   1.768   0.586   2.844  0.1089 -0.2499  0.2772
14735TIP3    H165620   1.711   0.591   2.920  1.0191  0.5076  0.9235
14735TIP3    H265621   1.711   0.602   2.769 -0.4940  0.5956  0.9231
14736TIP3   OH265622   3.150   0.030  13.241  0.0264 -0.1489 -0.4826
14736TIP3    H165623   3.062   0.068  13.248  0.1008 -0.0536 -0.0081
14736TIP3    H265624   3.208   0.106  13.234  0.1794 -0.1583  0.5187
14737TIP3   OH265625   6.182   4.248   3.886 -0.1381  0.0227 -0.1060
14737TIP3    H165626   6.201   4.316   3.952 -2.0103  2.3815 -1.8736
14737TIP3    H265627   6.099   4.211   3.915 -1.9906  2.4240 -2.0527
14738TIP3   OH265628   1.753   4.652   5.516  0.1847  0.6277  0.0780
14738TIP3    H165629   1.773   4.565   5.552 -0.1294  0.6871  0.3992
14738TIP3    H265630   1.744   4.708   5.594 -3.4058  0.1600  0.0723
14739TIP3   OH265631   0.651   4.500  15.183  0.3496  0.2758 -0.0075
14739TIP3    H165632   0.646   4.595  15.172 -0.4980  0.0529 -1.6692
14739TIP3    H265633   0.561   4.473  15.203  0.5046 -0.2100  0.0415
14740TIP3   OH265634   1.334   1.556   2.939  0.7377  0.1959 -0.1264
14740TIP3    H165635   1.316   1.563   2.845  0.6109 -1.1009 -0.1994
14740TIP3    H265636   1.420   1.596   2.950  0.5903  0.6985 -0.7296
14741TIP3   OH265637   5.736   3.074  13.039 -0.1570  0.2894  0.5930
14741TIP3    H165638   5.818   3.084  13.087 -0.0880 -0.3439  0.6045
14741TIP3    H265639   5.747   2.993  12.989  0.0115  1.2520 -0.9517
14742TIP3   OH265640   6.764   1.944   4.219  0.6503  0.2677 -0.1446
14742TIP3    H165641   6.673   1.962   4.198  0.5754 -0.5679 -0.5496
14742TIP3    H265642   6.765   1.853   4.249  1.4646  0.0201 -0.8874
14743TIP3   OH265643   3.857   6.243   0.565  0.0077  0.2645 -0.5227
14743TIP3    H165644   3.916   6.288   0.504  0.6401 -0.4040 -0.4100
14743TIP3    H265645   3.791   6.309   0.587  0.3184  0.8084 -1.1828
14744TIP3   OH265646   1.680   1.611   5.145  1.0191  0.4166 -0.0606
14744TIP3    H165647   1.604   1.666   5.126 -0.2395 -1.4676 -0.6986
14744TIP3    H265648   1.709   1.639   5.231  0.3163  1.9581 -0.3083
14745TIP3   OH265649   3.696   2.762  12.011 -0.2330  0.1234 -0.5438
14745TIP3    H165650   3.616   2.751  11.960  0.6978 -2.6132 -1.5466
14745TIP3    H265651   3.754   2.814  11.954 -1.4859  2.6948  0.4630
14746TIP3   OH265652   5.086   2.532   5.025  0.0518  0.2092  0.3395
14746TIP3    H165653   5.026   2.458   5.034 -1.9327  1.6932 -0.2812
14746TIP3    H265654   5.089   2.571   5.113 -1.1730  1.0758  0.0079
14747TIP3   OH265655   3.550   4.170  12.279 -0.0300 -0.0250 -0.5148
14747TIP3    H165656   3.523   4.208  12.362 -2.8755 -2.0399 -0.4515
14747TIP3    H265657   3.587   4.243  12.230 -1.3512  1.8685  1.2421
14748TIP3   OH265658   2.651   5.321  13.458 -0.1702  0.6361  0.9163
14748TIP3    H165659   2.675   5.352  13.371  0.9842  1.0130  1.3570
14748TIP3    H265660   2.613   5.398  13.501 -3.1374 -0.1863 -0.0938
14749TIP3   OH265661   0.741   5.527  11.099 -0.1521 -0.7741  0.6470
14749TIP3    H165662   0.684   5.512  11.023 -1.0879  2.2360  0.6769
14749TIP3    H265663   0.829   5.505  11.068 -0.4466  0.9732 -1.5048
14750TIP3   OH265664   1.514   4.950  16.007  0.5057 -0.5209 -0.0326
14750TIP3    H165665   1.532   4.970  15.915  0.4159 -0.3553 -0.0152
14750TIP3    H265666   1.545   4.861  16.019  1.8314 -0.0409  0.1406
14751TIP3   OH265667   3.216   0.807  17.134  0.1481 -0.2087  0.3084
14751TIP3    H165668   3.172   0.867  17.074  2.1260  0.6273 -0.3474
14751TIP3    H265669   3.227   0.726  17.084  0.3421 -0.0523  0.0983
14752TIP3   OH265670   4.513   6.173  11.593 -0.6323 -0.1343 -0.6521
14752TIP3    H165671   4.523   6.124  11.511 -0.1453  0.9055 -1.2267
14752TIP3    H265672   4.552   6.116  11.660 -0.0349 -0.5230 -1.3236
14753TIP3   OH265673   3.194   5.445  11.786 -0.2761  0.1948 -0.3008
14753TIP3    H165674   3.232   5.481  11.706  1.0409  2.6563  1.3773
14753TIP3    H265675   3.123   5.505  11.808  0.9180  0.9476  1.6575
14754TIP3   OH265676   3.978   4.117  15.538  0.7796 -0.3916  0.0550
14754TIP3    H165677   3.943   4.099  15.625 -0.6500 -0.0339 -0.4345
14754TIP3    H265678   4.014   4.206  15.545 -0.2000  0.0115  0.0237
14755TIP3   OH265679   0.263   5.927   4.003 -0.0596 -0.1436 -0.1382
14755TIP3    H165680   0.290   5.922   4.095  0.5682 -0.3444 -0.3302
14755TIP3    H265681   0.330   5.983   3.962  1.0676 -2.0684 -0.9874
14756TIP3   OH265682   6.297   0.581  13.466 -0.2911 -0.0299  0.0509
14756TIP3    H165683   6.212   0.624  13.478  0.2577  0.9286  0.6052
14756TIP3    H265684   6.357   0.631  13.522  0.3381 -1.6134  0.8055
14757TIP3   OH265685   3.715   1.886   2.115  0.3494 -0.2017  0.4731
14757TIP3    H165686   3.680   1.797   2.127 -2.5629  0.9695  1.0725
14757TIP3    H265687   3.662   1.924   2.046  1.9790  0.9038 -0.2025
14758TIP3   OH265688   6.428   4.505  11.840 -0.1010  0.5322 -0.1201
14758TIP3    H165689   6.360   4.455  11.886 -0.9247  0.5105 -1.3485
14758TIP3    H265690   6.380   4.568  11.787  0.8996  1.7190  0.3637
14759TIP3   OH265691   0.110   5.588   5.358 -0.0380 -0.2122 -0.3723
14759TIP3    H165692   0.097   5.612   5.266  0.6058 -0.0121 -0.4106
14759TIP3    H265693   0.078   5.663   5.408 -0.7452 -0.4756 -0.4204
14760TIP3   OH265694   3.204   2.869  16.936 -0.1275  0.3328 -0.1933
14760TIP3    H165695   3.175   2.780  16.955 -0.7932  0.0894 -2.2239
14760TIP3    H265696   3.150   2.897  16.862  2.1292  1.3244 -1.5348
14761TIP3   OH265697   0.725   6.286   2.480  0.3685 -0.5404 -0.1895
14761TIP3    H165698   0.632   6.285   2.457  0.4069 -0.2593 -0.3618
14761TIP3    H265699   0.726   6.279   2.576  0.0738  2.1374  0.0486
14762TIP3   OH265700   1.477   4.560  13.435 -0.3261  0.2340  0.5771
14762TIP3    H165701   1.565   4.525  13.428 -0.0923  0.9899 -0.3947
14762TIP3    H265702   1.459   4.599  13.349 -0.8334  1.8810  1.3965
14763TIP3   OH265703   5.019   6.201  11.817  0.0529  0.2386 -0.0258
14763TIP3    H165704   5.070   6.255  11.756 -0.2390  1.5889  0.8954
14763TIP3    H265705   4.953   6.159  11.762  1.0740 -0.1667 -0.9580
14764TIP3   OH265706   4.509   3.829   5.290  0.0281 -0.2576 -0.5082
14764TIP3    H165707   4.478   3.871   5.370  0.1540 -1.2677  0.0686
14764TIP3    H265708   4.491   3.736   5.302  0.7694 -0.5177 -1.3198
14765TIP3   OH265709   0.811   5.594   1.256 -0.1322  0.2134  0.2348
14765TIP3    H165710   0.853   5.519   1.300 -0.9601 -1.1518 -1.2660
14765TIP3    H265711   0.719   5.569   1.248 -0.3674  1.2923 -0.4982
14766TIP3   OH265712   6.211   3.890  16.339  0.7620 -0.2096 -0.2021
14766TIP3    H165713   6.234   3.861  16.251 -3.6919 -1.1689 -1.1641
14766TIP3    H265714   6.230   3.984  16.339 -0.2961  0.0417 -2.6360
14767TIP3   OH265715   0.085   3.039   5.921 -0.1321 -0.6118  0.8293
14767TIP3    H165716   0.156   3.098   5.947 -0.8918  0.9114 -0.4577
14767TIP3    H265717   0.102   3.023   5.828 -2.8243  1.7591 -0.1386
14768TIP3   OH265718   3.228   2.604   3.826  0.4028  0.7822  0.0730
14768TIP3    H165719   3.303   2.549   3.803  0.5864  0.5388  1.2330
14768TIP3    H265720   3.215   2.589   3.920 -0.4321  1.6380  0.0984
14769TIP3   OH265721   5.629   5.548   4.187 -0.4737  0.0143 -0.3257
14769TIP3    H165722   5.539   5.516   4.190 -0.5991  0.3249 -0.7862
14769TIP3    H265723   5.622   5.642   4.169 -0.0155 -0.2894 -2.2285
14770TIP3   OH265724   0.988   0.121  14.990 -0.6872 -0.0758 -0.1398
14770TIP3    H165725   0.986   0.049  14.926  1.9025 -0.6283  0.3695
14770TIP3    H265726   0.943   0.193  14.946 -0.9497 -1.1528 -1.6903
14771TIP3   OH265727   2.334   2.405   4.888  0.1709 -0.6093  0.2473
14771TIP3    H165728   2.398   2.422   4.819 -0.0996 -2.4724 -0.4985
14771TIP3    H265729   2.270   2.477   4.881  1.8282  0.9333  0.6227
14772TIP3   OH265730   3.952   1.259  16.877  0.3174 -0.0363 -0.5430
14772TIP3    H165731   4.026   1.256  16.938  1.1236  1.8575 -1.3797
14772TIP3    H265732   3.992   1.260  16.791 -0.6245  2.3405 -0.9821
14773TIP3   OH265733   6.727   4.771  12.124  0.3719  0.2505 -0.1746
14773TIP3    H165734   6.696   4.848  12.077  1.2770  0.3870 -0.5724
14773TIP3    H265735   6.649   4.718  12.139 -0.2760  1.2899  0.1860
14774TIP3   OH265736   2.280   6.413   2.258  0.2251  0.9826 -0.3508
14774TIP3    H165737   2.229   6.380   2.184 -2.9286  3.0084  0.8559
14774TIP3    H265738   2.370   6.413   2.226 -0.3080 -3.3733 -2.2899
14775TIP3   OH265739   3.379   6.346  16.651 -0.0131  0.5722 -0.3095
14775TIP3    H165740   3.332   6.375  16.729  0.8785 -2.2088  1.3323
14775TIP3    H265741   3.430   6.422  16.623  0.1225  1.4395  2.1749
14776TIP3   OH265742   3.944   6.745  14.570  0.0421 -0.0695  0.2152
14776TIP3    H165743   3.877   6.684  14.541 -0.3700  0.5903 -0.2425
14776TIP3    H265744   4.026   6.709  14.536  0.2163 -2.0234  2.5942
14777TIP3   OH265745   1.679   4.652  14.732  0.1065 -0.2403 -0.1552
14777TIP3    H165746   1.770   4.677  14.749 -0.0063  1.7778 -2.2699
14777TIP3    H265747   1.685   4.566  14.688  0.8573 -1.0025  1.4038
14778TIP3   OH265748   6.542   6.454  16.337  0.0471  0.4429 -0.2614
14778TIP3    H165749   6.451   6.470  16.310  0.8772  2.1687 -2.1998
14778TIP3    H265750   6.574   6.389  16.275  0.2840  0.2017  0.1106
14779TIP3   OH265751   3.191   2.672  13.506  0.5925 -0.2361  0.0345
14779TIP3    H165752   3.208   2.738  13.439  0.5270 -0.8938 -0.6344
14779TIP3    H265753   3.131   2.715  13.567  2.1208  1.0022  0.6928
14780TIP3   OH265754   2.150   1.944   1.304  0.1919 -0.1033 -0.0907
14780TIP3    H165755   2.216   2.007   1.278  2.4163 -2.8425 -1.3172
14780TIP3    H265756   2.082   1.950   1.237 -0.1462  1.7145  0.3991
14781TIP3   OH265757   4.643   4.642  15.926 -0.1346  0.2811 -0.1856
14781TIP3    H165758   4.637   4.725  15.971  2.0661  0.5010 -0.2299
14781TIP3    H265759   4.588   4.652  15.848  0.8631  2.0361 -0.6816
14782TIP3   OH265760   1.395   2.919  16.616 -0.2650 -0.2714  0.6017
14782TIP3    H165761   1.391   3.006  16.657 -0.8536  0.7206 -1.4666
14782TIP3    H265762   1.316   2.875  16.646 -1.3509  0.9149 -0.4157
14783TIP3   OH265763   1.670   1.946  13.042 -0.0579  0.0828 -0.4449
14783TIP3    H165764   1.619   1.872  13.009  0.0492  0.2068 -0.8997
14783TIP3    H265765   1.649   1.950  13.135  0.4940 -0.9721 -0.2688
14784TIP3   OH265766   4.198   4.636  14.941  0.2889  0.3776  0.2678
14784TIP3    H165767   4.291   4.618  14.922  0.1209 -0.0455 -0.1671
14784TIP3    H265768   4.169   4.692  14.869  0.1753  0.4194  0.3448
14785TIP3   OH265769   0.535   1.286  14.994  0.3287 -0.0260  0.1484
14785TIP3    H165770   0.562   1.377  14.983 -0.9852  0.3251 -0.2944
14785TIP3    H265771   0.588   1.238  14.931  0.7271  0.4988  0.0806
14786TIP3   OH265772   6.187   4.718  10.936 -0.2435  0.2104 -0.1871
14786TIP3    H165773   6.215   4.693  10.848 -1.5412 -0.0596 -0.5260
14786TIP3    H265774   6.141   4.801  10.924 -0.6432  0.0464  0.1925
14787TIP3   OH265775   6.076   1.930   4.921  0.0464 -0.3593  0.0415
14787TIP3    H165776   6.148   1.949   4.981 -0.4711  0.5126  0.3992
14787TIP3    H265777   6.036   2.015   4.903 -0.5521 -0.7657 -0.5902
14788TIP3   OH265778   1.492   0.816  14.160 -0.2418  0.2138 -0.1194
14788TIP3    H165779   1.431   0.765  14.212 -0.4330  0.0509 -0.5024
14788TIP3    H265780   1.557   0.848  14.223 -0.4667  0.0114  0.2146
14789TIP3   OH265781   0.058   4.139  14.094 -0.2561 -0.6345 -0.2129
14789TIP3    H165782  -0.010   4.204  14.078  0.1057 -0.5326 -1.3526
14789TIP3    H265783   0.132   4.168  14.041 -0.0482 -1.9156 -0.6343
14790TIP3   OH265784   6.492   4.647  15.240 -0.2113  0.4853 -0.1981
14790TIP3    H165785   6.580   4.668  15.269 -0.7926  1.1951  1.1121
14790TIP3    H265786   6.499   4.635  15.145  1.5878 -1.1072  0.1332
14791TIP3   OH265787   1.045   6.213  10.548 -0.0611 -0.0246  0.8944
14791TIP3    H165788   1.058   6.297  10.504 -1.6150  0.8166  1.9511
14791TIP3    H265789   1.133   6.181  10.566  0.5682  0.5991 -0.9719
14792TIP3   OH265790   2.111   1.532   4.875 -0.7950 -0.1241  0.3422
14792TIP3    H165791   2.084   1.492   4.792 -1.0367 -1.3091  0.9924
14792TIP3    H265792   2.147   1.617   4.849 -1.2406 -0.3135 -0.9413
14793TIP3   OH265793   5.044   4.169  12.184  0.4788  0.5938 -0.0015
14793TIP3    H165794   5.003   4.110  12.121 -0.8208  1.3321  0.1441
14793TIP3    H265795   4.975   4.191  12.246  1.7551 -0.1833  1.7684
14794TIP3   OH265796   1.447   4.771   4.003 -0.6405 -0.0405 -0.1180
14794TIP3    H165797   1.392   4.780   3.926 -0.4050 -2.2443 -0.5937
14794TIP3    H265798   1.437   4.854   4.050 -2.9822  0.2793 -1.0870
14795TIP3   OH265799   0.531   3.367  11.500  0.8018  0.4390  0.5404
14795TIP3    H165800   0.601   3.302  11.493  0.5965  0.2612  0.1302
14795TIP3    H265801   0.558   3.437  11.440  1.8158  1.4699  2.1597
14796TIP3   OH265802   5.229   3.032  16.583 -0.2433  0.1680 -0.1252
14796TIP3    H165803   5.283   2.967  16.627 -0.7221 -1.4557 -1.9202
14796TIP3    H265804   5.185   3.079  16.655  1.8172  0.0400  1.2466
14797TIP3   OH265805   2.714   4.889   3.014  0.2164 -0.3521  0.1856
14797TIP3    H165806   2.744   4.905   2.924  0.2044 -2.5052 -0.2151
14797TIP3    H265807   2.624   4.857   3.005  1.3681 -3.9723  0.6706
14798TIP3   OH265808   1.949   2.917  12.755 -0.2465  0.0261  0.0275
14798TIP3    H165809   1.956   2.947  12.846 -0.0355  0.1019 -0.0129
14798TIP3    H265810   1.855   2.901  12.742 -0.3116  0.2872  0.1733
14799TIP3   OH265811   3.592   5.802  12.151  0.0926  0.3686 -0.1979
14799TIP3    H165812   3.562   5.720  12.189  0.4136 -0.0857 -0.9270
14799TIP3    H265813   3.536   5.815  12.074 -0.9708  1.5995  0.7480
14800TIP3   OH265814   3.571   1.561  17.074  0.5726 -0.5850 -0.0424
14800TIP3    H165815   3.633   1.627  17.106 -1.7021  1.9253 -0.5736
14800TIP3    H265816   3.610   1.529  16.992  1.3640  0.7034 -0.1777
14801TIP3   OH265817   6.523   2.632   3.318  0.3977  0.0175 -0.1711
14801TIP3    H165818   6.465   2.557   3.330  0.6329 -0.2720 -0.8013
14801TIP3    H265819   6.463   2.706   3.305  0.1653  0.0035  0.7795
14802TIP3   OH265820   3.401   1.558  13.927  0.3103 -0.3523 -0.4423
14802TIP3    H165821   3.426   1.539  14.017  0.1008  0.9352 -0.1016
14802TIP3    H265822   3.367   1.648  13.930 -1.1593 -0.8496 -1.5125
14803TIP3   OH265823   2.103   0.309  14.309 -0.2796 -0.2789 -0.3281
14803TIP3    H165824   2.098   0.292  14.214 -1.3421  0.2350 -0.3705
14803TIP3    H265825   2.099   0.222  14.348  1.7588 -0.6138 -0.7967
14804TIP3   OH265826   4.880   5.465   0.155 -0.3541  0.4295 -0.4659
14804TIP3    H165827   4.958   5.510   0.188 -0.6581  1.2216 -0.8265
14804TIP3    H265828   4.911   5.377   0.133 -0.2471 -0.3493  2.5080
14805TIP3   OH265829   4.337   3.018   4.598 -0.7357  0.5237 -0.0845
14805TIP3    H165830   4.306   3.070   4.523 -1.2754 -0.7521 -0.7733
14805TIP3    H265831   4.360   3.082   4.664 -1.1913  1.6481 -1.0000
14806TIP3   OH265832   1.520   5.403  12.506 -0.3691  0.1553  0.1919
14806TIP3    H165833   1.608   5.408  12.544  0.5608 -1.4392 -1.6523
14806TIP3    H265834   1.514   5.478  12.448 -0.1936  0.2161  0.2533
14807TIP3   OH265835   4.873   1.214  15.252  0.2402  0.3811 -0.2912
14807TIP3    H165836   4.961   1.251  15.251 -0.3760  1.9065  0.0600
14807TIP3    H265837   4.834   1.241  15.169 -0.2498  0.6240  0.0109
14808TIP3   OH265838   6.465   2.672  12.857 -0.4156 -0.2231 -0.2163
14808TIP3    H165839   6.427   2.713  12.780 -1.6508  0.6170  0.8221
14808TIP3    H265840   6.398   2.611  12.887 -0.6365  0.6441  1.1218
14809TIP3   OH265841   5.509   1.419  10.475 -0.0467  0.5868  0.1921
14809TIP3    H165842   5.507   1.505  10.433  0.1550  1.3000  1.6477
14809TIP3    H265843   5.601   1.392  10.471 -0.4296 -0.5718 -2.2447
14810TIP3   OH265844   4.117   6.226  14.345  0.1823  0.1837  0.0833
14810TIP3    H165845   4.070   6.277  14.411  0.4113 -0.3309  0.6540
14810TIP3    H265846   4.084   6.137  14.357  1.2728 -0.1789  0.4753
14811TIP3   OH265847   4.690   5.612  11.547 -0.0879  0.3452 -0.3161
14811TIP3    H165848   4.760   5.630  11.485  1.0910 -0.2320  0.8306
14811TIP3    H265849   4.613   5.657  11.511  0.7132  0.4732 -1.8904
14812TIP3   OH265850   5.248   1.659   3.884  0.1782  0.2710  0.0187
14812TIP3    H165851   5.339   1.634   3.900  0.7370  0.2690 -2.8918
14812TIP3    H265852   5.248   1.694   3.795 -2.8883 -0.8607 -0.4837
14813TIP3   OH265853   1.755   3.964   2.706  0.2917 -0.3159 -0.2234
14813TIP3    H165854   1.700   3.912   2.764  0.3387 -0.7523 -0.5679
14813TIP3    H265855   1.818   3.902   2.670 -0.6910 -0.3605 -1.9159
14814TIP3   OH265856   0.015   2.143  15.243 -0.1673 -0.0457  0.2760
14814TIP3    H165857   0.039   2.128  15.151 -0.9107  1.2922 -0.1518
14814TIP3    H265858   0.077   2.090  15.293 -0.1333 -1.2460 -1.0242
14815TIP3   OH265859   0.503   1.007   0.700 -0.2450 -0.0890 -0.3017
14815TIP3    H165860   0.491   0.949   0.625 -1.3391 -0.1508 -0.0873
14815TIP3    H265861   0.419   1.003   0.747 -0.1972  1.3736 -0.0845
14816TIP3   OH265862   5.994   2.161   4.605 -0.2944  0.5464  0.4379
14816TIP3    H165863   5.968   2.157   4.697 -0.5905 -0.0316  0.3320
14816TIP3    H265864   5.935   2.225   4.566 -0.1585  0.8026  0.6516
14817TIP3   OH265865   2.881   0.157  13.169  0.0281 -0.5563  0.2894
14817TIP3    H165866   2.812   0.170  13.104  0.2604 -0.0753  0.1368
14817TIP3    H265867   2.834   0.141  13.251 -0.2843 -2.9341 -0.3129
14818TIP3   OH265868   1.966   5.591  16.864  0.2811 -0.0783 -0.3362
14818TIP3    H165869   1.894   5.617  16.923 -0.0183 -1.3385 -0.1302
14818TIP3    H265870   1.968   5.660  16.798 -0.0054  0.8614  0.6165
14819TIP3   OH265871   6.491   5.210   2.470  0.4857 -0.1200 -0.0645
14819TIP3    H165872   6.579   5.173   2.474 -0.0798 -1.3024  2.0045
14819TIP3    H265873   6.450   5.166   2.396  1.2734 -0.3239 -0.3903
14820TIP3   OH265874   3.787   1.711   2.881 -0.4453 -0.8548  0.1580
14820TIP3    H165875   3.825   1.799   2.887 -4.2535  0.9285 -0.2734
14820TIP3    H265876   3.795   1.687   2.789 -2.8033  0.7082 -0.4854
14821TIP3   OH265877   6.221   5.484   3.524 -0.1766 -0.1720 -0.1017
14821TIP3    H165878   6.156   5.519   3.586 -0.4990 -0.0484 -0.5044
14821TIP3    H265879   6.274   5.560   3.501  0.8359 -0.5029  1.1022
14822TIP3   OH265880   3.064   0.152  16.908 -0.2444 -0.1038  0.3327
14822TIP3    H165881   3.036   0.074  16.956 -0.8640  0.7926  1.4210
14822TIP3    H265882   3.062   0.124  16.816  1.0247 -1.8419  0.7974
14823TIP3   OH265883   5.124   0.410   5.771 -0.1659 -0.2648 -0.3022
14823TIP3    H165884   5.037   0.382   5.743  0.1635 -0.5887 -1.0256
14823TIP3    H265885   5.171   0.424   5.689  0.6030 -0.5257  0.0934
14824TIP3   OH265886   1.225   0.746   5.254 -0.3472 -0.6509  0.3144
14824TIP3    H165887   1.317   0.730   5.231 -0.0006 -0.0515  1.2449
14824TIP3    H265888   1.227   0.824   5.308 -1.4321 -0.5536  0.2286
14825TIP3   OH265889   1.600   4.448  15.944  0.2133 -0.0699 -0.4648
14825TIP3    H165890   1.694   4.451  15.928 -0.0891  0.9203 -2.1385
14825TIP3    H265891   1.566   4.387  15.878 -0.2151 -1.1331  0.7175
14826TIP3   OH265892   5.231   2.992   4.971  0.5624 -0.1393 -0.9203
14826TIP3    H165893   5.207   2.902   4.952  2.3348 -0.7068 -0.5380
14826TIP3    H265894   5.275   3.023   4.892  0.9393  0.0288 -0.6463
14827TIP3   OH265895   3.791   5.400  15.188  0.2019  0.5352 -0.2212
14827TIP3    H165896   3.826   5.485  15.213  1.2230  0.5828 -1.7669
14827TIP3    H265897   3.837   5.337  15.244  0.8726  0.8256 -0.4432
14828TIP3   OH265898   3.556   0.048  15.117 -1.0488  0.4413  0.4437
14828TIP3    H165899   3.554  -0.001  15.035 -1.0212  2.0692 -0.5607
14828TIP3    H265900   3.553   0.140  15.090 -0.9034  1.0055  2.2644
14829TIP3   OH265901   5.881   4.418   2.902  0.6532  0.0844  0.1799
14829TIP3    H165902   5.878   4.487   2.835 -1.3222  0.3541  0.5305
14829TIP3    H265903   5.903   4.339   2.853  0.8043  0.5686 -0.5457
14830TIP3   OH265904   5.696   2.627  14.140  0.1841 -0.1803  0.1265
14830TIP3    H165905   5.600   2.629  14.150  0.3749  0.2674  2.1522
14830TIP3    H265906   5.724   2.714  14.169  1.1675 -0.0993 -1.0604
14831TIP3   OH265907   6.349   0.890  12.885  0.0530 -0.9464 -0.0695
14831TIP3    H165908   6.356   0.795  12.897  0.1708 -0.7199  1.7941
14831TIP3    H265909   6.379   0.927  12.969 -0.1997  0.7261 -0.7009
14832TIP3   OH265910   1.333   4.434  14.147  0.3008 -0.0486 -0.0547
14832TIP3    H165911   1.276   4.357  14.146  0.9008 -0.4901  0.1153
14832TIP3    H265912   1.345   4.456  14.055  0.0782 -0.1145 -0.0997
14833TIP3   OH265913   4.541   5.284   2.040  0.1614 -0.1571  0.4329
14833TIP3    H165914   4.519   5.191   2.033  2.0280 -0.5949  0.2907
14833TIP3    H265915   4.632   5.290   2.013 -0.4795  2.0187 -1.4222
14834TIP3   OH265916   4.627   3.675  11.161 -0.4743 -0.7553  0.2886
14834TIP3    H165917   4.661   3.587  11.178  0.1697 -0.5193  0.2118
14834TIP3    H265918   4.677   3.707  11.086 -0.6580 -0.2941  0.3606
14835TIP3   OH265919   3.681   3.881   2.307 -0.2198  0.5605 -0.1800
14835TIP3    H165920   3.742   3.869   2.380 -0.3421 -0.9885 -0.3299
14835TIP3    H265921   3.597   3.851   2.341 -0.8552  2.3224 -0.1047
14836TIP3   OH265922   4.633   2.943  12.816  0.5996 -0.0831  0.4520
14836TIP3    H165923   4.615   2.850  12.802 -0.9220  0.4407 -1.2651
14836TIP3    H265924   4.560   2.974  12.869  1.0683  0.1684  0.9591
14837TIP3   OH265925   3.556   6.222  16.903 -0.0671  0.1653 -0.1216
14837TIP3    H165926   3.544   6.301  16.956  0.1266  0.6758 -0.8246
14837TIP3    H265927   3.468   6.186  16.893  0.0070 -0.4313  1.2961
14838TIP3   OH265928   1.117   2.493  14.226 -0.5715  0.4213  0.1002
14838TIP3    H165929   1.040   2.538  14.192 -1.7982  0.4098  2.7567
14838TIP3    H265930   1.106   2.402  14.199 -0.8177  0.6823 -0.6675
14839TIP3   OH265931   3.629   2.880   4.331 -0.1956  0.1834 -0.1543
14839TIP3    H165932   3.638   2.833   4.249 -0.4255  0.7093 -0.4825
14839TIP3    H265933   3.535   2.895   4.341 -0.2579 -0.7298  0.6885
14840TIP3   OH265934   0.437   4.969   5.335 -0.0940  1.2868 -0.4452
14840TIP3    H165935   0.529   4.944   5.323 -0.0073  0.1537  2.3406
14840TIP3    H265936   0.403   4.907   5.400 -2.9783  1.3887 -1.7909
14841TIP3   OH265937   1.241   0.312   5.214  0.1879  0.2547 -0.2905
14841TIP3    H165938   1.220   0.218   5.210  2.6520 -0.4331  1.7038
14841TIP3    H265939   1.228   0.335   5.306 -0.6585  1.9534 -0.8186
14842TIP3   OH265940   4.088   5.511  17.188 -0.0985  0.2473 -0.0794
14842TIP3    H165941   4.177   5.478  17.202  0.1866  0.6445 -0.8900
14842TIP3    H265942   4.099   5.582  17.125 -1.1173 -0.4032 -1.0007
14843TIP3   OH265943   1.135   4.644   2.148  0.0031  0.3166  0.0855
14843TIP3    H165944   1.173   4.692   2.221 -0.0403  1.5391 -0.6732
14843TIP3    H265945   1.042   4.670   2.148 -0.3009 -0.7658  0.4515
14844TIP3   OH265946   0.297   5.774   2.737 -0.0287 -0.6113  0.5252
14844TIP3    H165947   0.225   5.808   2.684  0.0747 -1.0783  0.0797
14844TIP3    H265948   0.264   5.775   2.827 -0.8429 -1.4757  0.2369
14845TIP3   OH265949   6.246   0.927  13.568  0.4408 -0.3665 -0.3034
14845TIP3    H165950   6.231   0.846  13.616 -0.8680 -0.3114 -0.5984
14845TIP3    H265951   6.162   0.974  13.573  1.3212  1.1720  0.2522
14846TIP3   OH265952   2.690   5.191   5.757 -0.0722 -0.0606 -0.3508
14846TIP3    H165953   2.751   5.179   5.684  1.3506  1.3738  0.5700
14846TIP3    H265954   2.663   5.102   5.780  3.1831 -0.9129  0.4581
14847TIP3   OH265955   0.080   2.150  11.745 -0.2401  1.0919 -0.3101
14847TIP3    H165956   0.063   2.195  11.663  1.6611  0.1953 -1.2179
14847TIP3    H265957   0.161   2.188  11.778 -1.0294  1.5138  1.2235
14848TIP3   OH265958   2.842   5.480   2.277 -0.4499 -0.3760  0.1136
14848TIP3    H165959   2.871   5.523   2.197 -0.3638  0.2537  0.4809
14848TIP3    H265960   2.921   5.472   2.331 -0.7155  0.2090  0.5936
14849TIP3   OH265961   1.671   6.689  11.724 -0.2365  0.1390 -0.1796
14849TIP3    H165962   1.692   6.598  11.702  0.2643  0.1575  0.2022
14849TIP3    H265963   1.743   6.740  11.687 -0.3962  0.3530 -0.1918
14850TIP3   OH265964   6.541   2.593  15.170 -0.7539 -0.0468 -0.2006
14850TIP3    H165965   6.448   2.591  15.146 -1.2252 -0.4636  1.5793
14850TIP3    H265966   6.540   2.608  15.265  0.9868 -0.8811 -0.0541
14851TIP3   OH265967   4.465   4.475   0.011  0.1149 -0.0569 -0.3347
14851TIP3    H165968   4.456   4.562  -0.027  0.3854  0.2381  0.2740
14851TIP3    H265969   4.387   4.464   0.066  1.1698  0.6929  1.3435
14852TIP3   OH265970   1.661   5.706   1.101 -0.0760 -0.2860  0.3389
14852TIP3    H165971   1.571   5.677   1.088 -0.2426  0.7228 -0.9223
14852TIP3    H265972   1.712   5.655   1.039  0.0159  0.1428  0.0585
14853TIP3   OH265973   6.278   1.997  14.433 -0.2002  0.0185  0.3100
14853TIP3    H165974   6.193   2.035  14.411  0.0395  0.7256  0.5621
14853TIP3    H265975   6.262   1.903  14.440 -1.0345  0.1831  0.6978
14854TIP3   OH265976   1.257   6.323  13.951 -0.3757  0.4084  0.0902
14854TIP3    H165977   1.313   6.260  13.904  1.9245  2.0976  0.4435
14854TIP3    H265978   1.283   6.314  14.042 -0.7937  1.0893  0.2734
14855TIP3   OH265979   4.019   3.005   4.396  0.3305 -0.2691  0.5420
14855TIP3    H165980   3.984   3.005   4.485 -0.1646  0.1062  0.3451
14855TIP3    H265981   4.012   2.914   4.367 -2.2333  0.1429 -0.1928
14856TIP3   OH265982   2.381   5.096   1.328 -0.5533  0.2763  0.3928
14856TIP3    H165983   2.357   5.012   1.289 -0.7519 -0.3756  1.9015
14856TIP3    H265984   2.421   5.074   1.411 -1.3431  1.7199  1.1810
14857TIP3   OH265985   3.137   5.086  12.794  0.1945  0.2222  0.1212
14857TIP3    H165986   3.210   5.027  12.779 -1.4320 -1.7707 -0.1934
14857TIP3    H265987   3.133   5.141  12.716  0.5271 -0.5777 -0.4640
14858TIP3   OH265988   3.630   1.812  13.488 -0.1658 -0.4755 -0.3605
14858TIP3    H165989   3.649   1.874  13.418  0.0596 -1.3448 -1.0812
14858TIP3    H265990   3.544   1.777  13.467 -0.1838 -0.5917 -0.1009
14859TIP3   OH265991   3.883   3.915  11.282 -0.3977  0.6130  0.2969
14859TIP3    H165992   3.925   3.932  11.199 -0.9977  0.9090  0.0520
14859TIP3    H265993   3.952   3.878  11.337  0.4572  2.1284  0.2618
14860TIP3   OH265994   6.151   3.512   5.252  0.4388 -0.0618  0.4771
14860TIP3    H165995   6.057   3.524   5.267 -0.4674  2.0547 -5.3057
14860TIP3    H265996   6.186   3.601   5.246  2.3478 -0.7999  0.4134
14861TIP3   OH265997   2.172   3.693   2.703  0.4574  0.3287 -0.7272
14861TIP3    H165998   2.093   3.690   2.756  1.0247 -0.9542  0.0612
14861TIP3    H265999   2.177   3.607   2.661  3.0060 -0.7543  1.5987
14862TIP3   OH266000   1.757   3.915   4.477  0.1363  0.1496 -0.1605
14862TIP3    H166001   1.710   3.945   4.400 -0.6920  0.8638  0.6137
14862TIP3    H266002   1.801   3.835   4.448 -2.0055 -0.8595 -0.7563
14863TIP3   OH266003   4.133   4.160   3.172  0.1071  0.1421 -0.0636
14863TIP3    H166004   4.066   4.095   3.190 -0.0911  0.3270 -0.1240
14863TIP3    H266005   4.166   4.186   3.258 -1.2392  1.4407  0.0790
14864TIP3   OH266006   4.075   2.321  13.565  0.8551  0.0376 -0.0166
14864TIP3    H166007   4.068   2.381  13.491  2.6491  2.1333  1.4728
14864TIP3    H266008   4.169   2.305  13.575  0.5429 -1.3308  0.9342
14865TIP3   OH266009   1.436   2.186  12.618 -0.6840 -0.0769 -0.2671
14865TIP3    H166010   1.473   2.144  12.540  0.6202 -0.9128  0.7864
14865TIP3    H266011   1.474   2.273  12.619 -0.9197  0.0310 -0.7196
14866TIP3   OH266012   5.169   2.521   3.202  0.0999  0.2806 -0.9171
14866TIP3    H166013   5.120   2.565   3.132 -0.0130  2.0260  0.2237
14866TIP3    H266014   5.252   2.567   3.205  0.3247 -0.1672 -0.2920
14867TIP3   OH266015   2.700   2.400  13.546  0.3418 -0.2603  0.4770
14867TIP3    H166016   2.766   2.424  13.481 -0.8244  0.4054 -0.4604
14867TIP3    H266017   2.731   2.440  13.628  1.3354 -0.3436  0.1452
14868TIP3   OH266018   4.604   2.863   4.740 -0.0193 -0.1788  0.4843
14868TIP3    H166019   4.632   2.939   4.689  0.3948  0.9839  2.4272
14868TIP3    H266020   4.676   2.800   4.729 -0.3405 -0.2901 -1.0801
14869TIP3   OH266021   6.372   3.856  16.741  0.3756 -0.9456 -0.4422
14869TIP3    H166022   6.304   3.821  16.799  1.4708 -0.1879  1.3325
14869TIP3    H266023   6.323   3.901  16.672 -0.9322 -0.3803  0.8280
14870TIP3   OH266024   3.346   3.758  13.127  0.1939 -0.2402 -0.0440
14870TIP3    H166025   3.270   3.740  13.072  0.2826 -2.0841  0.4015
14870TIP3    H266026   3.418   3.772  13.065 -0.0566 -0.6531 -0.4297
14871TIP3   OH266027   3.654   2.705   1.385 -0.6276  0.2452  0.0215
14871TIP3    H166028   3.703   2.674   1.310  1.4569  0.8997  1.0902
14871TIP3    H266029   3.648   2.799   1.374 -0.1745  0.3646  0.7581
14872TIP3   OH266030   1.494   5.878   1.429  0.0182  0.2674  0.5854
14872TIP3    H166031   1.511   5.875   1.523  0.5611 -1.1467  0.4559
14872TIP3    H266032   1.417   5.822   1.417  1.5838 -1.7531 -0.1459
14873TIP3   OH266033   6.714   2.618  14.370  0.0084 -0.2079  0.1046
14873TIP3    H166034   6.796   2.645  14.410  0.3094 -1.2535  0.1880
14873TIP3    H266035   6.733   2.535  14.326 -1.2518 -1.0179  1.0388
14874TIP3   OH266036   4.446   4.748   4.194  0.3900  0.5696  0.3038
14874TIP3    H166037   4.413   4.747   4.284 -0.2505 -1.4722  0.0664
14874TIP3    H266038   4.529   4.797   4.199  1.5492 -1.5325  2.4396
14875TIP3   OH266039   4.860   2.906  13.491  0.4243  0.1197 -0.5532
14875TIP3    H166040   4.927   2.918  13.423  0.7079 -0.2066 -0.3371
14875TIP3    H266041   4.780   2.941  13.452  1.0404  1.9371 -0.2494
14876TIP3   OH266042   0.293   3.661  13.142  0.0619  0.2324  0.2799
14876TIP3    H166043   0.307   3.566  13.137  0.3359  0.1737  1.7608
14876TIP3    H266044   0.374   3.695  13.179 -0.2839  0.9686  0.3591
14877TIP3   OH266045   1.999   0.431   5.059  0.2937  0.8805  0.4385
14877TIP3    H166046   1.915   0.447   5.101 -0.5408 -0.6774 -0.6028
14877TIP3    H266047   2.023   0.343   5.086 -0.2912 -0.1808 -2.3696
14878TIP3   OH266048   0.403   4.679   4.578  0.0139  0.8583 -0.7323
14878TIP3    H166049   0.393   4.763   4.533  1.0468  1.2270 -0.2984
14878TIP3    H266050   0.498   4.671   4.592 -0.0434 -0.5218 -1.0355
14879TIP3   OH266051   6.027   1.576  15.420  0.2312  0.6235 -0.5597
14879TIP3    H166052   6.075   1.659  15.421  0.6356  0.3789  0.8172
14879TIP3    H266053   5.981   1.577  15.336  1.4349  1.5444 -1.2300
14880TIP3   OH266054   1.763   5.263  15.741 -0.3605 -0.0230  1.1521
14880TIP3    H166055   1.787   5.350  15.711  1.6971 -0.7682  0.5702
14880TIP3    H266056   1.678   5.246  15.699  0.1234  0.9409 -0.2536
14881TIP3   OH266057   0.503   4.829  13.304  0.0507 -0.0528  0.6311
14881TIP3    H166058   0.594   4.820  13.277  0.1559 -1.7110  1.4680
14881TIP3    H266059   0.454   4.774  13.242 -0.5665  1.9534 -0.7032
14882TIP3   OH266060   2.572   0.173   4.369  0.0708  0.4883 -0.1438
14882TIP3    H166061   2.606   0.153   4.282 -0.3540 -1.4425  0.0966
14882TIP3    H266062   2.628   0.243   4.402  3.5263 -2.2262  0.0511
14883TIP3   OH266063   1.549   6.032  11.793  0.1125  0.2227 -0.0766
14883TIP3    H166064   1.556   5.950  11.840  1.9776  0.2651 -0.2770
14883TIP3    H266065   1.462   6.029  11.752 -0.2594 -1.1526  0.8037
14884TIP3   OH266066   0.139   4.216   0.789  0.0577 -0.1082  0.0001
14884TIP3    H166067   0.226   4.227   0.749  0.5217 -1.1822  0.6736
14884TIP3    H266068   0.137   4.124   0.815 -0.6436  0.3028  1.4549
14885TIP3   OH266069   5.694   4.092   0.842  0.2470  0.0949  0.6654
14885TIP3    H166070   5.706   4.056   0.930  2.0042  0.6483  0.6728
14885TIP3    H266071   5.603   4.121   0.840 -0.0039 -0.5526  2.0623
14886TIP3   OH266072   2.597   4.369  16.247  0.1527 -0.0623  0.1641
14886TIP3    H166073   2.671   4.408  16.294  1.8496 -2.0150 -0.8204
14886TIP3    H266074   2.522   4.382  16.306  1.4306  1.1837  1.5536
14887TIP3   OH266075   5.113   2.805   1.562 -0.0850 -0.3002  0.1812
14887TIP3    H166076   5.117   2.792   1.657  0.6961  0.3209  0.2379
14887TIP3    H266077   5.170   2.880   1.546  0.2646 -0.7784 -0.8475
14888TIP3   OH266078   1.851   3.347  16.908 -0.0242  0.3175 -0.0792
14888TIP3    H166079   1.785   3.406  16.872 -1.5853 -0.3653  1.5702
14888TIP3    H266080   1.867   3.284  16.838  0.7407  1.9428 -1.3980
14889TIP3   OH266081   0.163   0.814   5.494  0.0409 -0.1817 -0.0845
14889TIP3    H166082   0.188   0.777   5.579  1.1116 -1.1794 -0.8154
14889TIP3    H266083   0.120   0.741   5.449  1.3661 -0.2881 -1.1961
14890TIP3   OH266084   3.126   1.767  16.805  0.1078 -0.2044  0.1095
14890TIP3    H166085   3.087   1.727  16.727 -0.8092 -0.9354  0.9172
14890TIP3    H266086   3.108   1.860  16.796 -0.0437 -0.2938 -0.5264
14891TIP3   OH266087   1.143   1.511   1.642  0.1825 -0.6886  0.1049
14891TIP3    H166088   1.099   1.545   1.721  0.6130 -0.7806  0.3839
14891TIP3    H266089   1.236   1.515   1.663  0.3000 -0.6387 -0.4346
14892TIP3   OH266090   3.196   4.309  15.678  0.0023 -0.8500 -0.1318
14892TIP3    H166091   3.218   4.342  15.591  0.6131 -0.9194  0.0014
14892TIP3    H266092   3.280   4.291  15.720 -0.3032 -1.6047  0.1712
14893TIP3   OH266093   0.977   4.928  12.641 -0.6022  0.8080 -0.6151
14893TIP3    H166094   1.052   4.961  12.691 -1.3044 -0.0634  1.0627
14893TIP3    H266095   0.918   5.003  12.633  0.3465  1.4378 -1.7470
14894TIP3   OH266096   2.375   1.442  16.481  0.0209  0.2740  0.4885
14894TIP3    H166097   2.304   1.506  16.484  0.1877  0.8396 -3.7649
14894TIP3    H266098   2.339   1.364  16.522 -2.2784  1.2411  0.4073
14895TIP3   OH266099   0.173   6.587   0.934 -0.0790 -0.1786 -0.4590
14895TIP3    H166100   0.113   6.586   0.859 -0.9766 -1.5994  0.2367
14895TIP3    H266101   0.160   6.673   0.974 -0.8261 -0.0443 -0.9814
14896TIP3   OH266102   2.495   3.464  17.048  0.4181  0.0881 -0.0144
14896TIP3    H166103   2.405   3.480  17.020 -0.5261 -2.4391  1.3703
14896TIP3    H266104   2.546   3.461  16.967 -1.1830 -0.9444 -1.0076
14897TIP3   OH266105   2.383   5.215  13.730 -0.2619 -0.0737 -0.0542
14897TIP3    H166106   2.291   5.232  13.746 -0.6719 -2.3844  0.2485
14897TIP3    H266107   2.386   5.180  13.641  0.6408  2.2088 -0.9596
14898TIP3   OH266108   4.736   0.710   2.440 -0.0760  0.0286 -0.1987
14898TIP3    H166109   4.689   0.666   2.511 -2.3533  0.1991 -1.5822
14898TIP3    H266110   4.791   0.775   2.485 -0.0672 -1.1271  1.5285
14899TIP3   OH266111   5.966   4.670   1.258  0.0886  0.0588  0.0683
14899TIP3    H166112   5.891   4.636   1.308  1.4847 -1.3555  1.2419
14899TIP3    H266113   6.023   4.709   1.324  0.5543  0.8527 -0.7891
14900TIP3   OH266114   4.854   0.035   5.982  0.0539  0.6797  0.0736
14900TIP3    H166115   4.870   0.074   6.068 -0.0601  0.6613  0.1033
14900TIP3    H266116   4.823  -0.054   6.002  0.9067  0.3538 -0.0006
14901TIP3   OH266117   6.617   3.730   2.535 -0.2404  0.5957  0.5578
14901TIP3    H166118   6.572   3.693   2.459  0.9948 -1.3439  0.7211
14901TIP3    H266119   6.626   3.823   2.515 -0.5694  0.2368 -1.3590
14902TIP3   OH266120   5.887   2.273  11.797  0.2198 -0.3218 -0.2023
14902TIP3    H166121   5.885   2.180  11.776 -2.2176 -0.3579  0.0041
14902TIP3    H266122   5.814   2.285  11.859 -2.9678  2.6115 -4.2242
14903TIP3   OH266123   6.704   2.774   3.778  0.3257 -0.5119  1.0051
14903TIP3    H166124   6.663   2.753   3.861  1.5548 -2.6236  1.1035
14903TIP3    H266125   6.766   2.702   3.762 -0.5088 -0.6102 -2.1365
14904TIP3   OH266126   0.261   3.151  11.151 -0.7444 -0.2503 -0.5821
14904TIP3    H166127   0.235   3.079  11.093 -0.8640 -0.0471 -0.7808
14904TIP3    H266128   0.215   3.134  11.233 -0.9117 -0.3040 -0.6875
14905TIP3   OH266129   4.795   3.818   2.048 -0.1858  0.3694 -0.2249
14905TIP3    H166130   4.726   3.847   1.988 -1.7114 -0.6762  1.0062
14905TIP3    H266131   4.786   3.874   2.125 -0.0001 -0.1506  0.1739
14906TIP3   OH266132   1.222   5.045  16.900 -0.3273 -0.2393  0.3786
14906TIP3    H166133   1.165   5.040  16.823 -0.6273  2.2996  0.4016
14906TIP3    H266134   1.194   5.125  16.945  1.7883 -0.1503  1.5775
14907TIP3   OH266135   5.137   3.233  16.780 -0.0195 -0.5546 -0.2830
14907TIP3    H166136   5.192   3.310  16.766  0.7108 -0.9156  0.5036
14907TIP3    H266137   5.056   3.267  16.817 -0.3459 -0.0104 -1.4998
14908TIP3   OH266138   0.414   5.078  15.347 -0.1319  0.6134 -0.4867
14908TIP3    H166139   0.356   5.076  15.423  2.7819  2.0499  1.8895
14908TIP3    H266140   0.376   5.143  15.289 -1.3074  0.9874  0.6880
14909TIP3   OH266141   3.348   6.630  16.613 -0.0414 -0.2987  0.7862
14909TIP3    H166142   3.378   6.630  16.523  1.8590 -0.7128  1.4021
14909TIP3    H266143   3.276   6.693  16.615 -0.4082 -0.6405 -1.1014
14910TIP3   OH266144   4.678   5.646   5.289 -0.4022 -0.0091 -0.1966
14910TIP3    H166145   4.684   5.593   5.369  0.0141 -1.0041 -0.8739
14910TIP3    H266146   4.586   5.641   5.264 -0.5263  0.2679  0.1867
14911TIP3   OH266147   1.993   1.156  13.889  0.4183 -0.0168 -0.5212
14911TIP3    H166148   2.021   1.193  13.973 -0.0612  1.4246 -0.9827
14911TIP3    H266149   1.919   1.099  13.912 -1.0281  1.9491 -0.1949
14912TIP3   OH266150   2.418   3.671  16.101  0.0856 -0.1016  0.5214
14912TIP3    H166151   2.403   3.666  16.195 -2.2988 -0.3593  0.1617
14912TIP3    H266152   2.360   3.741  16.071  1.1132  0.2539 -0.7035
14913TIP3   OH266153   5.566   0.718  15.780 -0.6592  0.3992 -0.1824
14913TIP3    H166154   5.577   0.624  15.796 -0.9316  0.5960  1.1700
14913TIP3    H266155   5.472   0.733  15.788 -0.7138  0.6437 -1.2176
14914TIP3   OH266156   4.303   2.056  14.966  0.0945  0.0139 -0.4141
14914TIP3    H166157   4.218   2.088  14.997 -0.0078 -0.0861 -0.5925
14914TIP3    H266158   4.282   2.001  14.890  0.3585  0.3999 -0.7690
14915TIP3   OH266159   1.643   0.267  16.615 -0.3043  0.2422 -0.2315
14915TIP3    H166160   1.637   0.172  16.624  2.7500 -0.0507 -0.5781
14915TIP3    H266161   1.716   0.280  16.554 -0.1448  2.8155  0.4501
14916TIP3   OH266162   1.089   2.643  12.666  0.4386  0.3224  0.2873
14916TIP3    H166163   1.009   2.597  12.639 -0.6918  2.7386 -0.7759
14916TIP3    H266164   1.089   2.722  12.610  2.6481  1.2061  1.5120
14917TIP3   OH266165   4.044   2.440  14.422 -0.4642  0.3334  0.0973
14917TIP3    H166166   4.120   2.496  14.436  0.3963 -0.4536 -1.2328
14917TIP3    H266167   4.004   2.430  14.508 -1.0675  3.5630  0.2671
14918TIP3   OH266168   3.857   2.552   0.408  0.1411  0.1917 -0.4506
14918TIP3    H166169   3.902   2.593   0.482  0.4120  1.7477 -1.4619
14918TIP3    H266170   3.816   2.474   0.445  2.4755 -0.4929  0.8027
14919TIP3   OH266171   4.566   6.391   1.486 -0.6722 -0.0447 -0.3627
14919TIP3    H166172   4.592   6.390   1.394 -0.3926  0.1678 -0.2848
14919TIP3    H266173   4.638   6.433   1.532 -1.1677  0.5817 -0.1505
14920TIP3   OH266174   4.423   3.668  14.100  0.0779 -0.3159 -0.1796
14920TIP3    H166175   4.411   3.646  14.008 -1.4610  2.2454 -0.6277
14920TIP3    H266176   4.335   3.667  14.137  0.5142  0.2223  0.9039
14921TIP3   OH266177   2.741   5.497  16.143 -0.2457  0.2767  0.2696
14921TIP3    H166178   2.730   5.403  16.150  0.7077  0.1837  0.5688
14921TIP3    H266179   2.799   5.510  16.069  0.1821  0.5869  0.6493
14922TIP3   OH266180   5.739   5.246  17.083  0.1883  0.3937 -0.0645
14922TIP3    H166181   5.722   5.331  17.125  1.6194  0.3247  0.6865
14922TIP3    H266182   5.710   5.258  16.992 -0.1706  1.4896  0.1838
14923TIP3   OH266183   4.442   6.256   4.746 -0.1549 -0.0427  0.1307
14923TIP3    H166184   4.416   6.193   4.813 -0.9749  1.0983  0.9158
14923TIP3    H266185   4.364   6.266   4.691 -0.0640  0.3611  0.0728
14924TIP3   OH266186   0.593   3.992  15.818  0.5993  0.3080  0.2646
14924TIP3    H166187   0.656   4.062  15.835  0.2784  0.3438  1.3480
14924TIP3    H266188   0.525   4.033  15.766  0.8224  0.5936  0.1937
14925TIP3   OH266189   6.164   3.754  16.948  0.0059  0.3024 -0.6452
14925TIP3    H166190   6.152   3.712  17.033  1.9025 -0.2546 -0.6239
14925TIP3    H266191   6.077   3.756  16.910 -0.6411 -0.7007  0.7392
14926TIP3   OH266192   5.963   5.819   1.678 -0.2111 -0.1701 -0.3115
14926TIP3    H166193   6.041   5.808   1.622 -0.0226 -1.6608  0.2147
14926TIP3    H266194   5.911   5.741   1.661 -1.4937  0.7193 -0.4833
14927TIP3   OH266195   3.437   0.078  12.613 -0.5350 -0.1869 -0.3697
14927TIP3    H166196   3.351   0.072  12.571 -0.2473  0.5307 -1.0650
14927TIP3    H266197   3.492   0.017  12.564 -0.8017 -1.0899  0.4556
14928TIP3   OH266198   0.374   1.488  15.338 -0.2904  0.1348 -0.3263
14928TIP3    H166199   0.307   1.443  15.287 -0.2329 -0.0756 -0.2150
14928TIP3    H266200   0.444   1.424  15.349 -0.3528  0.1417  0.1142
14929TIP3   OH266201   4.205   0.636  12.619  0.1922 -0.1966 -0.0851
14929TIP3    H166202   4.131   0.678  12.663  1.5577  1.6545  0.4485
14929TIP3    H266203   4.282   0.678  12.655  1.4465 -0.4962 -2.3419
14930TIP3   OH266204   0.721   1.424  13.079 -0.0895  0.4914 -0.3936
14930TIP3    H166205   0.727   1.368  13.002  0.6099 -0.0578  0.0640
14930TIP3    H266206   0.733   1.513  13.044  0.6038  0.2173 -0.8661
14931TIP3   OH266207   3.313   4.912  14.406 -0.4579 -0.6572 -0.1499
14931TIP3    H166208   3.317   4.840  14.344 -2.2549 -0.6657 -0.2589
14931TIP3    H266209   3.317   4.870  14.492 -0.1361 -0.7925 -0.2316
14932TIP3   OH266210   6.072   4.409  14.853  0.2658 -0.1716 -0.2016
14932TIP3    H166211   6.082   4.488  14.906 -1.1756  0.2152 -0.4914
14932TIP3    H266212   6.132   4.346  14.892  0.3591  0.5998  0.9152
14933TIP3   OH266213   5.545   5.085   3.376  0.0125 -0.3793  0.4369
14933TIP3    H166214   5.561   5.020   3.307 -0.6735 -0.2938  0.1944
14933TIP3    H266215   5.500   5.036   3.444 -2.1569  0.2454 -0.5215
14934TIP3   OH266216   0.995   3.429  13.854 -0.4717 -0.0008  0.2021
14934TIP3    H166217   1.005   3.521  13.878  1.2828  1.2804 -4.8098
14934TIP3    H266218   1.078   3.388  13.878  0.2341  0.6364 -1.1271
14935TIP3   OH266219   1.116   1.507  11.608 -0.0051  0.0101  0.3155
14935TIP3    H166220   1.157   1.425  11.581 -0.0790  0.6332 -1.7585
14935TIP3    H266221   1.173   1.540  11.678 -0.0761 -1.8723  1.2773
14936TIP3   OH266222   4.448   2.381   4.364 -0.3055 -0.8673  0.0568
14936TIP3    H166223   4.383   2.416   4.425 -0.4911 -1.4223  0.1840
14936TIP3    H266224   4.454   2.446   4.295 -0.6675 -0.6019  0.2734
14937TIP3   OH266225   1.107   1.886  15.210  0.4800  0.2166 -0.3824
14937TIP3    H166226   1.070   1.922  15.129 -1.1474 -2.7317 -1.0391
14937TIP3    H266227   1.167   1.817  15.180  0.7831 -0.0877  0.9024
14938TIP3   OH266228   2.103   2.117  11.587  0.0112  0.0767 -0.4830
14938TIP3    H166229   2.013   2.084  11.582  0.6382 -1.8420  0.2856
14938TIP3    H266230   2.108   2.160  11.672 -0.1735  0.1787 -0.5219
14939TIP3   OH266231   5.932   2.502   3.346  0.3550 -0.2538 -0.0040
14939TIP3    H166232   5.907   2.411   3.330 -0.5298  0.1868 -1.1853
14939TIP3    H266233   5.989   2.525   3.274  0.8747  0.0256  0.4906
14940TIP3   OH266234   5.490   6.679  15.281  0.0207 -0.4999 -0.1926
14940TIP3    H166235   5.573   6.632  15.291  1.3211  0.8603 -3.7948
14940TIP3    H266236   5.502   6.760  15.331  0.9946 -0.1687 -0.9548
14941TIP3   OH266237   0.512   2.335   6.064 -0.0499  0.0693  0.4399
14941TIP3    H166238   0.554   2.252   6.042  1.1785  0.8901 -0.3388
14941TIP3    H266239   0.474   2.320   6.151  0.4639 -1.1932  0.4548
14942TIP3   OH266240   2.046   0.344   6.393 -0.6789  0.2840  0.3813
14942TIP3    H166241   1.988   0.399   6.445  0.1118  0.8481  0.6786
14942TIP3    H266242   2.071   0.399   6.318 -0.7684 -0.0624  0.0939
14943TIP3   OH266243   4.378   5.496  16.643 -0.1396  0.4369 -0.2769
14943TIP3    H166244   4.451   5.435  16.650 -0.6876 -0.3303 -1.1081
14943TIP3    H266245   4.396   5.547  16.565 -0.0939  0.7819 -0.0412
14944TIP3   OH266246   2.477   5.160  13.991  0.6681 -0.4290  0.1025
14944TIP3    H166247   2.455   5.169  13.898  0.2306 -2.3613  0.0016
14944TIP3    H266248   2.567   5.191  13.998  0.7564 -0.4319 -0.9886
14945TIP3   OH266249   1.809   5.222  14.447  0.3722  1.1998  0.3489
14945TIP3    H166250   1.774   5.287  14.507 -1.6252  0.0099  0.5094
14945TIP3    H266251   1.737   5.203  14.387  1.2802 -0.0342 -0.3887
14946TIP3   OH266252   4.917   1.668  12.276 -0.4631  0.1404  0.3585
14946TIP3    H166253   4.939   1.652  12.184 -1.0314  0.6337  0.1290
14946TIP3    H266254   4.842   1.728  12.272  1.0463  2.1236  1.1683
14947TIP3   OH266255   3.450   3.266   4.858  0.7511  0.0319  0.5752
14947TIP3    H166256   3.491   3.179   4.850  2.4377  1.0653 -2.9967
14947TIP3    H266257   3.519   3.321   4.895 -0.0703  0.0709  2.0916
14948TIP3   OH266258   4.877   4.139   0.621 -0.1015 -0.2660  0.2685
14948TIP3    H166259   4.826   4.206   0.574  0.8161  0.3503  0.1186
14948TIP3    H266260   4.828   4.058   0.609 -1.7645  0.5629  1.2956
14949TIP3   OH266261   1.518   1.925  15.703  0.2580  0.1558  0.2607
14949TIP3    H166262   1.548   1.989  15.639  1.0587 -0.2706  0.2011
14949TIP3    H266263   1.501   1.846  15.652  1.4460 -0.3581  0.6404
14950TIP3   OH266264   0.264   3.846  13.397 -0.0549  0.0087 -0.2157
14950TIP3    H166265   0.309   3.882  13.474 -1.0459 -1.2157  0.9519
14950TIP3    H266266   0.318   3.771  13.371 -0.1436 -0.0491 -0.2335
14951TIP3   OH266267   1.148   4.802   5.887  0.5443 -0.2232  0.4358
14951TIP3    H166268   1.056   4.827   5.881  0.8574  0.9955  0.6876
14951TIP3    H266269   1.179   4.805   5.796  0.4390 -0.2302  0.3994
14952TIP3   OH266270   4.478   1.943  13.723 -0.6119 -0.3869 -0.3438
14952TIP3    H166271   4.417   1.880  13.763 -1.7226  0.1571 -1.1689
14952TIP3    H266272   4.560   1.930  13.771 -1.1743 -1.6189  0.3087
14953TIP3   OH266273   0.596   3.850  14.276  0.1941  0.4375 -0.2620
14953TIP3    H166274   0.513   3.868  14.231  0.2667  0.0401 -0.5596
14953TIP3    H266275   0.624   3.766  14.240 -0.9289 -1.0563  2.1871
14954TIP3   OH266276   4.092   3.101  12.096  0.3095  0.4880 -0.5040
14954TIP3    H166277   4.184   3.128  12.097  0.8248 -1.1052  2.9310
14954TIP3    H266278   4.067   3.098  12.188 -2.6557 -0.9008 -1.2949
14955TIP3   OH266279   0.718   5.985   1.154  0.5081  0.4156  0.3501
14955TIP3    H166280   0.716   6.009   1.062  0.2726  0.7752  0.4480
14955TIP3    H266281   0.626   5.985   1.182  0.4629 -1.1145  0.2244
14956TIP3   OH266282   6.155   2.439   0.230  0.2303 -0.7118  0.6769
14956TIP3    H166283   6.236   2.488   0.214  0.2685  0.0964  3.1052
14956TIP3    H266284   6.089   2.482   0.177  1.2696 -1.0671 -0.9455
14957TIP3   OH266285   4.093   2.837   1.854  0.4842  0.0596 -0.9527
14957TIP3    H166286   4.054   2.836   1.941  0.9225 -0.2576 -0.7537
14957TIP3    H266287   4.177   2.882   1.866 -0.0701  1.2430 -1.4871
14958TIP3   OH266288   4.336   0.996   6.117 -0.6016 -0.6995  0.6710
14958TIP3    H166289   4.431   1.000   6.121 -0.6169 -1.7428  2.3254
14958TIP3    H266290   4.306   1.034   6.199 -1.6842  1.2593 -0.5908
14959TIP3   OH266291   0.825   4.830  11.321  0.4632  1.0408  0.3838
14959TIP3    H166292   0.744   4.881  11.321 -0.0658  0.2130 -1.0432
14959TIP3    H266293   0.883   4.877  11.261  0.5777  0.8856  0.3726
14960TIP3   OH266294   0.938   4.471   0.565  0.0978  0.2866  0.2205
14960TIP3    H166295   0.969   4.450   0.477 -0.5393 -0.6281  0.2144
14960TIP3    H266296   0.896   4.391   0.596 -2.9045  1.6849 -0.0427
14961TIP3   OH266297   3.745   2.464  16.014 -0.3975  0.5338 -0.7016
14961TIP3    H166298   3.652   2.441  16.015 -0.3077  0.2107  0.6436
14961TIP3    H266299   3.764   2.492  16.103  0.8169  0.5400 -0.9538
14962TIP3   OH266300   3.313   6.290  11.640 -0.2954 -0.4134  0.0951
14962TIP3    H166301   3.280   6.240  11.565  1.4332 -0.3386 -0.7430
14962TIP3    H266302   3.264   6.372  11.638 -0.9609 -0.8135 -0.3711
14963TIP3   OH266303   1.030   5.441   5.360  0.4409 -0.5832  0.4663
14963TIP3    H166304   0.967   5.513   5.367 -0.2201 -1.1734  0.6497
14963TIP3    H266305   0.995   5.385   5.291  1.3036 -0.3885 -0.1369
14964TIP3   OH266306   6.201   4.383   0.481 -0.2749 -0.1306 -0.1242
14964TIP3    H166307   6.290   4.350   0.470 -1.2177 -1.7267 -3.6191
14964TIP3    H266308   6.191   4.449   0.412 -2.6957 -2.0611 -1.6881
14965TIP3   OH266309   4.796   0.136   2.391  0.4700 -0.2795 -0.2397
14965TIP3    H166310   4.704   0.154   2.407  0.5289  0.2395 -0.4629
14965TIP3    H266311   4.809   0.162   2.299  0.5412 -1.5295 -0.5947
14966TIP3   OH266312   1.346   4.693   3.200  0.0993 -0.3657  0.2943
14966TIP3    H166313   1.431   4.701   3.243  0.1839  0.4286 -0.0121
14966TIP3    H266314   1.327   4.781   3.167 -0.9488 -0.4855  0.5635
14967TIP3   OH266315   3.435   5.118   3.903 -0.0248 -0.0423  0.1190
14967TIP3    H166316   3.350   5.086   3.873 -0.4519  2.6784 -1.7610
14967TIP3    H266317   3.492   5.108   3.828  0.7838  0.0813  0.7143
14968TIP3   OH266318   0.420   3.814   2.583  0.0853  0.2113 -0.1305
14968TIP3    H166319   0.482   3.882   2.556  0.6162 -0.2251 -0.0251
14968TIP3    H266320   0.445   3.737   2.532  0.0948 -0.1746  0.4502
14969TIP3   OH266321   0.015   6.104  15.869  0.1756 -0.1386 -0.4386
14969TIP3    H166322   0.044   6.135  15.783  1.7565  0.5868  0.3394
14969TIP3    H266323   0.094   6.104  15.923 -0.9228  0.0142  1.2083
14970TIP3   OH266324   0.974   1.982  15.685 -0.2275  0.1016 -0.6716
14970TIP3    H166325   1.064   1.952  15.700  0.4198  1.9087 -0.7421
14970TIP3    H266326   0.939   1.922  15.620  0.8275 -0.8167 -0.4067
14971TIP3   OH266327   1.655   3.651  15.819  0.0560 -0.0684 -0.1431
14971TIP3    H166328   1.701   3.593  15.879  1.3481  0.8657 -0.2246
14971TIP3    H266329   1.621   3.592  15.751  0.0384 -0.9105  0.5866
14972TIP3   OH266330   6.601   5.857  10.996 -0.1804  0.0862  0.1696
14972TIP3    H166331   6.651   5.848  10.915  0.9207  1.3202  0.6755
14972TIP3    H266332   6.537   5.787  10.994  0.1723 -0.1931 -1.5334
14973TIP3   OH266333   3.417   1.852   0.502 -0.2576  0.2508  0.2867
14973TIP3    H166334   3.471   1.773   0.507  0.4201  0.7383  0.6596
14973TIP3    H266335   3.333   1.826   0.541  0.3039  0.0022  1.3366
14974TIP3   OH266336   2.913   4.937  15.903  0.2031  0.0388  0.0240
14974TIP3    H166337   2.838   4.879  15.888 -1.6696  1.4564  3.3874
14974TIP3    H266338   2.960   4.896  15.976  0.4954  1.2049  0.4946
14975TIP3   OH266339   5.659   0.255  14.410 -0.0844  0.4678  0.3198
14975TIP3    H166340   5.630   0.347  14.405 -1.8625 -0.0025  1.4877
14975TIP3    H266341   5.632   0.226  14.497 -0.6015 -1.5173 -0.4705
14976TIP3   OH266342   4.703   2.406  12.853 -0.5922 -0.0570  0.1458
14976TIP3    H166343   4.644   2.367  12.789  1.3706  0.2127 -1.9019
14976TIP3    H266344   4.646   2.432  12.926 -2.9736  0.2202 -1.7471
14977TIP3   OH266345   1.409   6.041   4.399  0.1662  0.0111  0.8948
14977TIP3    H166346   1.388   5.978   4.468  1.6775 -0.5729  0.8315
14977TIP3    H266347   1.500   6.021   4.375 -0.3907  0.1078 -1.3801
14978TIP3   OH266348   2.206   3.282   2.335  0.0931 -0.0149 -0.4254
14978TIP3    H166349   2.186   3.248   2.422  0.5405 -0.2085 -0.3977
14978TIP3    H266350   2.121   3.305   2.298 -0.1855 -0.9091 -0.3352
14979TIP3   OH266351   2.810   1.572   5.591  0.1571 -0.3097  0.0573
14979TIP3    H166352   2.852   1.486   5.592 -1.6841 -1.2227  1.4804
14979TIP3    H266353   2.745   1.567   5.521 -0.1664 -0.1916  0.3473
14980TIP3   OH266354   5.552   6.668   2.658  0.2477 -0.1937  0.2666
14980TIP3    H166355   5.522   6.666   2.567  0.4040  0.4256  0.1993
14980TIP3    H266356   5.618   6.737   2.660  0.7654 -0.6973  0.6935
14981TIP3   OH266357   4.055   2.508  13.360  0.2645 -0.0812 -0.3297
14981TIP3    H166358   3.997   2.504  13.283 -1.5038  1.1639  0.9100
14981TIP3    H266359   4.001   2.546  13.429  2.0389 -0.5741  1.3712
14982TIP3   OH266360   4.682   1.230  11.490  0.6850  0.5497 -0.7056
14982TIP3    H166361   4.778   1.235  11.487  0.8365 -2.3114 -5.0529
14982TIP3    H266362   4.653   1.297  11.428 -0.1613  1.4512  0.6510
14983TIP3   OH266363   6.532   1.879   4.762 -0.6198 -0.4201  0.5360
14983TIP3    H166364   6.469   1.809   4.782 -2.1208  0.6461 -0.3066
14983TIP3    H266365   6.511   1.948   4.826  0.2552 -0.3963  0.7921
14984TIP3   OH266366   0.385   0.172   5.111 -0.5374  0.2269  0.1988
14984TIP3    H166367   0.379   0.259   5.150 -1.8454  1.0443 -1.7541
14984TIP3    H266368   0.306   0.126   5.142  0.5605 -0.5419  1.8734
14985TIP3   OH266369   1.866   1.060   3.406  0.9640 -0.3649 -0.4256
14985TIP3    H166370   1.829   1.081   3.320  1.2953 -1.7320 -0.9148
14985TIP3    H266371   1.938   1.000   3.386  0.9141 -0.8378  0.8272
14986TIP3   OH266372   6.464   0.008  14.776 -0.5618 -0.0085  0.3285
14986TIP3    H166373   6.481  -0.084  14.796 -0.9903 -0.1386  0.0988
14986TIP3    H266374   6.411   0.039  14.849 -1.3519 -0.2398 -0.1448
14987TIP3   OH266375   5.023   5.925   0.252  0.6621 -0.2613 -0.1784
14987TIP3    H166376   4.955   5.936   0.318  0.1399 -1.9782 -0.3949
14987TIP3    H266377   5.105   5.936   0.300  0.2588  2.7485 -0.1020
14988TIP3   OH266378   5.100   4.842   0.443 -0.1049  0.0034  0.5004
14988TIP3    H166379   5.106   4.762   0.391 -1.8711 -0.5094  1.0412
14988TIP3    H266380   5.006   4.861   0.448  0.1536  1.0262  1.9979
14989TIP3   OH266381   0.336   5.994  14.413  0.3439  0.2770  0.0934
14989TIP3    H166382   0.276   6.011  14.485 -1.3382 -2.2370 -0.6184
14989TIP3    H266383   0.368   5.905  14.429  0.4753 -0.0564 -1.8510
14990TIP3   OH266384   0.837   4.427  12.131  0.1617  0.3522  0.2465
14990TIP3    H166385   0.904   4.391  12.188 -0.9406 -1.2244  0.5799
14990TIP3    H266386   0.782   4.352  12.108 -2.0992  1.7817  0.8427
14991TIP3   OH266387   3.736   3.212  13.743  0.7076 -0.4043  0.0261
14991TIP3    H166388   3.685   3.289  13.718 -1.8557 -1.3211  2.2273
14991TIP3    H266389   3.679   3.138  13.725  1.4808 -1.5068  1.9541
14992TIP3   OH266390   1.931   2.758   4.692 -0.3514 -0.0410  0.0500
14992TIP3    H166391   2.006   2.806   4.728 -2.1773  3.2565 -0.3004
14992TIP3    H266392   1.880   2.734   4.770 -1.0187  1.4212  0.0914
14993TIP3   OH266393   5.049   6.772   4.173 -0.0171 -0.1314 -0.1908
14993TIP3    H166394   4.989   6.729   4.111 -0.6217  2.2734 -1.3276
14993TIP3    H266395   5.133   6.775   4.127 -0.1372  0.4499 -0.3821
14994TIP3   OH266396   1.939   3.833   4.819 -0.0654 -0.2317 -0.8540
14994TIP3    H166397   1.876   3.761   4.827  0.5331 -0.4452  3.1452
14994TIP3    H266398   1.885   3.912   4.813 -0.7389 -0.6598 -0.5285
14995TIP3   OH266399   3.450   1.194   0.046 -0.1138  0.4134  0.1887
14995TIP3    H166400   3.481   1.106   0.066  0.3497  0.7232  0.8495
14995TIP3    H266401   3.355   1.186   0.042 -0.1411  0.0982  1.3231
14996TIP3   OH266402   3.635   0.513  13.977  0.0454 -0.1098 -0.1266
14996TIP3    H166403   3.583   0.515  13.897 -0.5747 -0.2356  0.2652
14996TIP3    H266404   3.581   0.560  14.041  0.8188  0.5384  0.0442
14997TIP3   OH266405   0.968   0.053   1.580  0.0815 -0.0904  0.4506
14997TIP3    H166406   1.011   0.110   1.643  0.5495 -0.6405  0.6374
14997TIP3    H266407   1.039   0.019   1.526 -0.5857  2.4640 -2.1266
14998TIP3   OH266408   2.016   6.480  11.031  0.1027  0.0717  0.4380
14998TIP3    H166409   2.081   6.551  11.033 -0.3314  0.4785  0.3714
14998TIP3    H266410   1.931   6.526  11.030 -0.2215 -0.4624  2.0168
14999TIP3   OH266411   5.514   4.941   4.451 -0.3025 -0.3743 -0.2757
14999TIP3    H166412   5.462   4.873   4.493  1.1371 -0.0300  2.1455
14999TIP3    H266413   5.605   4.918   4.470  0.2361  1.7049 -0.1407
15000TIP3   OH266414   5.112   4.346   4.736  0.2887  0.9015 -0.6522
15000TIP3    H166415   5.040   4.373   4.679 -0.7058 -0.6838 -0.1900
15000TIP3    H266416   5.075   4.347   4.824  0.9555  0.5081 -0.3576
15001TIP3   OH266417   3.916   3.360   0.279 -0.3559  0.0254 -0.2847
15001TIP3    H166418   4.008   3.335   0.268 -0.8121 -1.7741 -0.1330
15001TIP3    H266419   3.903   3.366   0.374 -0.6193 -0.5494 -0.2867
15002TIP3   OH266420   2.582   6.493  14.806 -0.1487  0.0021 -0.0176
15002TIP3    H166421   2.555   6.422  14.865  1.8506  0.1585  1.1295
15002TIP3    H266422   2.656   6.456  14.757  1.2431  1.4518  0.9545
15003TIP3   OH266423   2.722   3.392   2.314 -0.4408  0.4947  0.4189
15003TIP3    H166424   2.795   3.337   2.286 -0.9438  0.8187 -1.5732
15003TIP3    H266425   2.673   3.338   2.377  0.3118 -0.5011  0.1498
15004TIP3   OH266426   5.640   6.021  14.145 -0.1453 -0.6120  0.1395
15004TIP3    H166427   5.693   6.001  14.067 -0.5779 -0.1387 -0.2807
15004TIP3    H266428   5.599   5.938  14.168 -0.3413 -0.6701 -0.3924
15005TIP3   OH266429   6.132   1.415   3.493 -0.0477 -0.2968  0.2768
15005TIP3    H166430   6.194   1.363   3.443 -0.4792 -0.3777 -0.1839
15005TIP3    H266431   6.159   1.403   3.584  0.3984 -0.6087  0.1075
15006TIP3   OH266432   3.327   3.697   4.667  0.2077 -0.0971 -0.4161
15006TIP3    H166433   3.388   3.698   4.741 -1.6227 -0.6615  1.1379
15006TIP3    H266434   3.363   3.761   4.605  1.1086  1.2882  1.4900
15007TIP3   OH266435   0.811   5.543  15.862 -0.4311 -0.0132  0.3142
15007TIP3    H166436   0.869   5.517  15.790 -0.8086  0.0076 -0.0002
15007TIP3    H266437   0.858   5.516  15.941  0.8258  1.6493  0.1463
15008TIP3   OH266438   4.719   0.163  15.618  0.7261  0.7211 -0.6454
15008TIP3    H166439   4.797   0.192  15.665  0.3547  0.3945  0.1825
15008TIP3    H266440   4.699   0.236  15.559  0.6917  1.5124  0.3234
15009TIP3   OH266441   5.879   5.304  15.199 -0.1105 -0.7458  0.6812
15009TIP3    H166442   5.873   5.247  15.275 -2.1612 -1.6717 -0.1435
15009TIP3    H266443   5.890   5.391  15.235  3.5909 -1.6603  1.9610
15010TIP3   OH266444   3.896   1.557  13.145 -0.0183 -0.0230  0.8814
15010TIP3    H166445   3.869   1.517  13.228  0.4416 -1.2050  0.4725
15010TIP3    H266446   3.814   1.576  13.100 -0.2650  0.4182  1.5131
15011TIP3   OH266447   1.102   1.325   3.327  0.4944 -0.7007 -0.3349
15011TIP3    H166448   1.175   1.329   3.265 -0.7413 -1.2491 -1.8841
15011TIP3    H266449   1.080   1.417   3.344  3.2811 -0.4575  2.3315
15012TIP3   OH266450   1.356   4.267   0.105 -0.0923  0.3241  0.6098
15012TIP3    H166451   1.442   4.253   0.064  0.9893 -0.0611  2.9345
15012TIP3    H266452   1.294   4.238   0.038  1.5040  1.7912 -1.6057
15013TIP3   OH266453   1.148   0.376  15.117 -0.0581  0.3860  0.5361
15013TIP3    H166454   1.067   0.344  15.157 -0.4083  0.5550 -0.0196
15013TIP3    H266455   1.174   0.306  15.057 -0.1584  0.6223  0.2178
15014TIP3   OH266456   2.352   0.992  11.592  0.5276 -0.2671 -0.1708
15014TIP3    H166457   2.271   0.955  11.628  1.0947  0.8507  2.3582
15014TIP3    H266458   2.325   1.075  11.552  0.1796 -0.6846 -0.8203
15015TIP3   OH266459   0.012   3.090   0.705 -0.1473  0.7456  0.0885
15015TIP3    H166460  -0.053   3.155   0.731 -1.5363 -0.7780  0.4764
15015TIP3    H266461   0.090   3.112   0.757 -1.2768  0.8079  1.7962
15016TIP3   OH266462   2.338   2.995   2.038  0.6080 -0.5675 -0.0687
15016TIP3    H166463   2.281   2.918   2.048 -0.0025 -0.5438 -2.8161
15016TIP3    H266464   2.401   2.968   1.971  0.5842  1.2112 -0.8169
15017TIP3   OH266465   5.522   5.651  12.128  0.3821  0.2805  0.7156
15017TIP3    H166466   5.574   5.705  12.069  2.4431 -0.5665  1.6818
15017TIP3    H266467   5.529   5.563  12.093 -2.2108  0.4492 -0.3370
15018TIP3   OH266468   4.294   6.020  14.523 -0.4854  0.1173  0.4253
15018TIP3    H166469   4.225   6.019  14.456 -1.8817  0.3021  1.8169
15018TIP3    H266470   4.269   5.951  14.584  0.4701  0.3118  1.0434
15019TIP3   OH266471   1.191   0.712  16.650 -0.0073 -0.6822  0.3137
15019TIP3    H166472   1.133   0.769  16.701 -0.7301 -0.3595 -0.8407
15019TIP3    H266473   1.246   0.772  16.600  0.7028 -0.9988  0.7034
15020TIP3   OH266474   3.955   2.503  11.037 -0.1241 -0.1507  0.0749
15020TIP3    H166475   3.935   2.588  10.999  0.1874  0.6667  1.7047
15020TIP3    H266476   3.875   2.478  11.084 -0.6672 -1.3591 -1.4557
15021TIP3   OH266477   3.373   4.034  13.635 -0.2203 -0.1840  0.0350
15021TIP3    H166478   3.295   4.086  13.614  0.4559  0.7673 -0.1548
15021TIP3    H266479   3.437   4.099  13.664  1.2518 -0.7258 -1.9717
15022TIP3   OH266480   0.901   1.852   2.268  0.2366 -0.3235  0.2486
15022TIP3    H166481   0.918   1.944   2.249 -0.7580  0.3158  2.2892
15022TIP3    H266482   0.851   1.853   2.350 -0.6667 -2.6224 -0.2292
15023TIP3   OH266483   3.508   3.550   3.133  0.3806 -0.0124  0.7277
15023TIP3    H166484   3.481   3.489   3.201  2.4973 -1.4777  0.3336
15023TIP3    H266485   3.604   3.549   3.137  0.5108  0.9099 -1.3538
15024TIP3   OH266486   1.070   1.164   1.578  0.1384 -0.0601 -0.0187
15024TIP3    H166487   1.080   1.237   1.517  0.4856  0.9430  1.2301
15024TIP3    H266488   1.111   1.090   1.533 -0.0518  0.5444 -1.2113
15025TIP3   OH266489   1.581   1.855  14.623  0.1346 -0.3981 -0.2754
15025TIP3    H166490   1.575   1.760  14.609 -0.4627 -0.5421  0.8766
15025TIP3    H266491   1.534   1.870  14.705 -1.4979  1.1507 -1.4502
15026TIP3   OH266492   1.596   3.376   3.112 -0.0283  0.3999  0.1179
15026TIP3    H166493   1.615   3.303   3.053  0.9400  1.0092 -0.3304
15026TIP3    H266494   1.679   3.396   3.153 -1.1113 -1.3994  3.3471
15027TIP3   OH266495   6.434   5.070  15.492  0.0317 -0.2080 -0.1535
15027TIP3    H166496   6.487   5.112  15.424 -0.8719  0.4504 -0.4567
15027TIP3    H266497   6.498   5.045  15.559  0.5986  1.7735  0.1017
15028TIP3   OH266498   4.226   3.401  12.172  0.2780  0.0707 -0.7312
15028TIP3    H166499   4.283   3.361  12.238  0.4371  0.5174 -0.5960
15028TIP3    H266500   4.198   3.484  12.212  0.8287  0.6177 -1.4496
15029TIP3   OH266501   3.327   5.179  16.395  0.0707  0.6127  0.7712
15029TIP3    H166502   3.324   5.211  16.305 -3.1954 -1.7695 -0.0465
15029TIP3    H266503   3.408   5.127  16.399  1.4822  2.7154 -0.0527
15030TIP3   OH266504   6.055   1.281  16.006 -0.9743  0.0213 -0.1521
15030TIP3    H166505   6.149   1.289  15.992 -1.3507  2.3093 -1.7248
15030TIP3    H266506   6.039   1.327  16.089 -0.7418 -0.2014  0.0182
15031TIP3   OH266507   5.526   6.600  15.866 -0.4442 -0.3078 -0.0871
15031TIP3    H166508   5.600   6.542  15.849  0.6886  1.7144 -2.5723
15031TIP3    H266509   5.454   6.541  15.887  0.4834 -2.7206 -3.1127
15032TIP3   OH266510   3.361   6.573  10.815 -0.5766 -0.1091 -0.7749
15032TIP3    H166511   3.366   6.631  10.740  0.3631  0.5710 -0.1970
15032TIP3    H266512   3.404   6.621  10.886 -3.4153  0.1741  0.8008
15033TIP3   OH266513   0.601   5.686  14.612  0.2336 -0.2070  0.0511
15033TIP3    H166514   0.640   5.641  14.537  1.6312 -0.0177  0.6369
15033TIP3    H266515   0.627   5.633  14.688  1.2594  1.1488  0.6659
15034TIP3   OH266516   3.008   6.452   5.233  0.1404  0.0229  0.0972
15034TIP3    H166517   3.018   6.529   5.178  0.1692 -0.6575 -0.8688
15034TIP3    H266518   3.092   6.406   5.226  1.5172  1.7741  3.6418
15035TIP3   OH266519   4.793   6.299  15.953 -0.2169  0.5211 -0.1587
15035TIP3    H166520   4.740   6.378  15.940 -1.4100 -0.4255 -1.2797
15035TIP3    H266521   4.752   6.255  16.027  0.0952  0.6690  0.1023
15036TIP3   OH266522   5.102   5.393   3.796  0.4370  0.1903  0.1055
15036TIP3    H166523   5.124   5.302   3.778  0.3945 -0.3733  2.7227
15036TIP3    H266524   5.033   5.413   3.733  1.4449 -1.1138 -1.4668
15037TIP3   OH266525   3.468   1.396  10.970  0.4281  0.0223 -0.0191
15037TIP3    H166526   3.550   1.410  10.923  0.1024  0.2590 -0.5134
15037TIP3    H266527   3.426   1.482  10.971 -0.5857 -0.4583 -1.2002
15038TIP3   OH266528   4.288   0.843  14.676 -0.6627 -0.3118  0.1071
15038TIP3    H166529   4.326   0.795  14.749  0.0755 -1.2272 -0.8627
15038TIP3    H266530   4.261   0.775  14.614 -2.0670  0.4123 -0.0892
15039TIP3   OH266531   4.961   4.507  14.335  0.5139  0.0702  0.4728
15039TIP3    H166532   5.012   4.448  14.389 -0.4833 -0.1846  1.1407
15039TIP3    H266533   4.875   4.465  14.327  0.9332 -0.4021 -2.1363
15040TIP3   OH266534   1.030   0.019  16.687  0.3616  0.1113  0.2590
15040TIP3    H166535   1.073   0.098  16.718 -0.6447  0.7663 -0.0117
15040TIP3    H266536   1.097  -0.025  16.633 -0.0186  2.2252 -1.9915
15041TIP3   OH266537   5.443   1.666  12.612  0.7221  0.6163  0.0836
15041TIP3    H166538   5.400   1.670  12.697 -0.8076  0.1408 -0.6426
15041TIP3    H266539   5.371   1.663  12.549  1.8260  0.1247 -1.1841
15042TIP3   OH266540   0.947   3.889  16.885 -0.0076  0.7208 -0.0585
15042TIP3    H166541   0.887   3.856  16.818 -0.2908  0.2965  0.3975
15042TIP3    H266542   0.894   3.949  16.938 -0.3302 -0.4489  0.9803
15043TIP3   OH266543   4.903   4.194   0.900  0.4607 -0.2717 -0.3141
15043TIP3    H166544   4.980   4.249   0.886  0.4172  0.1915  1.1834
15043TIP3    H266545   4.880   4.162   0.813  2.7362 -0.9413 -0.6995
15044TIP3   OH266546   6.003   3.079  16.038  0.0575 -0.1415  0.3897
15044TIP3    H166547   6.007   3.135  15.961  0.8069  0.5240  0.9154
15044TIP3    H266548   6.094   3.055  16.055 -0.3383 -2.4759 -0.5177
15045TIP3   OH266549   4.376   2.594  16.829 -0.2057 -0.2615  0.1204
15045TIP3    H166550   4.334   2.528  16.884 -1.7810  2.2900  2.1506
15045TIP3    H266551   4.423   2.650  16.891  1.5211  0.2437 -1.5994
15046TIP3   OH266552   1.087   0.808   2.062  0.1055  0.4014 -0.0062
15046TIP3    H166553   1.008   0.825   2.114  0.3752  1.5373  0.0276
15046TIP3    H266554   1.145   0.761   2.122  0.2455  1.3322  0.6028
15047TIP3   OH266555   0.605   0.507  11.632 -0.0398  0.4027 -0.4906
15047TIP3    H166556   0.512   0.509  11.613 -0.1784 -0.3817  0.0810
15047TIP3    H266557   0.625   0.595  11.664 -0.4715  0.7293 -1.1127
15048TIP3   OH266558   0.446   0.367   6.072  0.1235 -0.0830  0.2660
15048TIP3    H166559   0.465   0.274   6.070  0.9721  0.0435  1.6534
15048TIP3    H266560   0.358   0.374   6.109  0.7503 -0.2527  1.8070
15049TIP3   OH266561   6.124   3.598  17.179 -0.2288  0.0652  0.8450
15049TIP3    H166562   6.204   3.549  17.160 -0.5965  0.4211 -1.7099
15049TIP3    H266563   6.134   3.625  17.270  1.8549 -1.2109  1.0230
15050TIP3   OH266564   2.966   5.282  15.549 -0.0610  0.1718  0.0462
15050TIP3    H166565   2.874   5.264  15.528 -0.7005  2.1612  1.0235
15050TIP3    H266566   2.977   5.247  15.638 -0.0735  0.5776  0.2076
15051TIP3   OH266567   5.004   6.114  14.827  0.2417 -0.5986 -0.8646
15051TIP3    H166568   4.932   6.145  14.883  1.4465  0.5123  0.0994
15051TIP3    H266569   4.962   6.092  14.744 -1.0872  0.9290 -0.6233
15052TIP3   OH266570   5.272   5.168   3.528  0.2198  0.3431 -0.0836
15052TIP3    H166571   5.270   5.082   3.486  1.1208  1.0904 -1.7269
15052TIP3    H266572   5.236   5.153   3.615 -0.6543 -1.4811 -0.7265
15053TIP3   OH266573   0.275   6.637  16.399 -0.1363  0.1272 -0.3238
15053TIP3    H166574   0.296   6.640  16.305  0.5656 -0.5185 -0.1916
15053TIP3    H266575   0.187   6.673  16.404  0.0377  0.7107 -1.1728
15054TIP3   OH266576   4.278   6.650  14.918 -0.4375  0.3635 -0.6948
15054TIP3    H166577   4.361   6.640  14.964 -0.5838  1.7372 -0.1177
15054TIP3    H266578   4.299   6.701  14.840 -0.7066  0.5608 -0.6385
15055TIP3   OH266579   3.646   5.035   5.518  0.1584 -0.4945 -0.0173
15055TIP3    H166580   3.647   5.065   5.427 -0.3882  1.4504  0.5959
15055TIP3    H266581   3.715   5.084   5.561 -0.3006 -0.6053  0.8656
15056TIP3   OH266582   1.653   6.060  13.486  0.3421  0.1559 -0.7993
15056TIP3    H166583   1.621   6.083  13.399  0.0399  1.1422 -0.4205
15056TIP3    H266584   1.666   6.143  13.531  0.4531 -0.3482  0.1255
15057TIP3   OH266585   6.095   3.701   0.515 -0.4129 -0.3694  0.1405
15057TIP3    H166586   6.012   3.654   0.502 -0.2070 -0.4395 -1.0041
15057TIP3    H266587   6.086   3.742   0.601 -1.1433 -1.3927  0.5695
15058TIP3   OH266588   4.353   5.871   0.705 -0.0825  0.3595 -0.1394
15058TIP3    H166589   4.304   5.865   0.623 -0.4884 -0.6339  0.1649
15058TIP3    H266590   4.434   5.822   0.688 -0.0679  0.3418 -0.0194
15059TIP3   OH266591   3.555   6.501   4.339 -0.4410  0.0676 -0.1872
15059TIP3    H166592   3.481   6.455   4.378 -0.7726  0.8078  0.0694
15059TIP3    H266593   3.616   6.515   4.411 -1.4270  2.1821  0.2894
15060TIP3   OH266594   5.528   2.216  14.030 -0.6830  0.4574  0.3023
15060TIP3    H166595   5.532   2.189  13.938  1.2495  1.0812  0.1732
15060TIP3    H266596   5.482   2.300  14.028 -1.2784  0.1231 -0.0154
15061TIP3   OH266597   2.515   6.299   4.185 -0.2037  0.4906 -0.2370
15061TIP3    H166598   2.423   6.325   4.189 -0.2455  0.1924  1.0498
15061TIP3    H266599   2.556   6.348   4.256  0.8394  1.3672 -1.4121
15062TIP3   OH266600   0.891   5.397  13.475  0.0109  0.2165  0.4084
15062TIP3    H166601   0.876   5.478  13.426  2.5050  0.5990  0.2293
15062TIP3    H266602   0.892   5.424  13.566 -1.7885 -0.0491  0.5211
15063TIP3   OH266603   2.463   0.427   2.962 -0.2671 -0.1275 -0.1557
15063TIP3    H166604   2.487   0.334   2.955 -1.9157 -0.5246 -1.0220
15063TIP3    H266605   2.525   0.472   2.905 -0.3121 -0.8683 -0.8010
15064TIP3   OH266606   3.159   6.265   3.531  0.2231 -0.3256 -0.2342
15064TIP3    H166607   3.234   6.208   3.546  1.7312  1.2835 -1.4698
15064TIP3    H266608   3.083   6.211   3.552  1.5416 -3.2615 -2.6754
15065TIP3   OH266609   2.198   6.203   1.390 -0.3614 -0.0974 -0.1651
15065TIP3    H166610   2.274   6.148   1.409 -1.0121 -0.5438  1.2007
15065TIP3    H266611   2.217   6.286   1.434  0.3621  0.5988 -1.7481
15066TIP3   OH266612   0.864   2.258   0.317 -0.1890 -0.1287  0.8793
15066TIP3    H166613   0.960   2.264   0.311 -0.2083 -0.1585  0.5095
15066TIP3    H266614   0.838   2.339   0.361  0.0402 -0.3198  1.3804
15067TIP3   OH266615   3.701   6.661   0.469 -0.7323 -0.3270 -0.0144
15067TIP3    H166616   3.740   6.746   0.489 -0.7753 -0.1392 -0.6945
15067TIP3    H266617   3.660   6.674   0.383 -0.4998 -1.1137 -0.2427
15068TIP3   OH266618   5.476   5.246   3.025 -0.2687  0.5108  0.1535
15068TIP3    H166619   5.555   5.220   3.073 -1.3903 -0.4470  1.5124
15068TIP3    H266620   5.404   5.223   3.083 -1.7075 -1.2360 -2.2254
15069TIP3   OH266621   4.010   5.622   3.395  0.0098  0.4134 -0.4592
15069TIP3    H166622   3.923   5.593   3.367  0.2910 -0.5664 -0.3613
15069TIP3    H266623   4.057   5.540   3.415  0.7713  0.9556  0.0159
15070TIP3   OH266624   6.687   2.981  13.741  0.3811 -0.9688 -0.4779
15070TIP3    H166625   6.654   3.009  13.656  0.5002 -0.1444 -0.2520
15070TIP3    H266626   6.628   3.021  13.804  1.1244 -0.4328 -0.1191
15071TIP3   OH266627   2.228   5.810  13.388 -0.1912 -0.5397  0.0560
15071TIP3    H166628   2.250   5.870  13.460  0.8232 -1.5599  0.6105
15071TIP3    H266629   2.306   5.811  13.332  0.3191 -2.2518  0.7020
15072TIP3   OH266630   4.990   6.093  17.101  0.2030  0.6260 -0.2111
15072TIP3    H166631   5.075   6.064  17.069 -0.0940  1.1694 -1.5443
15072TIP3    H266632   5.005   6.179  17.139  0.5195  0.0704  0.9366
15073TIP3   OH266633   3.382   3.869   5.923  0.4404  0.3224 -0.0491
15073TIP3    H166634   3.289   3.862   5.901  0.4098  1.7085 -0.4310
15073TIP3    H266635   3.427   3.826   5.850  0.0582 -1.9182  0.9848
15074TIP3   OH266636   3.872   5.625   0.092 -0.6777 -0.5649  0.6178
15074TIP3    H166637   3.944   5.594   0.038 -0.1173  0.7502  0.5888
15074TIP3    H266638   3.850   5.711   0.057 -0.1023  0.4524  2.6527
15075TIP3   OH266639   5.982   1.250  11.693 -0.1623  0.4303  0.0946
15075TIP3    H166640   6.049   1.249  11.625  0.1453  2.8018  0.3396
15075TIP3    H266641   5.912   1.196  11.657  1.0323 -0.4243 -1.0203
15076TIP3   OH266642   4.677   4.083  14.922 -0.2943  0.3512 -0.1903
15076TIP3    H166643   4.637   4.042  14.845 -0.3157 -0.4914  0.2590
15076TIP3    H266644   4.694   4.010  14.982  1.3852  0.7773 -0.1350
15077TIP3   OH266645   3.056   5.688   5.744 -0.5819 -0.3381 -0.3038
15077TIP3    H166646   3.093   5.664   5.829 -1.2151 -0.4200 -0.0552
15077TIP3    H266647   2.962   5.677   5.754 -0.9797  2.6821 -0.0256
15078TIP3   OH266648   5.910   4.846  15.166  0.2131 -0.1704  1.2415
15078TIP3    H166649   5.985   4.795  15.199 -0.4180 -2.3983 -0.6431
15078TIP3    H266650   5.948   4.901  15.097  0.2804 -0.7902  0.7687
15079TIP3   OH266651   0.782   6.115   3.135 -0.0084  0.4603  0.4176
15079TIP3    H166652   0.805   6.146   3.047 -2.8777  0.6558 -0.2978
15079TIP3    H266653   0.753   6.194   3.181 -0.8445 -0.0365  0.7461
15080TIP3   OH266654   2.852   0.896   0.011 -0.1803  0.2673  0.5098
15080TIP3    H166655   2.877   0.969  -0.045  0.4654  0.7097  1.3494
15080TIP3    H266656   2.848   0.934   0.099 -2.6241 -0.0854  0.5879
15081TIP3   OH266657   4.006   0.698   0.961  0.0290 -0.2374 -0.0539
15081TIP3    H166658   4.092   0.698   1.004  0.2818 -2.0246 -0.5226
15081TIP3    H266659   3.951   0.646   1.018 -1.6183  3.3957  1.8278
15082TIP3   OH266660   0.574   3.241   3.801 -0.0938  0.1247 -0.0311
15082TIP3    H166661   0.499   3.183   3.790 -0.9600  1.4218 -1.0423
15082TIP3    H266662   0.641   3.186   3.843 -1.0314 -1.4821 -0.6153
15083TIP3   OH266663   6.368   0.981  15.932 -0.0383  0.4012  0.1270
15083TIP3    H166664   6.318   1.003  15.853 -1.2918 -0.6692  0.6061
15083TIP3    H266665   6.453   0.951  15.899 -0.5933 -0.1342 -0.8220
15084TIP3   OH266666   0.436   2.211   4.371 -0.1967  0.0017  0.5947
15084TIP3    H166667   0.460   2.211   4.278 -1.1952 -0.9020  0.3213
15084TIP3    H266668   0.344   2.184   4.371 -0.3513  0.5291  1.8150
15085TIP3   OH266669   6.778   5.860  10.747 -0.0043 -0.5305 -0.2734
15085TIP3    H166670   6.852   5.900  10.794  0.1499 -1.4761  0.2948
15085TIP3    H266671   6.818   5.797  10.687 -0.2946 -0.3632 -0.6470
15086TIP3   OH266672   3.102   3.801  12.411 -0.5172 -0.0056 -0.4167
15086TIP3    H166673   3.072   3.889  12.432 -0.5724 -0.0112 -0.4743
15086TIP3    H266674   3.183   3.814  12.362 -0.1945 -0.0014  0.1205
15087TIP3   OH266675   4.120   2.008   2.723  0.4300  0.1687 -0.6286
15087TIP3    H166676   4.115   2.098   2.755  2.0362  0.5173 -1.2843
15087TIP3    H266677   4.090   2.014   2.632 -0.5743 -0.1673 -0.3218
15088TIP3   OH266678   4.567   5.432   4.543 -0.2589  0.5489  0.0187
15088TIP3    H166679   4.596   5.507   4.491 -1.5569  2.9289  2.5597
15088TIP3    H266680   4.633   5.425   4.613 -0.3350 -0.4601 -0.0133
15089TIP3   OH266681   0.446   6.377   2.434  0.3215 -0.5262  0.5377
15089TIP3    H166682   0.364   6.421   2.409  1.0023 -0.0522 -0.9171
15089TIP3    H266683   0.461   6.403   2.524  0.1572  1.3799  0.0320
15090TIP3   OH266684   0.527   4.503   3.466  0.2571 -0.6236  0.0394
15090TIP3    H166685   0.546   4.435   3.531 -3.1543 -1.4482  0.2696
15090TIP3    H266686   0.478   4.570   3.514  0.4455  0.2811 -0.9912
15091TIP3   OH266687   1.416   1.859   3.881 -0.3229 -0.0497  0.2645
15091TIP3    H166688   1.424   1.926   3.949 -2.3115 -0.0833  0.5401
15091TIP3    H266689   1.344   1.803   3.910  0.9900 -2.0708 -0.1964
15092TIP3   OH266690   4.486   2.113  11.473 -0.2654 -0.0457 -0.3298
15092TIP3    H166691   4.547   2.157  11.532 -1.3953 -1.5918  2.0665
15092TIP3    H266692   4.444   2.184  11.425 -0.3455  1.3648  1.7633
15093TIP3   OH266693   0.087   4.279   4.068  0.1853 -0.1701 -0.5665
15093TIP3    H166694   0.076   4.373   4.082  0.3901 -0.1593 -0.4704
15093TIP3    H266695   0.138   4.249   4.144  0.1394 -0.3525 -0.6067
15094TIP3   OH266696   5.015   3.563   5.239  0.0179  0.2746  0.1898
15094TIP3    H166697   4.991   3.476   5.208  0.0187 -0.0408  1.0563
15094TIP3    H266698   5.034   3.612   5.160  0.6058 -0.6901 -0.2790
15095TIP3   OH266699   1.284   2.590   2.888  0.0640  0.0222  0.0612
15095TIP3    H166700   1.365   2.577   2.937  0.4965  1.9708 -0.1068
15095TIP3    H266701   1.272   2.508   2.840  2.1555 -0.1124 -0.2572
15096TIP3   OH266702   1.305   5.233   5.929  0.1287 -0.6260 -0.4875
15096TIP3    H166703   1.222   5.271   5.957  0.8179 -0.1255  0.9024
15096TIP3    H266704   1.367   5.258   5.997  0.9532 -2.8833 -0.3788
15097TIP3   OH266705   1.001   2.839   2.298  0.4333  0.1746  0.5021
15097TIP3    H166706   1.095   2.838   2.315  0.5361  1.5642  0.0652
15097TIP3    H266707   0.992   2.884   2.214 -0.6327  0.1375  0.5848
15098TIP3   OH266708   4.797   4.568   3.744  0.5160  0.2377 -0.1673
15098TIP3    H166709   4.837   4.653   3.764 -1.2872  1.1525 -0.3192
15098TIP3    H266710   4.767   4.576   3.653  0.4734 -0.6260 -0.2362
15099TIP3   OH266711   5.646   1.762  10.998 -0.0184  0.7103 -0.4475
15099TIP3    H166712   5.558   1.724  11.003 -0.0520  0.8661  0.3403
15099TIP3    H266713   5.682   1.729  10.916 -0.0283 -1.0945  0.2371
15100TIP3   OH266714   2.918   4.209  14.634 -0.2533  0.1895  0.2193
15100TIP3    H166715   2.891   4.285  14.685  1.2447  0.4402  0.6681
15100TIP3    H266716   2.875   4.135  14.675 -1.0214  0.6840  0.3178
15101TIP3   OH266717   6.780   3.590  16.294 -0.4467 -0.0066 -0.0581
15101TIP3    H166718   6.864   3.627  16.270 -0.3804 -0.4670 -0.5613
15101TIP3    H266719   6.801   3.518  16.354 -0.2557 -1.8239 -2.1973
15102TIP3   OH266720   2.483   1.397  15.175  0.3626 -0.6726  0.0352
15102TIP3    H166721   2.440   1.384  15.259  2.1478  2.2202  1.4548
15102TIP3    H266722   2.424   1.455  15.127 -0.5646 -2.1749 -0.6947
15103TIP3   OH266723   2.774   0.494  13.297  0.4164  0.4095 -0.0094
15103TIP3    H166724   2.736   0.532  13.219  1.2643  1.0172 -0.1323
15103TIP3    H266725   2.709   0.510  13.366  0.6094  1.7976 -0.1287
15104TIP3   OH266726   1.404   2.772   0.671  0.0380 -0.2673  0.1230
15104TIP3    H166727   1.481   2.813   0.709  0.2982 -0.6303 -0.0167
15104TIP3    H266728   1.357   2.735   0.745 -1.5098  2.4516  0.5802
15105TIP3   OH266729   3.304   3.748  15.913  0.6100  0.1420 -0.0189
15105TIP3    H166730   3.227   3.706  15.952  2.2579 -2.7592  0.2673
15105TIP3    H266731   3.339   3.802  15.984  0.6845 -1.1109  0.9216
15106TIP3   OH266732   3.483   6.218  15.149 -0.0265  0.0627 -0.2769
15106TIP3    H166733   3.415   6.227  15.217  0.4734 -0.0634  0.2397
15106TIP3    H266734   3.561   6.256  15.188  0.7175 -1.6060 -0.1304
15107TIP3   OH266735   3.745   5.883   1.163 -0.7054  0.7714  0.5057
15107TIP3    H166736   3.720   5.854   1.251 -0.6250  0.1764  0.3279
15107TIP3    H266737   3.687   5.957   1.145  0.4907  2.0731  1.8081
15108TIP3   OH266738   0.574   0.244  10.649  0.2198 -0.2437 -0.2083
15108TIP3    H166739   0.493   0.220  10.605  0.8533  0.3628 -1.7565
15108TIP3    H266740   0.638   0.179  10.619  0.4523 -0.3314  0.4834
15109TIP3   OH266741   4.484   0.320  13.267 -0.4095 -0.7362  0.0803
15109TIP3    H166742   4.465   0.398  13.216  0.7638 -2.4349 -3.1210
15109TIP3    H266743   4.566   0.340  13.313 -2.1378  1.2704  2.4002
15110TIP3   OH266744   4.903   1.839   6.103 -0.8678  0.5528 -0.7465
15110TIP3    H166745   4.975   1.893   6.071 -1.0636  0.4858 -1.3052
15110TIP3    H266746   4.908   1.847   6.198 -0.4780  1.0109 -0.8008
15111TIP3   OH266747   2.764   2.199   3.873  0.1089  0.1287  0.4028
15111TIP3    H166748   2.706   2.167   3.942 -0.4086  0.2983  0.0529
15111TIP3    H266749   2.708   2.205   3.796  0.2916  1.5240  0.3755
15112TIP3   OH266750   2.150   0.771   2.801  0.1001  0.0776  0.1493
15112TIP3    H166751   2.211   0.737   2.867  0.6314  1.1738  0.2263
15112TIP3    H266752   2.190   0.747   2.717  0.2008  0.0457  0.2061
15113TIP3   OH266753   3.958   0.999  17.089  0.0007 -0.7125 -0.5785
15113TIP3    H166754   3.938   1.072  17.147  0.8123 -1.9022  1.2606
15113TIP3    H266755   3.873   0.971  17.056 -0.6791 -1.0721  1.3841
15114TIP3   OH266756   5.559   3.077   1.051 -0.3852 -0.2087 -0.0967
15114TIP3    H166757   5.516   2.997   1.019 -1.4199  0.9123 -1.5214
15114TIP3    H266758   5.492   3.122   1.102  0.3560 -0.4705  1.1490
15115TIP3   OH266759   5.953   4.701  12.846  0.1435  0.6331  0.2850
15115TIP3    H166760   5.987   4.752  12.772  1.2338 -0.3379  0.1254
15115TIP3    H266761   5.964   4.759  12.921 -0.8274  1.5675 -0.2711
15116TIP3   OH266762   1.776   1.883  15.002  0.1843 -0.1325 -0.2299
15116TIP3    H166763   1.866   1.861  14.979 -0.4449 -0.7072 -2.2084
15116TIP3    H266764   1.783   1.925  15.088  2.2490 -0.8429 -0.0201
15117TIP3   OH266765   3.351   2.982   5.168  0.2504 -0.0691  0.2050
15117TIP3    H166766   3.352   3.073   5.196 -2.7375  0.9983 -2.8357
15117TIP3    H266767   3.301   2.936   5.236  0.2518  0.8492  0.8302
15118TIP3   OH266768   1.562   0.629   0.805 -0.4381 -0.5085 -0.5129
15118TIP3    H166769   1.483   0.619   0.858 -0.6929 -0.4431 -0.8763
15118TIP3    H266770   1.580   0.723   0.805  0.4023 -0.6616  0.6634
15119TIP3   OH266771   0.173   1.084   3.962  0.0420 -0.1347  0.0075
15119TIP3    H166772   0.115   1.135   4.018 -1.3151 -1.6591  0.0184
15119TIP3    H266773   0.140   1.100   3.873 -0.4263 -1.0361  0.0165
15120TIP3   OH266774   4.903   3.181   2.087 -0.5207 -0.6224  0.0513
15120TIP3    H166775   4.994   3.168   2.060 -0.5528 -0.6073 -0.0646
15120TIP3    H266776   4.851   3.159   2.009 -0.4469  2.7960 -1.0616
15121TIP3   OH266777   4.134   3.693  13.704 -0.1689  0.5159  0.2370
15121TIP3    H166778   4.218   3.662  13.738  0.4527  0.9330 -0.9110
15121TIP3    H266779   4.069   3.650  13.760  0.6550 -2.6660 -1.1287
15122TIP3   OH266780   6.622   5.106  13.845  0.0902 -0.2539  0.0078
15122TIP3    H166781   6.527   5.114  13.854  0.1328 -1.0051  1.3274
15122TIP3    H266782   6.649   5.061  13.925  1.7302  1.2079  0.2851
15123TIP3   OH266783   3.259   1.652   0.686 -0.1669 -0.1199  0.3834
15123TIP3    H166784   3.200   1.637   0.613  0.2274  1.1811 -0.2238
15123TIP3    H266785   3.219   1.606   0.760 -0.5477 -1.4539 -0.6520
15124TIP3   OH266786   4.024   4.166  13.502  0.0296 -0.6398  0.4953
15124TIP3    H166787   4.036   4.110  13.579  1.1598 -1.5920 -0.3344
15124TIP3    H266788   4.113   4.192  13.478 -0.3352 -0.1473 -0.3449
15125TIP3   OH266789   5.263   2.649   5.212  0.0504  0.8570 -0.0948
15125TIP3    H166790   5.335   2.680   5.267 -1.1617  0.4186  1.8080
15125TIP3    H266791   5.196   2.716   5.220  0.0800  1.0491 -1.4977
15126TIP3   OH266792   6.157   6.177   2.797  0.5367 -0.1495 -0.1614
15126TIP3    H166793   6.142   6.127   2.877  0.7124  0.1024  0.0312
15126TIP3    H266794   6.252   6.177   2.786  0.4848 -0.5974 -0.6387
15127TIP3   OH266795   3.496   5.960   3.001 -0.1019  0.6492  0.5814
15127TIP3    H166796   3.585   5.930   3.018  0.3546  1.1329 -0.8804
15127TIP3    H266797   3.445   5.880   2.989  0.9321  0.3469 -2.4052
15128TIP3   OH266798   6.131   1.892  13.461 -0.2193  0.0148 -0.6082
15128TIP3    H166799   6.196   1.865  13.396 -0.2865 -0.8749 -0.3099
15128TIP3    H266800   6.123   1.818  13.520 -0.5251  0.6305  0.1397
15129TIP3   OH266801   5.541   4.227   1.074 -0.3547 -0.5054  0.3536
15129TIP3    H166802   5.520   4.235   0.981  0.7615  0.2487  0.1588
15129TIP3    H266803   5.518   4.137   1.096  0.6356 -1.0945 -0.9849
15130TIP3   OH266804   0.307   6.753  11.261  0.0173 -0.2555  0.6545
15130TIP3    H166805   0.261   6.710  11.189 -0.2559 -0.5866  1.0230
15130TIP3    H266806   0.399   6.741  11.241 -0.0506  0.4459 -0.1131
15131TIP3   OH266807   6.504   6.259   4.159 -0.0727  0.7274 -0.1022
15131TIP3    H166808   6.470   6.321   4.094  0.0518  1.0892  0.1736
15131TIP3    H266809   6.598   6.279   4.162  0.6045 -1.8324 -2.5839
15132TIP3   OH266810   2.398   2.872  16.785  0.3388 -0.2872  0.0785
15132TIP3    H166811   2.308   2.881  16.816  0.7507 -0.2002  1.2784
15132TIP3    H266812   2.420   2.959  16.749 -0.3948 -0.6066 -1.1942
15133TIP3   OH266813   2.051   0.248   3.696  0.1535 -0.1467 -0.2065
15133TIP3    H166814   2.123   0.206   3.743  0.0989  0.0751  0.0745
15133TIP3    H266815   1.980   0.184   3.698  0.7639 -0.9040 -1.6131
15134TIP3   OH266816   5.997   4.193  17.042  0.3400  0.4992  0.0960
15134TIP3    H166817   6.090   4.213  17.048  0.5716 -0.5535  0.1513
15134TIP3    H266818   5.955   4.278  17.028  1.5396  0.7352 -2.4313
15135TIP3   OH266819   0.783   0.015   3.336 -0.2398 -0.0598 -1.0411
15135TIP3    H166820   0.750   0.042   3.250 -1.6640  2.2316  0.1753
15135TIP3    H266821   0.753   0.083   3.396  0.8457 -1.5460  1.2733
15136TIP3   OH266822   6.648   3.249  15.420 -0.2550 -0.4581  0.1238
15136TIP3    H166823   6.570   3.197  15.438 -0.5346 -0.2809 -0.5893
15136TIP3    H266824   6.660   3.303  15.499 -0.4229 -1.0189  0.5322
15137TIP3   OH266825   3.334   4.923  14.906  0.0250 -0.4754 -0.5766
15137TIP3    H166826   3.424   4.896  14.923  0.6439  0.3517 -2.4182
15137TIP3    H266827   3.341   5.017  14.888 -1.1646 -0.4674 -1.0047
15138TIP3   OH266828   1.744   3.949   1.243 -0.2711 -0.5245 -0.1019
15138TIP3    H166829   1.736   3.907   1.157 -1.3347  0.4214 -0.4624
15138TIP3    H266830   1.655   3.973   1.267  0.2445  0.8497  0.4535
15139TIP3   OH266831   4.780   6.589  16.712 -0.4598  0.0024 -0.1943
15139TIP3    H166832   4.814   6.644  16.783 -0.1779 -0.2916 -0.1005
15139TIP3    H266833   4.792   6.642  16.634 -0.7783  0.3332 -0.0223
15140TIP3   OH266834   1.223   1.835  12.815 -0.5761  0.2750  0.8930
15140TIP3    H166835   1.314   1.857  12.835 -0.4498 -0.4726  1.1333
15140TIP3    H266836   1.173   1.908  12.851 -0.0197  1.0798  0.0635
15141TIP3   OH266837   3.097   4.696   1.488 -0.0965  0.1405 -0.2329
15141TIP3    H166838   3.095   4.791   1.500 -0.0601  0.0740  0.3007
15141TIP3    H266839   3.019   4.664   1.534 -0.4079 -0.0429 -0.8673
15142TIP3   OH266840   4.659   3.722   3.706  0.6193  0.4977  0.1768
15142TIP3    H166841   4.739   3.734   3.654 -0.0936  1.3056 -0.7451
15142TIP3    H266842   4.608   3.801   3.690  0.0655  0.4283  1.5474
15143TIP3   OH266843   5.108   4.212  13.995 -0.2616  0.4933  0.4529
15143TIP3    H166844   5.132   4.290  14.046 -1.9308  0.3654  1.4869
15143TIP3    H266845   5.186   4.157  13.997  0.1882  1.1550  1.6490
15144TIP3   OH266846   6.176   1.530   5.512 -0.0046  0.2138 -0.1261
15144TIP3    H166847   6.261   1.528   5.469  0.4642 -0.9097  0.8290
15144TIP3    H266848   6.193   1.567   5.599  0.0560 -2.8794  1.2091
15145TIP3   OH266849   2.937   6.243   4.529  0.4898 -0.9535  0.1249
15145TIP3    H166850   3.015   6.253   4.584  0.6280 -1.0588 -0.0501
15145TIP3    H266851   2.896   6.162   4.560  0.1039 -0.5665  0.6401
15146TIP3   OH266852   2.883   1.832   5.527 -0.2981  0.0730  0.1809
15146TIP3    H166853   2.863   1.747   5.566  2.0442 -1.2749 -1.4426
15146TIP3    H266854   2.804   1.855   5.478 -0.8072 -1.3506  0.3197
15147TIP3   OH266855   5.673   3.237  16.636  0.0715 -0.4382 -0.6313
15147TIP3    H166856   5.721   3.319  16.630  0.3325 -0.4141  1.3309
15147TIP3    H266857   5.619   3.234  16.557 -0.2054  1.7729 -0.5439
15148TIP3   OH266858   1.898   5.416  13.158  0.1725 -0.9049  1.1265
15148TIP3    H166859   1.842   5.412  13.235 -1.6385 -1.5826 -0.1940
15148TIP3    H266860   1.915   5.324  13.136 -1.0138 -0.7657 -0.4531
15149TIP3   OH266861   0.304   1.444   0.904 -0.1135  0.3967  0.1104
15149TIP3    H166862   0.255   1.404   0.976  0.9560  1.0247  1.1969
15149TIP3    H266863   0.239   1.453   0.834 -1.1554 -0.2690  0.9674
15150TIP3   OH266864   5.588   0.356  10.849 -0.3595 -0.0845 -0.1171
15150TIP3    H166865   5.523   0.350  10.778 -0.7237 -1.0388  0.2838
15150TIP3    H266866   5.581   0.272  10.894 -0.7797  0.8640  1.6271
15151TIP3   OH266867   3.497   5.587  12.301 -0.5651  0.3000 -0.0599
15151TIP3    H166868   3.499   5.500  12.261  0.1268 -0.5374  1.7395
15151TIP3    H266869   3.585   5.597  12.339 -0.7315  1.6731 -0.0330
15152TIP3   OH266870   1.768   5.117   2.125  0.1927  0.0064 -0.3210
15152TIP3    H166871   1.770   5.053   2.054 -0.0319  1.4719 -1.6654
15152TIP3    H266872   1.693   5.091   2.179  1.9086 -2.6587  0.8689
15153TIP3   OH266873   0.410   2.357   6.343 -0.4088 -0.4882 -0.2726
15153TIP3    H166874   0.420   2.275   6.391 -0.0427  0.2317  0.8909
15153TIP3    H266875   0.318   2.379   6.350 -0.4530 -0.6460 -0.3474
15154TIP3   OH266876   5.212   3.996   0.822 -0.5180  0.2713 -0.1514
15154TIP3    H166877   5.191   4.027   0.734 -0.7113  1.2569  0.2293
15154TIP3    H266878   5.197   4.073   0.878  1.6785  0.3061  0.4483
15155TIP3   OH266879   2.155   0.326   2.107  0.4140 -0.0668  0.4211
15155TIP3    H166880   2.245   0.360   2.114  0.4559  0.0323 -0.4721
15155TIP3    H266881   2.154   0.248   2.163  0.7118  0.6198  1.3903
15156TIP3   OH266882   5.042   5.482  15.994  0.1194  0.0562 -0.2601
15156TIP3    H166883   5.100   5.459  16.067 -2.2350 -1.0902  1.3090
15156TIP3    H266884   5.040   5.403  15.939 -0.7641 -0.2811  0.2501
15157TIP3   OH266885   3.920   1.948  13.332  0.5021  0.0948 -1.1864
15157TIP3    H166886   3.948   1.959  13.423 -0.5549  0.4690 -0.9023
15157TIP3    H266887   3.997   1.912  13.288  0.5155 -1.5939  0.1847
15158TIP3   OH266888   6.458   5.307  12.265  0.3249 -0.1012  0.3291
15158TIP3    H166889   6.476   5.368  12.193  1.0150  0.7665  1.2237
15158TIP3    H266890   6.540   5.306  12.315  0.1194 -1.3327  0.6371
15159TIP3   OH266891   5.280   3.251  14.935  0.0073 -0.4978  1.1433
15159TIP3    H166892   5.306   3.274  15.024 -0.1026  1.1960  0.7635
15159TIP3    H266893   5.298   3.330  14.884 -2.7179 -0.3997  0.2362
15160TIP3   OH266894   6.055   1.556   4.409 -0.5524 -0.0651  0.5438
15160TIP3    H166895   6.046   1.640   4.362  2.5284  0.4978  0.8456
15160TIP3    H266896   5.973   1.547   4.457 -1.9667  1.5469 -1.4461
15161TIP3   OH266897   0.460   1.933  14.344  0.0207  0.2169  0.4854
15161TIP3    H166898   0.398   2.005  14.331 -0.1169  0.2472  1.3240
15161TIP3    H266899   0.544   1.976  14.358  0.0817  0.1920  0.2061
15162TIP3   OH266900   0.375   2.430  15.930 -0.3603 -0.4817  0.4120
15162TIP3    H166901   0.312   2.358  15.937 -0.8452 -0.1358 -0.3398
15162TIP3    H266902   0.436   2.415  16.002 -2.0211 -0.1214  1.9172
15163TIP3   OH266903   5.118   6.002   6.381  0.1837 -0.1895 -0.6999
15163TIP3    H166904   5.117   6.097   6.394  0.8004 -0.1523 -0.8807
15163TIP3    H266905   5.206   5.984   6.348 -0.4135 -0.6296 -2.1049
15164TIP3   OH266906   1.524   0.466  15.273  0.3966  0.1938 -0.0771
15164TIP3    H166907   1.562   0.524  15.339  0.0882 -0.6522  0.8751
15164TIP3    H266908   1.445   0.510  15.244  0.1455  0.2377  0.6673
15165TIP3   OH266909   5.109   0.305   2.130 -0.2821 -0.3297  0.7475
15165TIP3    H166910   5.111   0.354   2.048 -0.4447  0.1505  1.0221
15165TIP3    H266911   5.090   0.215   2.105  1.8199 -0.6223  0.0567
15166TIP3   OH266912   2.936   4.136   5.158 -0.0159 -0.5168 -0.3379
15166TIP3    H166913   2.985   4.118   5.078 -0.2689 -0.3557 -0.5279
15166TIP3    H266914   2.884   4.214   5.137 -0.0785 -0.4714 -0.0162
15167TIP3   OH266915   1.272   1.643   1.951 -0.2950  0.0550  0.0367
15167TIP3    H166916   1.254   1.580   2.021 -1.1120  0.9818  0.6763
15167TIP3    H266917   1.351   1.610   1.909 -2.3426 -3.0801 -1.5720
15168TIP3   OH266918   5.055   5.607   5.826  0.5507  0.5984  0.4501
15168TIP3    H166919   5.135   5.648   5.794 -0.0948  0.4588 -1.3883
15168TIP3    H266920   4.997   5.681   5.846  0.8601  0.6799  1.0474
15169TIP3   OH266921   2.899   6.400  15.522  0.0556 -0.8286 -0.1948
15169TIP3    H166922   2.985   6.443  15.529  1.2017 -3.0553 -0.3845
15169TIP3    H266923   2.868   6.395  15.613  0.6640 -1.0733  0.0035
15170TIP3   OH266924   3.598   1.707  11.481 -0.5263  0.1486  0.0754
15170TIP3    H166925   3.621   1.788  11.434  1.4224 -0.9268 -0.8934
15170TIP3    H266926   3.539   1.661  11.422 -0.3835  0.1365 -0.0578
15171TIP3   OH266927   3.432   4.834  11.295 -0.1808 -0.0837 -0.3417
15171TIP3    H166928   3.410   4.741  11.301 -1.9110  0.3113 -0.1777
15171TIP3    H266929   3.347   4.878  11.292  0.6233  1.4317 -1.4637
15172TIP3   OH266930   6.037   2.397   0.845 -0.6697  0.0085 -0.3396
15172TIP3    H166931   6.016   2.455   0.771 -3.4364  1.7367  1.7036
15172TIP3    H266932   5.974   2.325   0.838  0.5137 -0.9871 -0.8966
15173TIP3   OH266933   5.162   0.141   6.277  0.0243  0.9020 -0.3864
15173TIP3    H166934   5.233   0.177   6.330 -0.8708  0.9326  0.7990
15173TIP3    H266935   5.082   0.173   6.318 -0.6864  1.1498 -1.9097
15174TIP3   OH266936   2.606   4.550  17.197  0.2224  0.1565 -0.1797
15174TIP3    H166937   2.678   4.613  17.205  0.8120 -0.2683 -1.9390
15174TIP3    H266938   2.533   4.602  17.163 -0.2411  0.5288  1.3425
15175TIP3   OH266939   1.850   4.645  13.556 -0.3593  0.1840  0.6436
15175TIP3    H166940   1.913   4.672  13.489 -1.0032  1.5518  0.5867
15175TIP3    H266941   1.800   4.724  13.576 -2.5482 -1.0474  0.1743
15176TIP3   OH266942   1.038   1.185  16.355  0.4316 -0.6060 -0.0181
15176TIP3    H166943   1.020   1.278  16.339  1.3781 -0.4681 -0.2627
15176TIP3    H266944   0.986   1.164  16.433  0.4243  0.1937  0.1977
15177TIP3   OH266945   4.964   2.664   1.851 -0.6439  0.2496 -0.1359
15177TIP3    H166946   5.052   2.665   1.887 -0.5678 -0.4898 -0.2916
15177TIP3    H266947   4.963   2.589   1.791 -1.4955  0.0026  0.1705
15178TIP3   OH266948   6.337   5.636  15.610 -0.0146  0.1081  0.1897
15178TIP3    H166949   6.411   5.624  15.551 -0.0578  0.5444  0.0443
15178TIP3    H266950   6.376   5.674  15.689 -0.0914  0.4078  0.0858
15179TIP3   OH266951   0.364   2.573  14.358  0.2279 -0.2360 -0.1021
15179TIP3    H166952   0.424   2.647  14.360  1.5576 -1.3189  1.5536
15179TIP3    H266953   0.298   2.597  14.294  1.2462  1.9081 -0.3766
15180TIP3   OH266954   0.739   6.039  16.106  0.5239  0.5655  0.0107
15180TIP3    H166955   0.710   5.994  16.185  0.3862 -0.9885 -0.9013
15180TIP3    H266956   0.825   6.001  16.088 -0.1690 -0.3124 -1.5187
15181TIP3   OH266957   2.304   6.172  15.832  0.4679  0.7010 -0.4918
15181TIP3    H166958   2.319   6.164  15.738  1.4218 -0.6120 -0.2401
15181TIP3    H266959   2.269   6.086  15.859  0.1343  1.0833  0.3409
15182TIP3   OH266960   0.195   1.332  12.734  0.2956 -0.1809 -0.6819
15182TIP3    H166961   0.126   1.384  12.693  0.9242  0.2545 -1.2159
15182TIP3    H266962   0.266   1.332  12.669  0.5133 -1.2465 -0.4514
15183TIP3   OH266963   4.528   3.703   4.091 -0.3132  0.1554  0.0618
15183TIP3    H166964   4.435   3.682   4.090 -0.3215  0.1963 -0.8232
15183TIP3    H266965   4.546   3.733   4.180 -1.3366  0.9690  0.0022
15184TIP3   OH266966   5.910   6.673  11.572 -0.1776  0.1282 -0.0001
15184TIP3    H166967   5.912   6.610  11.500  0.0806 -0.2100  0.3001
15184TIP3    H266968   5.998   6.670  11.609 -0.6488 -0.5758  1.0863
15185TIP3   OH266969   2.602   6.554  16.654  0.1215 -0.1876  0.2451
15185TIP3    H166970   2.507   6.552  16.650  0.1169  0.4251 -0.0283
15185TIP3    H266971   2.622   6.625  16.715  0.3705 -1.7457  2.0364
15186TIP3   OH266972   5.816   6.126   4.335  0.6496  0.2424 -0.2984
15186TIP3    H166973   5.870   6.171   4.271 -0.2211  3.5804  1.2416
15186TIP3    H266974   5.856   6.039   4.343  2.9827  1.0503 -2.5497
15187TIP3   OH266975   4.077   5.285   5.745 -0.4797 -0.0501  0.0326
15187TIP3    H166976   4.160   5.238   5.736 -1.0772 -1.0930 -0.0424
15187TIP3    H266977   4.089   5.340   5.823  0.6508  0.5866 -0.5769
15188TIP3   OH266978   1.622   0.892   0.383  0.0587  0.1757 -0.1088
15188TIP3    H166979   1.587   0.963   0.329 -1.2041  0.2292  0.7640
15188TIP3    H266980   1.581   0.904   0.469  1.1402 -0.6065  0.5353
15189TIP3   OH266981   6.727   5.826  11.424  0.6557 -0.5330 -0.2216
15189TIP3    H166982   6.730   5.874  11.507  2.9976 -1.4626  0.2772
15189TIP3    H266983   6.714   5.894  11.358 -1.3069  0.2135  0.8729
15190TIP3   OH266984   3.543   0.526  13.713  0.3170 -0.1511 -0.0254
15190TIP3    H166985   3.479   0.587  13.677  0.4622  0.2900  0.4668
15190TIP3    H266986   3.607   0.515  13.643  0.0878 -0.0422 -0.2557
15191TIP3   OH266987   6.409   1.028  11.718  0.2197 -0.3599  0.3537
15191TIP3    H166988   6.485   1.061  11.669 -0.1384 -1.1027 -0.7162
15191TIP3    H266989   6.437   0.942  11.750 -0.1002 -0.5459  0.1334
15192TIP3   OH266990   1.000   0.790   6.480  0.1136 -0.0092 -0.3316
15192TIP3    H166991   0.951   0.823   6.404  0.7920  0.3632 -0.6209
15192TIP3    H266992   0.942   0.726   6.521  0.4889 -1.6391 -2.2787
15193TIP3   OH266993   0.659   3.380  12.999  0.0863 -0.0980 -0.5575
15193TIP3    H166994   0.614   3.366  12.916  1.2269 -0.8219 -1.0774
15193TIP3    H266995   0.595   3.358  13.066 -1.2091  1.5992 -1.2214
15194TIP3   OH266996   5.832   5.722   2.337  0.2571 -0.2575  0.6891
15194TIP3    H166997   5.901   5.786   2.316  1.3872 -1.3531  0.9951
15194TIP3    H266998   5.841   5.708   2.432 -1.8453  1.2481  1.1329
15195TIP3   OH266999   4.808   3.701  14.848 -0.1879  0.4652 -0.1355
15195TIP3    H167000   4.836   3.610  14.864 -0.1342  0.3402 -0.9429
15195TIP3    H267001   4.889   3.749  14.836 -0.2715  0.2141 -1.8728
15196TIP3   OH267002   4.903   4.378   4.566 -0.3660  1.1152 -0.7598
15196TIP3    H167003   4.965   4.330   4.511 -1.4075  0.5116 -1.3995
15196TIP3    H267004   4.817   4.358   4.530 -1.0389  0.9998  0.8734
15197TIP3   OH267005   5.633   1.481   2.820  0.5155  0.1392  0.7558
15197TIP3    H167006   5.695   1.550   2.798  0.5959  0.0894  0.8236
15197TIP3    H267007   5.551   1.526   2.839  0.2239  0.1241 -0.4355
15198TIP3   OH267008   0.154   0.857  17.065  0.1669 -0.0538  0.1602
15198TIP3    H167009   0.129   0.895  16.981 -0.4556  1.0228  0.8164
15198TIP3    H267010   0.075   0.810  17.094 -0.3166  1.3013  1.0937
15199TIP3   OH267011   6.561   3.119  16.044  0.2519  0.4247  0.4105
15199TIP3    H167012   6.508   3.135  16.122 -2.9167  0.6195 -1.6825
15199TIP3    H267013   6.584   3.206  16.012 -0.1825  0.4089  0.0378
15200TIP3   OH267014   1.880   1.115  12.887 -0.3299  0.4510  0.6576
15200TIP3    H167015   1.857   1.188  12.945 -0.0303  0.2713  0.9991
15200TIP3    H267016   1.936   1.155  12.820 -0.8276  0.6949  0.3738
15201TIP3   OH267017   1.840   2.345  12.005  0.1837 -0.2571  0.3133
15201TIP3    H167018   1.849   2.320  12.097 -2.0647  0.7643  0.8264
15201TIP3    H267019   1.891   2.426  11.996 -1.0110  0.5797  1.0641
15202TIP3   OH267020   2.175   3.451  15.445 -0.4599 -0.0179  0.1208
15202TIP3    H167021   2.186   3.539  15.481  0.6893 -0.5494  1.1246
15202TIP3    H267022   2.264   3.416  15.441 -0.8866 -1.0540 -0.4903
15203TIP3   OH267023   4.659   2.117  16.341  0.8411 -1.0021  0.1137
15203TIP3    H167024   4.570   2.146  16.319  1.7444  0.2994 -2.0594
15203TIP3    H267025   4.646   2.045  16.403 -1.7187 -0.7060  0.0030
15204TIP3   OH267026   6.145   2.537   3.164  0.6580 -0.0617 -0.2662
15204TIP3    H167027   6.139   2.540   3.068 -0.3209 -2.2758 -0.2980
15204TIP3    H267028   6.239   2.526   3.181  0.8394  0.3270 -0.9689
15205TIP3   OH267029   0.758   1.887   2.509  0.2672  0.1285  0.0049
15205TIP3    H167030   0.821   1.849   2.571  1.3845  1.1909 -0.4626
15205TIP3    H267031   0.698   1.938   2.564  0.2669 -0.2608  0.3721
15206TIP3   OH267032   4.253   5.339  14.927 -0.7993 -0.6027 -0.1508
15206TIP3    H167033   4.225   5.418  14.973 -1.1031  1.0240 -3.0009
15206TIP3    H267034   4.194   5.271  14.958 -1.1771  0.4938  1.6180
15207TIP3   OH267035   5.540   2.604   2.094  0.0518  0.0566  0.2193
15207TIP3    H167036   5.478   2.675   2.106 -0.2111  0.1891 -1.6577
15207TIP3    H267037   5.617   2.646   2.054  0.8165 -0.3277  1.2757
15208TIP3   OH267038   3.633   4.281  16.713  0.3106 -0.1291  0.0457
15208TIP3    H167039   3.679   4.365  16.725  0.1553 -0.0928  0.4106
15208TIP3    H267040   3.702   4.215  16.723  0.5636 -0.0186 -0.9680
15209TIP3   OH267041   3.301   1.577  17.134 -0.2527 -0.4542  0.5354
15209TIP3    H167042   3.389   1.572  17.096 -0.5380 -0.7365 -0.0923
15209TIP3    H267043   3.316   1.584  17.228  0.3836 -2.8345  0.6233
15210TIP3   OH267044   2.911   1.482  10.309  0.0348 -0.4632  0.5119
15210TIP3    H167045   2.902   1.387  10.319  1.1597 -0.6209  0.1459
15210TIP3    H267046   2.832   1.509  10.263  0.0393 -1.3317 -0.0172
15211TIP3   OH267047   4.890   5.830   1.161  0.0137  0.4395 -0.5574
15211TIP3    H167048   4.811   5.776   1.167 -0.3339  1.1975  2.4421
15211TIP3    H267049   4.951   5.778   1.109 -0.1991 -3.0324  2.4670
15212TIP3   OH267050   2.067   2.961   5.069  0.3902 -0.3679 -0.3954
15212TIP3    H167051   2.013   2.985   5.144  0.1964  2.4175 -1.3773
15212TIP3    H267052   2.085   2.867   5.081 -1.6149 -0.5032  1.8458
15213TIP3   OH267053   3.209   4.941  16.706 -0.1359  0.0264  0.0596
15213TIP3    H167054   3.175   4.992  16.632  0.8141  1.6131  0.6973
15213TIP3    H267055   3.157   4.860  16.705 -1.8553  1.1161 -0.7973
15214TIP3   OH267056   0.268   5.450   0.113  0.2328 -0.0443 -0.1454
15214TIP3    H167057   0.228   5.503   0.181  1.2643  0.7341 -0.1296
15214TIP3    H267058   0.213   5.465   0.036 -1.1012 -1.1549  0.5835
15215TIP3   OH267059   3.422   2.393   3.118  0.1265  0.2266 -0.0545
15215TIP3    H167060   3.493   2.454   3.133  0.5338 -0.5096  1.0639
15215TIP3    H267061   3.390   2.370   3.206  0.5812 -1.8531 -0.3902
15216TIP3   OH267062   5.597   0.725  11.323 -0.6216 -0.3070  0.7508
15216TIP3    H167063   5.569   0.804  11.369 -1.3066  0.5520 -1.1209
15216TIP3    H267064   5.633   0.669  11.392 -0.6964  1.3712  2.1773
15217TIP3   OH267065   0.895   1.128  12.916 -1.0297 -0.7188  0.3736
15217TIP3    H167066   0.885   1.135  12.821 -0.2331  1.5282  0.4147
15217TIP3    H267067   0.986   1.153  12.932 -1.4129 -0.1917  1.8032
15218TIP3   OH267068   0.839   4.663  13.348  0.2384 -0.1856  0.1658
15218TIP3    H167069   0.906   4.658  13.417  0.5824  2.1402  0.0416
15218TIP3    H267070   0.888   4.677  13.268 -0.3267  0.1030 -0.1322
15219TIP3   OH267071   3.635   3.229   0.451 -0.2778 -1.0392  0.1605
15219TIP3    H167072   3.564   3.222   0.387  0.3022 -1.0538 -0.4882
15219TIP3    H267073   3.591   3.235   0.536 -1.0172 -3.0028 -0.0626
15220TIP3   OH267074   0.789   2.663  11.535  0.1559  0.2678 -0.2437
15220TIP3    H167075   0.729   2.589  11.524  3.7355 -2.5163 -2.0699
15220TIP3    H267076   0.808   2.692  11.446  1.2556  1.3498  0.3316
15221TIP3   OH267077   5.563   5.681   1.838 -0.3003 -0.3944  0.0330
15221TIP3    H167078   5.538   5.727   1.757  1.6504  1.2708  0.3500
15221TIP3    H267079   5.571   5.589   1.811  0.3842  0.1442 -1.6849
15222TIP3   OH267080   3.196   6.398   3.758  0.9518 -0.0287 -0.1193
15222TIP3    H167081   3.183   6.422   3.666 -0.3083  0.8671  0.2727
15222TIP3    H267082   3.152   6.313   3.767 -0.4546  0.7072  0.0571
15223TIP3   OH267083   5.817   0.374   4.453 -0.0834  0.3068  0.0601
15223TIP3    H167084   5.897   0.328   4.429 -0.4031 -0.4988  0.5167
15223TIP3    H267085   5.829   0.463   4.420  0.6070 -0.0645 -0.6823
15224TIP3   OH267086   1.456   3.174   4.340 -0.3333 -0.3334  0.2156
15224TIP3    H167087   1.398   3.248   4.320  0.9279  1.0879  1.7651
15224TIP3    H267088   1.423   3.139   4.422  0.5957  0.0885  0.7792
15225TIP3   OH267089   6.469   5.360   3.193  0.5801 -0.2172 -0.3106
15225TIP3    H167090   6.374   5.368   3.195  0.6238  0.0585  1.4064
15225TIP3    H267091   6.485   5.270   3.165 -0.2191 -0.6203  0.4975
15226TIP3   OH267092   3.760   2.408   3.479  0.2922  0.7039 -0.3297
15226TIP3    H167093   3.769   2.456   3.561  0.3097 -0.5320  0.4006
15226TIP3    H267094   3.847   2.371   3.463 -0.2039 -0.6700  0.1144
15227TIP3   OH267095   0.967   3.388   0.260  0.1631 -0.0283 -0.2674
15227TIP3    H167096   1.020   3.464   0.282 -0.6771  0.6558 -0.5585
15227TIP3    H267097   0.913   3.417   0.186 -1.9082 -0.1117  1.1590
15228TIP3   OH267098   4.652   5.944  15.121 -0.2014  0.6469  0.2392
15228TIP3    H167099   4.694   5.951  15.207 -3.6577 -2.2787  2.3228
15228TIP3    H267100   4.587   6.015  15.121 -2.0461 -0.9770  1.2586
15229TIP3   OH267101   3.758   2.822  12.520 -0.0999  0.4048 -0.6143
15229TIP3    H167102   3.786   2.913  12.521  2.5388 -0.2776 -3.6855
15229TIP3    H267103   3.828   2.775  12.566 -0.2768 -0.3601 -1.1257
15230TIP3   OH267104   2.178   3.493  14.531  0.1235 -0.5501  0.4363
15230TIP3    H167105   2.154   3.582  14.505  1.8915  0.2650  1.5157
15230TIP3    H267106   2.157   3.439  14.455  1.0996  1.1117 -1.0351
15231TIP3   OH267107   2.747   5.011  14.744  0.2926  0.0012  0.1338
15231TIP3    H167108   2.812   4.990  14.676  0.2601  0.8076 -0.1480
15231TIP3    H267109   2.788   4.984  14.826  0.6250 -0.3120 -0.1347
15232TIP3   OH267110   5.271   6.737   5.226  0.3424 -0.1597 -0.1043
15232TIP3    H167111   5.279   6.828   5.199  2.2172  0.2023  1.5432
15232TIP3    H267112   5.352   6.719   5.272  0.8865 -3.2952 -2.1552
15233TIP3   OH267113   2.031   1.533   1.432 -0.1919 -0.1419 -0.8131
15233TIP3    H167114   2.006   1.532   1.339 -1.6496 -0.2276 -0.4340
15233TIP3    H267115   2.127   1.528   1.431 -0.1193  1.2866 -2.3396
15234TIP3   OH267116   2.249   2.009   6.389 -0.4220  0.7498 -0.5044
15234TIP3    H167117   2.252   2.102   6.411 -1.6002  0.7732 -0.4216
15234TIP3    H267118   2.341   1.982   6.387 -0.0555  1.9654 -0.7559
15235TIP3   OH267119   6.531   1.222  15.524 -0.1282 -0.1950  0.2767
15235TIP3    H167120   6.512   1.129  15.512  2.5573 -1.0006  1.7906
15235TIP3    H267121   6.588   1.244  15.450 -1.1084  0.3830 -0.3211
15236TIP3   OH267122   3.661   6.678   1.689 -0.2681  0.0402  0.1290
15236TIP3    H167123   3.636   6.702   1.778  0.1203 -0.6938  0.4420
15236TIP3    H267124   3.723   6.607   1.700 -1.6013 -1.3102 -0.7765
15237TIP3   OH267125   2.034   5.660   4.304  0.1485 -0.1398  0.3366
15237TIP3    H167126   1.989   5.578   4.283 -0.0503 -0.2801  1.2966
15237TIP3    H267127   2.064   5.693   4.219 -0.6959 -0.6661 -0.1766
15238TIP3   OH267128   6.579   3.615   5.034  0.3211 -0.2146 -0.4516
15238TIP3    H167129   6.586   3.521   5.019  0.4864 -0.8717  3.3315
15238TIP3    H267130   6.507   3.624   5.096  0.9703  2.0674  0.0012
15239TIP3   OH267131   6.162   3.974  12.315 -0.4870  0.5155  0.5484
15239TIP3    H167132   6.249   3.933  12.321 -1.1958 -1.1257  0.0075
15239TIP3    H267133   6.130   3.974  12.405 -0.5671 -0.3475  0.5263
15240TIP3   OH267134   6.323   5.495   5.535  0.1431  0.0739  0.6130
15240TIP3    H167135   6.382   5.554   5.582 -0.3494 -0.0011  1.3403
15240TIP3    H267136   6.273   5.451   5.604 -0.0023 -0.6610  0.0485
15241TIP3   OH267137   3.125   1.498  12.869  0.0995  0.1940  0.1334
15241TIP3    H167138   3.121   1.428  12.804 -0.8021  0.6189 -0.2910
15241TIP3    H267139   3.207   1.544  12.851  0.2888 -0.2510 -0.1189
15242TIP3   OH267140   3.793   4.465   3.246  0.1637  0.4528  0.2577
15242TIP3    H167141   3.880   4.462   3.206  0.0127 -1.6944  0.0559
15242TIP3    H267142   3.785   4.382   3.293 -1.7591  0.6617  0.3320
15243TIP3   OH267143   5.327   6.146   3.495  0.6852  0.0842 -0.0654
15243TIP3    H167144   5.247   6.173   3.541 -0.7600 -1.5617 -1.4969
15243TIP3    H267145   5.391   6.213   3.517 -1.0250  1.3392  1.3148
15244TIP3   OH267146   2.202   0.834  16.690  0.3910  0.1056 -0.3580
15244TIP3    H167147   2.160   0.766  16.637 -2.1799 -0.5857  2.4000
15244TIP3    H267148   2.269   0.787  16.740  0.5073  0.1197 -0.5020
15245TIP3   OH267149   4.597   6.481  17.047  0.0280  0.5407 -0.5860
15245TIP3    H167150   4.594   6.565  17.094  0.2289  0.9033 -1.2281
15245TIP3    H267151   4.514   6.478  16.999 -0.5624 -0.2142  0.4389
15246TIP3   OH267152   1.022   4.399   4.913  0.2456 -0.1006  0.1978
15246TIP3    H167153   1.001   4.335   4.981  0.1623  0.8263  1.0538
15246TIP3    H267154   1.101   4.364   4.871 -0.6322 -1.5037 -0.3240
15247TIP3   OH267155   6.244   1.862   0.633 -0.0175  0.1012 -0.1721
15247TIP3    H167156   6.182   1.926   0.598 -0.8090 -0.5585 -0.0075
15247TIP3    H267157   6.259   1.890   0.723  2.8866  2.4483 -1.3041
15248TIP3   OH267158   3.593   5.144  13.348 -0.2218 -0.0059  0.1494
15248TIP3    H167159   3.607   5.117  13.439 -0.0923 -0.6374 -0.0550
15248TIP3    H267160   3.498   5.138  13.336 -0.3767  1.3319  0.6275
15249TIP3   OH267161   2.649   1.329   5.401 -0.4875  0.0481 -0.1415
15249TIP3    H167162   2.640   1.424   5.400 -0.9052  0.0085 -0.1058
15249TIP3    H267163   2.572   1.297   5.355 -0.5783 -0.2942  0.2521
15250TIP3   OH267164   4.086   4.284   4.325  0.4031  0.3271 -0.4528
15250TIP3    H167165   4.004   4.236   4.314  1.1033 -0.7358 -1.1722
15250TIP3    H267166   4.129   4.240   4.398  0.9753 -0.0548 -1.0120
15251TIP3   OH267167   2.922   1.162  10.557 -0.2696 -0.0575  0.1658
15251TIP3    H167168   2.919   1.171  10.462 -0.8746 -0.0126  0.1844
15251TIP3    H267169   2.830   1.150  10.582 -0.2880  1.5902  0.9061
15252TIP3   OH267170   2.884   4.024   3.990  0.4210  0.3325 -0.2599
15252TIP3    H167171   2.913   4.069   4.069  1.0400  0.0422 -0.3202
15252TIP3    H267172   2.832   4.090   3.943  0.2787  0.5919  0.2488
15253TIP3   OH267173   0.188   0.803  11.616 -0.5863  0.7158  0.0168
15253TIP3    H167174   0.164   0.866  11.548 -2.8943 -0.3262 -0.1632
15253TIP3    H267175   0.107   0.787  11.664  0.5248 -0.2748  1.6060
15254TIP3   OH267176   0.676   1.673   0.304  0.3081 -0.7760 -0.7900
15254TIP3    H167177   0.722   1.590   0.290  0.3429 -1.1152  1.3039
15254TIP3    H267178   0.746   1.737   0.318  0.2021 -1.0702  1.1880
15255TIP3   OH267179   2.176   3.407  12.499  0.2139 -0.1909  0.5258
15255TIP3    H167180   2.186   3.494  12.461 -0.3425 -0.2017  0.3523
15255TIP3    H267181   2.265   3.382  12.525  0.1978  0.9527  1.7376
15256TIP3   OH267182   1.171   2.856   4.830  0.0391 -0.3004  0.4212
15256TIP3    H167183   1.210   2.769   4.832 -1.5140 -1.1341 -2.5108
15256TIP3    H267184   1.242   2.912   4.797 -0.5634 -1.5081 -3.1856
15257TIP3   OH267185   1.372   4.279  12.688  0.0375 -0.1151  0.8903
15257TIP3    H167186   1.326   4.196  12.682 -0.3676  0.1407  0.4234
15257TIP3    H267187   1.374   4.298  12.782 -1.1733  0.0618  0.8933
15258TIP3   OH267188   3.259   4.823   5.930 -0.1266 -0.1771 -0.1704
15258TIP3    H167189   3.243   4.879   6.006  2.3131  0.9672 -0.4176
15258TIP3    H267190   3.300   4.745   5.966  0.4791  0.1078 -0.2265
15259TIP3   OH267191   5.668   5.705  10.424  0.3050  0.6909 -0.0479
15259TIP3    H167192   5.687   5.747  10.507  1.0524 -0.4340  0.3627
15259TIP3    H267193   5.705   5.764  10.358  1.5884  0.5366  0.5353
15260TIP3   OH267194   3.748   2.291   5.825  0.1223  0.5868  0.0981
15260TIP3    H167195   3.723   2.248   5.907 -0.1847  0.6193  0.0220
15260TIP3    H267196   3.690   2.368   5.820  0.7815  1.1072  0.3213
15261TIP3   OH267197   0.563   2.702   3.013 -0.1893 -0.1390  0.2014
15261TIP3    H167198   0.514   2.695   2.931 -0.4500 -1.4366  0.4454
15261TIP3    H267199   0.654   2.716   2.986 -0.4718  0.8166 -0.2751
15262TIP3   OH267200   3.984   6.124  16.679 -0.3701  0.6976 -0.2561
15262TIP3    H167201   3.931   6.072  16.619  0.9985 -0.2536 -0.6821
15262TIP3    H267202   3.928   6.138  16.756 -0.9321 -0.9923 -0.3510
15263TIP3   OH267203   1.239   0.355   2.594 -0.4964  0.1153  1.1171
15263TIP3    H167204   1.329   0.386   2.579 -0.6497  0.5886  1.1911
15263TIP3    H267205   1.241   0.264   2.564 -0.7780  1.0290 -1.8314
15264TIP3   OH267206   5.364   1.021   6.017 -0.0889 -0.6948  0.2575
15264TIP3    H167207   5.458   1.004   6.020  0.1960  0.7505  0.0484
15264TIP3    H267208   5.325   0.939   5.988  1.2973 -0.7365 -1.5772
15265TIP3   OH267209   3.488   6.176   3.230 -0.1667  0.2881 -0.0595
15265TIP3    H167210   3.438   6.154   3.151  0.4546  1.2775 -0.7522
15265TIP3    H267211   3.432   6.238   3.277 -0.5998 -0.4139  0.3451
15266TIP3   OH267212   4.234   0.902  13.438  0.3975 -0.0199 -0.3145
15266TIP3    H167213   4.330   0.902  13.433  0.4684  0.1127  0.8322
15266TIP3    H267214   4.212   0.812  13.464  0.1960 -0.1068 -0.7854
15267TIP3   OH267215   2.451   2.777  11.297  0.1763  0.2370  0.2640
15267TIP3    H167216   2.407   2.694  11.317 -0.9699  0.9943  0.9367
15267TIP3    H267217   2.383   2.844  11.309  0.8455  1.1954 -1.1613
15268TIP3   OH267218   4.042   6.105  12.623 -0.5878  0.6650 -0.0826
15268TIP3    H167219   3.988   6.111  12.702 -1.4266 -1.0739 -0.4802
15268TIP3    H267220   4.097   6.028  12.639 -1.3634 -0.2023 -1.5272
15269TIP3   OH267221   6.197   3.094   4.555  0.4170 -0.4522  0.5144
15269TIP3    H167222   6.181   3.121   4.646 -0.7503 -0.7419  0.4109
15269TIP3    H267223   6.278   3.138   4.531 -0.0027  0.7644  1.2472
15270TIP3   OH267224   3.041   5.846  16.108  0.3735  0.1546  0.2404
15270TIP3    H167225   3.073   5.925  16.150  0.4088  0.2367  0.0617
15270TIP3    H267226   3.105   5.779  16.131 -0.3294 -0.1123  1.4288
15271TIP3   OH267227   6.653   3.349  13.378  0.1660 -0.2878  0.2883
15271TIP3    H167228   6.721   3.329  13.314  0.9013  0.3288  0.8739
15271TIP3    H267229   6.573   3.355  13.326  0.7109 -0.0844 -0.5359
15272TIP3   OH267230   3.982   6.160  15.334 -0.0103 -0.1997  0.0845
15272TIP3    H167231   3.918   6.230  15.339 -1.0888 -0.9973 -2.0791
15272TIP3    H267232   3.951   6.094  15.396 -0.8584 -0.2319 -0.3719
15273TIP3   OH267233   4.838   6.291   1.381  0.5220  0.2464 -0.3873
15273TIP3    H167234   4.823   6.312   1.289  1.5921  1.2931 -0.3387
15273TIP3    H267235   4.801   6.204   1.392 -1.0318  0.7511 -1.4200
15274TIP3   OH267236   3.011   4.680  16.024 -0.0832  0.1287  0.1411
15274TIP3    H167237   2.927   4.637  16.036  0.0836 -0.6129 -1.2981
15274TIP3    H267238   3.065   4.616  15.977  0.4777  1.5425 -1.1593
15275TIP3   OH267239   6.447   5.122  10.601 -0.1832 -0.3422 -1.1792
15275TIP3    H167240   6.385   5.101  10.671  0.5537  0.7878 -0.1650
15275TIP3    H267241   6.399   5.179  10.542  0.8153  3.2572  1.3237
15276TIP3   OH267242   4.905   0.793  14.116  0.0091 -0.5902 -0.8011
15276TIP3    H167243   4.996   0.800  14.144 -0.1389  0.0451 -0.4857
15276TIP3    H267244   4.891   0.699  14.104  0.7079 -0.6902 -0.8660
15277TIP3   OH267245   3.247   0.957   5.836  0.4958 -0.2008  0.6784
15277TIP3    H167246   3.261   0.898   5.909  1.5226 -2.5095 -1.3125
15277TIP3    H267247   3.155   0.984   5.844 -0.6980 -3.8778  0.4127
15278TIP3   OH267248   3.362   5.551  14.891 -0.0591  0.6332  0.1852
15278TIP3    H167249   3.354   5.641  14.860 -1.6240  2.5826  5.7014
15278TIP3    H267250   3.456   5.533  14.889  0.2067  2.0434 -1.7190
15279TIP3   OH267251   1.547   3.110   4.074 -0.2781  0.6725  0.4193
15279TIP3    H167252   1.522   3.099   4.166 -1.9445  0.0409 -0.0863
15279TIP3    H267253   1.485   3.175   4.040 -0.0674  0.4360 -0.4260
15280TIP3   OH267254   2.545   4.390   6.493  0.2590  0.1822  0.1395
15280TIP3    H167255   2.601   4.356   6.424 -0.9626  0.5277 -1.0411
15280TIP3    H267256   2.469   4.331   6.494 -1.3680  2.1736 -1.2008
15281TIP3   OH267257   6.617   3.052   2.272  0.2517 -0.1188  0.2748
15281TIP3    H167258   6.624   3.092   2.186  0.6394  2.6449  1.5322
15281TIP3    H267259   6.702   3.008   2.285  1.3921  2.1018  0.4959
15282TIP3   OH267260   4.747   5.196  14.334 -0.0414 -0.1363  0.1375
15282TIP3    H167261   4.839   5.218  14.320  0.2692 -0.3759  1.7249
15282TIP3    H267262   4.700   5.248  14.269  1.3086 -1.1648 -1.7164
15283TIP3   OH267263   6.530   5.381  15.482 -0.1389 -0.0836 -0.3020
15283TIP3    H167264   6.624   5.364  15.485 -0.3964 -1.5752 -0.4249
15283TIP3    H267265   6.511   5.392  15.389 -0.0972  0.1364 -0.2836
15284TIP3   OH267266   3.999   0.163   4.076 -0.0723 -0.1750 -0.1768
15284TIP3    H167267   3.910   0.175   4.108 -0.3457 -0.2890 -0.8916
15284TIP3    H267268   4.005   0.070   4.055  1.4340 -1.0034  3.5184
15285TIP3   OH267269   6.749   4.627  15.142  0.0559  1.0623  0.7572
15285TIP3    H167270   6.762   4.664  15.055 -0.8159  0.1466  0.2190
15285TIP3    H267271   6.760   4.532  15.130 -1.3480  0.7973  1.3649
15286TIP3   OH267272   5.641   2.669   0.596  0.1889  0.4823  0.6870
15286TIP3    H167273   5.651   2.649   0.503 -0.1516 -0.7533  0.9050
15286TIP3    H267274   5.634   2.764   0.600 -0.9864  0.4626 -0.6672
15287TIP3   OH267275   3.398   1.800  12.982  0.0094  0.0101 -0.5030
15287TIP3    H167276   3.483   1.844  12.981  0.3036 -0.5758 -1.5618
15287TIP3    H267277   3.418   1.709  12.961 -1.1384  0.3262 -3.0781
15288TIP3   OH267278   2.699   4.972   3.891 -0.4648  0.3813  0.2781
15288TIP3    H167279   2.664   5.038   3.831 -1.4975  1.3769  1.9656
15288TIP3    H267280   2.645   4.894   3.874 -1.3712  0.9382  0.5618
15289TIP3   OH267281   6.226   0.132  16.035  0.3725  0.3685 -0.0005
15289TIP3    H167282   6.235   0.133  16.130 -1.6847 -0.3822  0.2210
15289TIP3    H267283   6.239   0.224  16.009  0.6313  0.6266  1.0218
15290TIP3   OH267284   5.916   5.871   2.616  0.3691  0.0940 -0.6399
15290TIP3    H167285   6.010   5.862   2.600  0.5934  0.4146  0.4710
15290TIP3    H267286   5.891   5.787   2.655  0.1720 -0.0422 -1.0648
15291TIP3   OH267287   1.425   5.381  17.050 -0.4393 -0.4498 -0.3197
15291TIP3    H167288   1.446   5.289  17.065 -1.1074 -0.5205  0.1905
15291TIP3    H267289   1.509   5.427  17.060  0.1171 -1.1322 -1.7431
15292TIP3   OH267290   1.265   4.280   1.907  1.0600  0.0850  0.3815
15292TIP3    H167291   1.246   4.351   1.845  0.0296  0.4224  1.0716
15292TIP3    H267292   1.225   4.202   1.867  0.0879  0.3714  0.7856
15293TIP3   OH267293   2.589   3.817  12.490  0.1895 -0.0605  0.2861
15293TIP3    H167294   2.647   3.742  12.474 -1.3980 -1.3572  0.4354
15293TIP3    H267295   2.600   3.837  12.583 -1.9632 -2.3675  1.0771
15294TIP3   OH267296   0.556   6.340  10.508 -0.0965 -0.0319  0.3189
15294TIP3    H167297   0.478   6.396  10.508 -0.0050  0.0991  0.6786
15294TIP3    H267298   0.563   6.308  10.418 -0.7295 -0.2645  0.3427
15295TIP3   OH267299   1.600   6.511  16.681  0.0334 -0.4572 -0.2867
15295TIP3    H167300   1.572   6.420  16.692  1.0793 -0.6926  0.4999
15295TIP3    H267301   1.623   6.539  16.770  1.2265  0.0755 -0.7650
15296TIP3   OH267302   1.556   5.141  16.466  0.2112  0.5022  0.0353
15296TIP3    H167303   1.568   5.132  16.371  0.8102  0.2968  0.1249
15296TIP3    H267304   1.497   5.069  16.489  1.7550 -0.7560  0.1349
15297TIP3   OH267305   0.344   5.406  16.566  0.2567  0.4875 -0.0843
15297TIP3    H167306   0.430   5.446  16.550  1.3137 -1.2595  0.9971
15297TIP3    H267307   0.331   5.348  16.491  1.7552 -2.0082  1.4893
15298TIP3   OH267308   5.321   1.996  15.758  0.7209 -0.0499  0.4010
15298TIP3    H167309   5.366   1.959  15.834  0.9942  0.7088  0.6138
15298TIP3    H267310   5.268   2.067  15.795  0.6108  0.1121 -0.0744
15299TIP3   OH267311   5.130   6.264  13.248  0.1347  0.2596 -0.0184
15299TIP3    H167312   5.176   6.271  13.331  1.0906  0.1461 -0.5289
15299TIP3    H267313   5.194   6.226  13.188 -1.1810 -1.5974 -0.3013
15300TIP3   OH267314   0.487   3.644   1.328 -0.1215 -0.6491  0.2107
15300TIP3    H167315   0.512   3.681   1.413 -0.5501 -1.0150  0.5044
15300TIP3    H267316   0.403   3.600   1.346 -1.5130  1.4271 -0.9482
15301TIP3   OH267317   6.421   0.409   0.184 -0.2525  0.1816  0.1137
15301TIP3    H167318   6.385   0.462   0.113  0.1584 -1.7952 -1.6524
15301TIP3    H267319   6.344   0.381   0.234 -0.5929  1.2412  0.1810
15302TIP3   OH267320   0.627   0.247   2.517  0.0374  0.0760 -0.1372
15302TIP3    H167321   0.706   0.193   2.527  0.9700  1.7334  1.6396
15302TIP3    H267322   0.660   0.333   2.491 -1.1830  0.7490  0.4950
15303TIP3   OH267323   5.123   4.729  16.713 -0.3108  0.3544  0.3586
15303TIP3    H167324   5.109   4.758  16.623  0.6400 -3.1088 -0.9737
15303TIP3    H267325   5.077   4.645  16.719  0.7355 -0.1032  2.7345
15304TIP3   OH267326   5.333   5.646  13.065 -0.1587  0.2096 -0.2198
15304TIP3    H167327   5.372   5.579  13.121 -1.7136 -0.8709 -0.3864
15304TIP3    H267328   5.345   5.612  12.976  1.2322  1.3441 -0.4916
15305TIP3   OH267329   6.427   2.558  13.278 -0.3721  0.0727 -0.1436
15305TIP3    H167330   6.333   2.552  13.292 -0.4016  2.8621  1.3021
15305TIP3    H267331   6.461   2.595  13.360  1.9641 -0.7779 -0.6924
15306TIP3   OH267332   3.757   0.656  17.235  0.1193 -0.5765 -0.1933
15306TIP3    H167333   3.680   0.658  17.179  1.8570  1.2025 -2.6377
15306TIP3    H267334   3.724   0.677  17.322 -2.2014 -0.2088 -1.1209
15307TIP3   OH267335   5.421   4.891   4.200  0.3063  0.5739  0.4504
15307TIP3    H167336   5.378   4.807   4.212 -1.7449  1.7169  1.4296
15307TIP3    H267337   5.457   4.912   4.286  0.2323  1.0125  0.3738
15308TIP3   OH267338   2.584   4.928  16.767 -0.3083 -0.0895 -0.9609
15308TIP3    H167339   2.579   4.849  16.821 -0.6240 -0.2336 -1.1975
15308TIP3    H267340   2.543   4.903  16.684  0.2886  0.0858 -1.3153
15309TIP3   OH267341   6.021   4.373  15.135 -0.0868  0.2325  0.8584
15309TIP3    H167342   6.108   4.397  15.169 -0.2259  1.3455  0.4176
15309TIP3    H267343   5.982   4.455  15.106 -1.1334 -0.3214  0.6658
15310TIP3   OH267344   4.472   4.316  14.613 -0.1947 -0.2008  0.0020
15310TIP3    H167345   4.520   4.240  14.579  1.1668  0.4465  0.4391
15310TIP3    H267346   4.408   4.336  14.545 -0.0020 -1.2201 -0.4964
15311TIP3   OH267347   3.201   4.011   0.399  0.3282 -0.0850 -0.0859
15311TIP3    H167348   3.179   3.939   0.459  0.4682 -0.1017 -0.0546
15311TIP3    H267349   3.293   4.030   0.417  0.0002  0.8300  0.6800
15312TIP3   OH267350   0.633   3.412   2.671 -0.2017  0.8856  0.2322
15312TIP3    H167351   0.639   3.508   2.677 -1.3226  1.0845 -1.3876
15312TIP3    H267352   0.539   3.395   2.662  0.1581 -0.2082 -1.6806
15313TIP3   OH267353   2.195   4.582  16.773 -0.2840  0.0197  0.4755
15313TIP3    H167354   2.107   4.548  16.792  0.1594 -1.5771 -0.2842
15313TIP3    H267355   2.186   4.627  16.689 -0.4631  0.2513  0.6159
15314TIP3   OH267356   5.505   5.775  15.295  0.3551 -0.4976  0.1706
15314TIP3    H167357   5.435   5.759  15.232  0.6760 -2.2064  0.2444
15314TIP3    H267358   5.586   5.760  15.245  0.6236 -1.0092  0.7583
15315TIP3   OH267359   1.341   2.961  14.909  0.4063 -0.0557  0.2220
15315TIP3    H167360   1.367   3.028  14.972  0.1590 -0.4567  0.7504
15315TIP3    H267361   1.412   2.897  14.910  0.5629  0.1076 -0.1600
15316TIP3   OH267362   2.951   3.157  16.769  0.6659 -0.0983  0.3348
15316TIP3    H167363   2.956   3.061  16.776  0.9168 -0.4051 -3.1423
15316TIP3    H267364   3.022   3.180  16.708 -0.3732  2.1455 -0.0556
15317TIP3   OH267365   2.559   4.078   5.935 -0.0498  0.3722  0.2949
15317TIP3    H167366   2.569   4.075   6.030 -0.3768  1.1591  0.3598
15317TIP3    H267367   2.484   4.136   5.921 -0.5599 -0.4597 -0.4091
15318TIP3   OH267368   0.895   3.366  12.531  0.2483 -0.3017 -0.4433
15318TIP3    H167369   0.849   3.449  12.545  0.9277  0.1473 -0.8453
15318TIP3    H267370   0.988   3.387  12.545  0.1778 -1.6250  2.3340
15319TIP3   OH267371   2.108   4.708  17.016  0.2001  0.0516  0.4469
15319TIP3    H167372   2.170   4.658  16.963  1.7355  1.1245  1.1765
15319TIP3    H267373   2.113   4.797  16.981  1.4352  0.8311  2.5074
15320TIP3   OH267374   2.554   4.323   1.625  0.4744 -0.2593 -0.2348
15320TIP3    H167375   2.569   4.242   1.575  1.8197 -0.1432 -0.0551
15320TIP3    H267376   2.501   4.296   1.699 -2.0761 -0.3248 -2.0348
15321TIP3   OH267377   1.421   6.509   3.470 -0.1917 -0.0282 -0.2449
15321TIP3    H167378   1.423   6.567   3.545 -0.3480 -2.5112  1.7566
15321TIP3    H267379   1.498   6.453   3.481 -0.0494 -0.2265 -2.1056
15322TIP3   OH267380   5.486   3.968   1.129 -0.0190  0.0531  0.2462
15322TIP3    H167381   5.397   3.944   1.154 -0.1171  2.0229  1.8652
15322TIP3    H267382   5.537   3.888   1.145 -1.3618 -0.9148 -0.1591
15323TIP3   OH267383   3.352   3.055  11.999  0.2473  0.1358  0.6161
15323TIP3    H167384   3.274   3.089  11.954  0.7030  0.4004  0.0223
15323TIP3    H267385   3.421   3.117  11.977  1.0796 -1.1476 -0.4582
15324TIP3   OH267386   0.391   5.842  16.196  0.2023  0.3190  0.1792
15324TIP3    H167387   0.454   5.810  16.132  0.1854 -1.0214  0.8104
15324TIP3    H267388   0.445   5.872  16.269  0.2015  1.3866 -0.2560
15325TIP3   OH267389   4.368   0.053   2.797  0.4751  1.0723 -0.4083
15325TIP3    H167390   4.361   0.147   2.810 -0.9052  1.0749 -1.0430
15325TIP3    H267391   4.296   0.016   2.849  0.1037  0.4842 -1.3223
15326TIP3   OH267392   5.450   6.148   2.181 -0.4434 -0.4756  1.1111
15326TIP3    H167393   5.487   6.068   2.218 -0.8275 -1.8662 -1.4289
15326TIP3    H267394   5.526   6.199   2.151 -0.3537 -1.3304 -0.1256
15327TIP3   OH267395   1.585   2.091  12.132 -0.1095 -0.2146  0.4999
15327TIP3    H167396   1.629   2.050  12.206  1.7563  2.5140  0.9739
15327TIP3    H267397   1.526   2.156  12.172 -0.5673 -0.1105 -0.3289
15328TIP3   OH267398   3.085   3.673   2.489  0.3638 -0.6220  0.0056
15328TIP3    H167399   3.000   3.630   2.480 -0.8246  1.3567  1.1886
15328TIP3    H267400   3.111   3.695   2.400 -1.3827  0.5924 -0.2260
15329TIP3   OH267401   6.400   4.784  13.714  0.5113 -0.1026 -0.8159
15329TIP3    H167402   6.347   4.758  13.639  0.0613 -0.6134 -0.3279
15329TIP3    H267403   6.354   4.860  13.750  0.2337 -0.4104 -0.5231
15330TIP3   OH267404   4.011   4.506  14.676 -0.0865  0.0052  0.8193
15330TIP3    H167405   4.072   4.434  14.688  0.6500  0.6515  0.9632
15330TIP3    H267406   3.942   4.489  14.740 -0.2445 -0.9095  0.4171
15331TIP3   OH267407   3.898   0.331   2.544  0.7729  0.1105  0.4949
15331TIP3    H167408   3.905   0.236   2.558 -0.0939 -0.1526 -0.7349
15331TIP3    H267409   3.975   0.353   2.492  1.0335  0.0973  0.8757
15332TIP3   OH267410   2.034   1.213   1.453 -0.2221 -0.6503 -0.2254
15332TIP3    H167411   2.054   1.232   1.544 -1.4379  1.8875 -0.4501
15332TIP3    H267412   2.107   1.250   1.403 -0.2449 -0.7869 -0.3610
15333TIP3   OH267413   1.760   6.142  11.680  0.6160  0.2048  0.2199
15333TIP3    H167414   1.669   6.118  11.696  0.5213 -0.2737 -0.9607
15333TIP3    H267415   1.811   6.068  11.713  0.4958 -0.1765 -0.4408
15334TIP3   OH267416   2.878   0.199  10.611  0.5911 -0.8241  0.3598
15334TIP3    H167417   2.899   0.276  10.664  0.1507 -0.2486 -0.3007
15334TIP3    H267418   2.870   0.233  10.522  2.9782 -2.0330 -0.3687
15335TIP3   OH267419   4.649   4.135  14.477 -0.1174 -0.0968 -0.0068
15335TIP3    H167420   4.715   4.135  14.547 -1.9229 -2.3542  1.7462
15335TIP3    H267421   4.674   4.063  14.420  0.8726  1.2153 -1.2440
15336TIP3   OH267422   3.412   0.072  13.567 -0.1840 -0.0248 -0.6574
15336TIP3    H167423   3.426   0.016  13.491 -0.0248 -1.2166  0.2418
15336TIP3    H267424   3.364   0.017  13.629  0.6522  0.5814  0.5446
15337TIP3   OH267425   5.672   6.573   2.929  0.4039  0.1686  0.4243
15337TIP3    H167426   5.646   6.590   2.838  1.7587  0.2306  0.0304
15337TIP3    H267427   5.700   6.482   2.929 -0.8411 -0.2251  1.0946
15338TIP3   OH267428   4.843   0.606   0.321  0.3921  0.3235 -0.3601
15338TIP3    H167429   4.828   0.551   0.398 -2.7127  0.4258 -0.8015
15338TIP3    H267430   4.860   0.693   0.357  2.3931 -0.2962  0.2586
15339TIP3   OH267431   6.078   6.302   4.499 -0.3284  0.7990  0.1176
15339TIP3    H167432   6.129   6.232   4.539  1.1924  2.3176  0.9305
15339TIP3    H267433   6.143   6.361   4.461 -1.4724  2.5733  0.8053
15340TIP3   OH267434   4.109   5.124  13.925 -0.3182 -0.2339  0.7290
15340TIP3    H167435   4.087   5.144  13.834  0.4908  0.8667  0.7628
15340TIP3    H267436   4.182   5.062  13.918 -0.1528 -0.0282  0.6318
15341TIP3   OH267437   1.831   6.604  11.305  0.4488 -0.2137  0.3061
15341TIP3    H167438   1.899   6.590  11.371  0.7151 -2.2292 -0.3342
15341TIP3    H267439   1.758   6.644  11.352  2.1064  2.1017  0.9836
15342TIP3   OH267440   1.305   3.327  16.137  0.2187  0.2075  0.0277
15342TIP3    H167441   1.304   3.422  16.142  1.1064  0.2193 -0.0304
15342TIP3    H267442   1.265   3.299  16.220 -3.2710  0.6387 -1.3990
15343TIP3   OH267443   0.701   1.130   1.586 -0.3008  0.1915  0.0629
15343TIP3    H167444   0.720   1.198   1.522 -0.5019  0.5860  0.4229
15343TIP3    H267445   0.746   1.158   1.665 -0.8477  0.1904  0.3766
15344TIP3   OH267446   5.123   6.757   1.340  0.0805  0.7987 -0.5710
15344TIP3    H167447   5.171   6.840   1.341 -0.3873  1.0564  0.3579
15344TIP3    H267448   5.062   6.763   1.413 -0.4368 -0.0858 -0.9212
15345TIP3   OH267449   6.309   6.467  11.805 -0.4249 -0.2860 -0.0099
15345TIP3    H167450   6.264   6.386  11.827  0.0538 -0.0919  1.7367
15345TIP3    H267451   6.313   6.516  11.887  2.5785 -0.1001 -0.2039
15346TIP3   OH267452   1.919   4.945  14.911 -0.5667  0.1647 -0.3541
15346TIP3    H167453   1.936   4.976  15.000 -1.3926 -1.6394  0.4470
15346TIP3    H267454   1.825   4.956  14.899 -0.5393 -0.0921 -0.8287
15347TIP3   OH267455   3.809   1.124  13.998 -0.4579 -0.1547 -0.4834
15347TIP3    H167456   3.883   1.182  13.984  0.4058  0.2091  4.4479
15347TIP3    H267457   3.736   1.182  14.021 -0.0958 -0.7856  2.5435
15348TIP3   OH267458   4.686   4.864   4.305  0.4939 -0.1902 -0.4161
15348TIP3    H167459   4.716   4.955   4.303  0.2000 -0.0536  0.9803
15348TIP3    H267460   4.762   4.815   4.334 -0.3020  0.0324  2.1366
15349TIP3   OH267461   2.554   0.052  13.686 -0.1644 -0.0596 -0.0987
15349TIP3    H167462   2.513   0.012  13.763 -0.4672  0.8827  0.2372
15349TIP3    H267463   2.646   0.062  13.710 -0.1781 -0.1511 -0.0088
15350TIP3   OH267464   0.636   5.189   2.717  0.1905 -0.2591 -0.3017
15350TIP3    H167465   0.596   5.113   2.759 -0.6363  0.6456  0.5976
15350TIP3    H267466   0.700   5.220   2.781 -0.0706  0.2847 -0.2966
15351TIP3   OH267467   3.785   3.117  15.343 -0.1954  0.8213  0.0988
15351TIP3    H167468   3.830   3.201  15.340  1.5526 -0.0942  0.4453
15351TIP3    H267469   3.713   3.131  15.405  0.0325  2.0745  0.0969
15352TIP3   OH267470   1.627   6.272  15.848  0.0339  0.3051 -0.1614
15352TIP3    H167471   1.713   6.300  15.816  0.1124  0.3904  0.1261
15352TIP3    H267472   1.574   6.264  15.768  0.1382  0.8283 -0.2819
15353TIP3   OH267473   6.621   4.268  13.998 -0.4266  0.1589  0.4413
15353TIP3    H167474   6.527   4.263  13.977 -0.5374  0.5020  0.8383
15353TIP3    H267475   6.647   4.355  13.969 -0.1517 -0.0675  0.0153
15354TIP3   OH267476   1.498   2.862   4.972  0.3995  0.2180 -0.0905
15354TIP3    H167477   1.522   2.803   4.901 -1.0464  1.9779 -2.0987
15354TIP3    H267478   1.524   2.816   5.052  2.7289 -1.4912 -1.7752
15355TIP3   OH267479   2.569   3.753   2.940  0.7506  0.0150  0.3817
15355TIP3    H167480   2.605   3.730   3.026  1.5082 -1.6078 -0.3371
15355TIP3    H267481   2.641   3.797   2.895  0.0084  1.8333  0.9563
15356TIP3   OH267482   3.650   1.997  14.666  0.2135  0.2240  0.0163
15356TIP3    H167483   3.606   2.052  14.731  0.3726  0.1103  0.2239
15356TIP3    H267484   3.742   2.001  14.691  0.3300  0.5132 -0.4531
15357TIP3   OH267485   6.182   4.086  13.407  0.1901 -0.2079  0.0748
15357TIP3    H167486   6.193   4.152  13.339 -0.2445 -0.4723 -0.2561
15357TIP3    H267487   6.231   4.010  13.375  0.6367 -0.0714  0.4258
15358TIP3   OH267488   5.139   3.252  15.540  0.2421  0.1419  0.4919
15358TIP3    H167489   5.109   3.223  15.626 -0.9505  0.7089  0.2803
15358TIP3    H267490   5.071   3.224  15.479  1.7682 -1.5146 -0.4818
15359TIP3   OH267491   1.268   3.622  11.308 -0.5024  0.1200 -0.0536
15359TIP3    H167492   1.230   3.559  11.247 -0.3668  0.2179 -0.2406
15359TIP3    H267493   1.231   3.706  11.282  0.8742  0.4302 -1.1144
15360TIP3   OH267494   6.296   4.592  11.523 -0.3094  0.3143 -0.5508
15360TIP3    H167495   6.356   4.663  11.500  0.5556 -0.1681  0.1918
15360TIP3    H267496   6.259   4.564  11.439  0.7126  0.4231 -1.0503
15361TIP3   OH267497   2.450   0.298  13.964  0.1250 -0.1598  0.1500
15361TIP3    H167498   2.454   0.346  14.047 -0.7210  0.7257 -0.3161
15361TIP3    H267499   2.518   0.337  13.910  0.3312 -0.3900  0.2424
15362TIP3   OH267500   4.236   3.791   1.792  0.2456 -0.0097 -0.3134
15362TIP3    H167501   4.181   3.840   1.853  1.0899 -3.6070  3.4958
15362TIP3    H267502   4.301   3.855   1.762 -1.3733  2.3106  1.0092
15363TIP3   OH267503   0.640   2.270   4.719 -0.2418  0.2293 -0.0590
15363TIP3    H167504   0.581   2.341   4.695 -0.9888 -0.8761 -1.5924
15363TIP3    H267505   0.616   2.249   4.810  0.1990  2.1010  0.5153
15364TIP3   OH267506   1.245   4.936   6.551 -0.2005  0.6847  0.1540
15364TIP3    H167507   1.286   4.858   6.515 -0.8206  1.0050 -1.2839
15364TIP3    H267508   1.271   4.937   6.643  0.4312 -0.7939 -0.0017
15365TIP3   OH267509   3.044   2.359  15.848  0.3553 -0.0748  0.4716
15365TIP3    H167510   2.970   2.386  15.902 -0.4303 -0.3127 -0.4592
15365TIP3    H267511   3.030   2.265  15.833 -0.4075  0.3241 -1.5565
15366TIP3   OH267512   3.094   6.389  13.719 -0.0959  0.0983  0.0140
15366TIP3    H167513   3.037   6.466  13.715 -2.4190 -1.5659 -0.1342
15366TIP3    H267514   3.132   6.383  13.631 -0.9851  0.3030 -0.3960
15367TIP3   OH267515   1.293   4.875   0.089  0.2170 -0.3022 -0.3848
15367TIP3    H167516   1.235   4.936   0.136  2.2897  0.4022  1.3429
15367TIP3    H267517   1.350   4.839   0.157  1.3847 -1.4731 -1.9462
15368TIP3   OH267518   2.791   4.478   6.653 -0.4384 -0.1139 -0.2537
15368TIP3    H167519   2.770   4.557   6.703  0.0281 -0.4549  0.4764
15368TIP3    H267520   2.706   4.447   6.620 -0.6087  0.7523 -0.6424
15369TIP3   OH267521   5.586   1.477  13.487 -0.1046  0.2673 -0.0042
15369TIP3    H167522   5.577   1.508  13.577  0.3570  0.3624  0.0106
15369TIP3    H267523   5.648   1.538  13.447  0.1632 -0.1424 -0.2147
15370TIP3   OH267524   6.511   6.232  12.411  0.6286  0.0359 -0.1579
15370TIP3    H167525   6.555   6.316  12.425  0.2466  0.3973 -1.1206
15370TIP3    H267526   6.499   6.226  12.316  0.1391 -0.8481 -0.0460
15371TIP3   OH267527   6.288   1.632   4.533  0.1253  0.6042  0.7080
15371TIP3    H167528   6.259   1.708   4.584 -1.7112 -0.2186  0.9241
15371TIP3    H267529   6.207   1.594   4.499  1.1017 -0.7327 -0.1618
15372TIP3   OH267530   5.367   3.311  14.220  0.2188 -0.3419 -0.1144
15372TIP3    H167531   5.460   3.325  14.232  0.4530 -0.6950 -1.4345
15372TIP3    H267532   5.342   3.252  14.291  1.1602 -0.8700 -0.2164
15373TIP3   OH267533   0.748   6.627  13.948 -0.8832  0.3000 -0.7184
15373TIP3    H167534   0.721   6.602  13.860 -0.3880  1.8152 -1.3033
15373TIP3    H267535   0.784   6.715  13.939 -2.1964  1.0675  1.2460
15374TIP3   OH267536   3.574   1.981   2.834  0.4036  0.3550  0.5733
15374TIP3    H167537   3.552   2.073   2.850  0.4029  0.3902  0.3712
15374TIP3    H267538   3.662   1.983   2.798 -0.2147  0.3978 -0.9671
15375TIP3   OH267539   4.410   1.168   3.562  0.0126 -0.5821  0.2746
15375TIP3    H167540   4.452   1.212   3.635  0.1673  0.9207 -0.7097
15375TIP3    H267541   4.460   1.195   3.485 -1.2823 -0.6581 -0.6080
15376TIP3   OH267542   0.274   5.204  16.743  0.2089 -0.8826 -0.3014
15376TIP3    H167543   0.200   5.260  16.766  0.8489  0.0410 -0.4847
15376TIP3    H267544   0.313   5.244  16.665  0.6407 -1.6055 -0.4714
15377TIP3   OH267545   2.790   1.791   1.013 -0.4661 -0.2704  0.2538
15377TIP3    H167546   2.811   1.748   1.095  1.3203 -1.8462 -0.9986
15377TIP3    H267547   2.874   1.820   0.979 -1.2848  1.1632 -0.6065
15378TIP3   OH267548   6.196   5.749   1.524  0.6915 -0.2133 -0.1048
15378TIP3    H167549   6.202   5.654   1.517  0.0329 -0.3212  0.7689
15378TIP3    H267550   6.274   5.774   1.575  0.9587 -0.2600 -0.4856
15379TIP3   OH267551   2.514   3.417   3.051 -0.8982 -0.4684 -0.6987
15379TIP3    H167552   2.497   3.447   2.961  0.2698  0.9898 -0.4503
15379TIP3    H267553   2.561   3.490   3.092 -1.9056 -0.9087  1.2742
15380TIP3   OH267554   1.257   4.116  16.540  0.1101 -0.0910  0.2549
15380TIP3    H167555   1.203   4.178  16.491  0.8519 -0.3712 -0.9349
15380TIP3    H267556   1.224   4.030  16.515  0.4766 -0.2317  0.2545
15381TIP3   OH267557   4.314   5.716  11.814  0.1797 -0.3356 -0.3342
15381TIP3    H167558   4.249   5.674  11.758  0.7617  0.2521 -1.4587
15381TIP3    H267559   4.397   5.702  11.769  0.5373  0.9062 -0.0613
15382TIP3   OH267560   1.642   4.431   2.124  0.3774  0.1832  0.3668
15382TIP3    H167561   1.579   4.491   2.164  0.6953  0.7865 -0.0128
15382TIP3    H267562   1.594   4.350   2.109  0.2304 -0.0172  1.8807
15383TIP3   OH267563   1.503   4.522  12.137  0.0274 -0.8863  0.4713
15383TIP3    H167564   1.501   4.433  12.102  2.5970 -1.4837  1.7006
15383TIP3    H267565   1.543   4.512  12.224 -1.1719  1.2699  1.3078
15384TIP3   OH267566   1.994   4.945  14.539 -0.0123 -0.0066  0.5147
15384TIP3    H167567   1.932   4.875  14.521 -0.4770  0.4867  0.1670
15384TIP3    H267568   1.949   5.025  14.511  1.0459  0.2809 -0.4149
15385TIP3   OH267569   1.637   6.328   5.308 -0.6053  0.1127 -0.5507
15385TIP3    H167570   1.667   6.254   5.256 -0.7837  0.7276 -1.5437
15385TIP3    H267571   1.565   6.293   5.360  0.2579 -0.7667  0.0632
15386TIP3   OH267572   5.367   3.016  10.648 -0.5185  0.2502  0.5656
15386TIP3    H167573   5.379   2.923  10.631 -2.3208 -0.1947  1.6040
15386TIP3    H267574   5.456   3.051  10.655  0.1743 -1.2195 -0.6554
15387TIP3   OH267575   5.563   0.055  15.041 -0.1829  0.2082 -0.4882
15387TIP3    H167576   5.603   0.143  15.039 -1.9534  1.0222 -1.2282
15387TIP3    H267577   5.588   0.016  14.957  0.3177  0.1261 -0.3056
15388TIP3   OH267578   5.205   4.280  13.693 -0.4238  0.2338 -0.2596
15388TIP3    H167579   5.179   4.299  13.783  2.4489  0.7060  0.5067
15388TIP3    H267580   5.291   4.240  13.701 -0.3042 -0.0772 -2.7894
15389TIP3   OH267581   1.233   4.778  15.274  0.8073  0.0173 -0.0131
15389TIP3    H167582   1.326   4.764  15.292  1.0932 -0.0225 -1.4491
15389TIP3    H267583   1.222   4.750  15.184 -0.6919 -0.3372  0.2784
15390TIP3   OH267584   6.261   6.103  15.606  0.3540  0.2062  0.0985
15390TIP3    H167585   6.279   6.157  15.683 -1.1561  0.1166  0.5282
15390TIP3    H267586   6.241   6.167  15.537  2.0031  0.2970 -0.3112
15391TIP3   OH267587   2.266   2.072  13.310  0.2581  0.3941  0.4726
15391TIP3    H167588   2.307   2.051  13.226  0.3810  0.0196  0.6232
15391TIP3    H267589   2.339   2.102  13.365  0.4078 -0.6974  0.8821
15392TIP3   OH267590   6.237   1.036   0.947  0.2572  1.2451  0.3668
15392TIP3    H167591   6.234   1.094   0.871 -1.4951  1.5248  0.6227
15392TIP3    H267592   6.241   0.948   0.910  1.4286  1.4481 -0.0243
15393TIP3   OH267593   6.196   5.335   0.371  0.1319 -0.2960 -0.5227
15393TIP3    H167594   6.247   5.263   0.408 -0.3549 -0.3642  0.0346
15393TIP3    H267595   6.241   5.414   0.400 -0.5088 -0.3387  0.6278
15394TIP3   OH267596   3.535   1.242  12.356  0.8690 -0.9947 -0.4226
15394TIP3    H167597   3.577   1.158  12.339  2.8581 -0.0453 -0.4282
15394TIP3    H267598   3.569   1.300  12.287 -1.9904 -0.6621 -1.5933
15395TIP3   OH267599   1.766   2.085   4.656  0.2536  0.2517 -0.0916
15395TIP3    H167600   1.850   2.041   4.665 -0.4790 -1.1724 -0.0373
15395TIP3    H267601   1.715   2.053   4.731 -0.7523  0.1058 -0.8288
15396TIP3   OH267602   5.165   4.982   4.307  0.0133  0.1649  0.0230
15396TIP3    H167603   5.230   4.928   4.263 -0.5440  0.1323 -0.7908
15396TIP3    H267604   5.206   5.068   4.314  0.6511 -0.1891  0.7313
15397TIP3   OH267605   4.935   0.175  17.078 -0.0515 -0.2547  0.8603
15397TIP3    H167606   4.987   0.143  17.152 -1.3956 -3.3516  0.5827
15397TIP3    H267607   4.997   0.181  17.006  0.7701  0.3040  1.6044
15398TIP3   OH267608   5.147   1.767   1.646 -0.3315 -0.2502  0.1602
15398TIP3    H167609   5.148   1.802   1.557 -2.7595  0.4502  0.3606
15398TIP3    H267610   5.125   1.675   1.636 -0.4131 -0.2160  0.0233
15399TIP3   OH267611   4.113   0.803  16.866 -0.4375  0.3692  0.3122
15399TIP3    H167612   4.151   0.716  16.857 -0.0112  0.5176  0.6577
15399TIP3    H267613   4.105   0.817  16.960 -0.5937  0.6657  0.2573
15400TIP3   OH267614   2.000   0.825   3.346 -0.4114 -0.0684  0.0003
15400TIP3    H167615   1.982   0.743   3.300 -2.2045  1.4028 -1.9999
15400TIP3    H267616   2.010   0.799   3.438  1.4891 -2.8222 -0.9375
15401TIP3   OH267617   2.912   0.166  11.160 -0.1591 -0.3480  0.0559
15401TIP3    H167618   2.820   0.171  11.131 -0.2601  0.6656  0.5391
15401TIP3    H267619   2.912   0.095  11.224 -0.8851  0.5004  1.0211
15402TIP3   OH267620   0.680   5.923  15.858 -0.1180  0.4281  0.3282
15402TIP3    H167621   0.689   5.980  15.935  0.0008 -0.4235  0.9547
15402TIP3    H267622   0.621   5.971  15.800 -1.3193  0.4911  1.5496
15403TIP3   OH267623   2.763   2.836   1.616  0.0798 -0.5749  0.6771
15403TIP3    H167624   2.751   2.899   1.544  1.1424  1.4088  2.1764
15403TIP3    H267625   2.850   2.801   1.602 -0.8644 -2.4684 -0.6886
15404TIP3   OH267626   2.365   2.096  14.837  0.0168 -1.0140  0.1535
15404TIP3    H167627   2.287   2.150  14.848 -0.3957 -1.6469  0.3385
15404TIP3    H267628   2.418   2.144  14.773 -1.1136 -1.2435 -0.9653
15405TIP3   OH267629   5.047   3.402   0.889  0.7703  0.1702  0.3097
15405TIP3    H167630   5.033   3.497   0.886 -1.2073 -0.0522  1.2726
15405TIP3    H267631   5.004   3.374   0.970  2.6679 -1.3566  0.8141
15406TIP3   OH267632   4.505   0.394   1.819 -0.0543  0.3736 -0.2392
15406TIP3    H167633   4.557   0.433   1.889 -1.0834  2.6804 -0.7221
15406TIP3    H267634   4.442   0.338   1.864  0.0876  0.8950  0.6077
15407TIP3   OH267635   0.497   1.087  15.831  0.2548 -0.1417 -0.2888
15407TIP3    H167636   0.507   1.011  15.888 -0.1541 -1.5033 -2.0070
15407TIP3    H267637   0.460   1.155  15.888  1.2651 -1.0045  1.4124
15408TIP3   OH267638   1.050   5.200  15.400 -0.1864  1.1464  0.0597
15408TIP3    H167639   0.988   5.177  15.469  0.5127 -0.3386  0.2090
15408TIP3    H267640   1.124   5.240  15.446  1.0649 -1.4600  0.3805
15409TIP3   OH267641   6.037   3.833   1.291  0.3684 -0.0678 -0.4022
15409TIP3    H167642   6.000   3.770   1.230  0.0523  1.0833 -1.4075
15409TIP3    H267643   5.962   3.881   1.326  0.6013 -0.2642  0.3972
15410TIP3   OH267644   4.832   3.786  12.364  0.0849  0.6516 -0.3322
15410TIP3    H167645   4.854   3.838  12.286 -0.2697 -1.3820 -1.8404
15410TIP3    H267646   4.840   3.695  12.334 -1.0390 -0.1510  1.7484
15411TIP3   OH267647   6.213   5.321   1.002 -0.2369  0.0941  0.1259
15411TIP3    H167648   6.304   5.342   1.023 -0.0603 -1.8663  1.4253
15411TIP3    H267649   6.162   5.365   1.069 -0.1701  0.1376  0.1484
15412TIP3   OH267650   5.479   2.738   4.864  0.3027 -0.7534  0.5327
15412TIP3    H167651   5.461   2.708   4.775 -0.4536  0.1160  0.3805
15412TIP3    H267652   5.410   2.697   4.917 -0.0293 -0.2268  0.5089
15413TIP3   OH267653   3.098   4.012   4.659  0.1225 -0.5448  0.1980
15413TIP3    H167654   3.060   3.956   4.592 -2.4858  0.1776  1.0043
15413TIP3    H267655   3.158   3.955   4.708 -1.0285 -2.1028 -0.1855
15414TIP3   OH267656   4.246   3.918   4.116  0.3673  0.2413 -0.2918
15414TIP3    H167657   4.265   3.899   4.208  1.0064 -0.1108 -0.5011
15414TIP3    H267658   4.274   4.009   4.104  1.4341 -0.1063 -0.4606
15415TIP3   OH267659   3.008   2.622   3.095  0.1367 -0.3324 -0.1957
15415TIP3    H167660   2.943   2.665   3.040  0.2187 -1.4715 -1.1944
15415TIP3    H267661   3.029   2.541   3.050  0.7648 -0.9370  1.1392
15416TIP3   OH267662   3.093   0.527   5.525  0.3227 -0.1160  0.3816
15416TIP3    H167663   3.051   0.592   5.469 -2.0185 -1.3744  0.6205
15416TIP3    H267664   3.111   0.453   5.467  2.0265  0.3082  0.3389
15417TIP3   OH267665   4.083   3.580   1.672  0.3852  0.3176 -0.5523
15417TIP3    H167666   4.116   3.543   1.755 -0.6610  0.6492  0.0189
15417TIP3    H267667   4.135   3.659   1.659 -1.2432  1.7150  1.1758
15418TIP3   OH267668   6.107   4.408  13.980 -0.5687  0.0652  0.1045
15418TIP3    H167669   6.180   4.354  14.011 -1.6266 -0.3630  1.8938
15418TIP3    H267670   6.034   4.347  13.970 -0.9517  0.6540 -0.8168
15419TIP3   OH267671   0.109   0.921  11.362  0.7482  0.1689 -0.0270
15419TIP3    H167672   0.106   1.013  11.337 -0.1681  0.6846  1.8895
15419TIP3    H267673   0.017   0.897  11.376  1.0574 -0.7224  0.5140
15420TIP3   OH267674   2.559   4.693  12.856 -0.4092  0.0697 -0.0245
15420TIP3    H167675   2.498   4.723  12.923  0.8580  1.7447  0.4324
15420TIP3    H267676   2.505   4.675  12.780 -1.7833 -1.2000  1.2291
15421TIP3   OH267677   2.902   1.002   0.694 -0.4766  0.2304 -0.3175
15421TIP3    H167678   2.906   1.090   0.658 -0.7609 -0.3090 -1.7273
15421TIP3    H267679   2.945   0.948   0.627  2.1220 -0.3340  1.7305
15422TIP3   OH267680   0.383   0.484   1.221 -0.4205  0.5746 -0.5213
15422TIP3    H167681   0.305   0.464   1.273 -1.8127  1.6482 -2.1637
15422TIP3    H267682   0.369   0.573   1.188  1.5350  0.8253 -0.7847
15423TIP3   OH267683   3.687   5.721   0.316  0.0355  0.3025 -0.0384
15423TIP3    H167684   3.763   5.716   0.259  0.9744 -4.0725  1.3729
15423TIP3    H267685   3.720   5.761   0.397  0.8573 -1.4067  0.4981
15424TIP3   OH267686   3.199   0.274  11.306  0.0743  0.5155 -0.3452
15424TIP3    H167687   3.276   0.311  11.350  0.3211 -0.1097 -0.2493
15424TIP3    H267688   3.181   0.193  11.353 -1.8704  1.6294  0.9100
15425TIP3   OH267689   4.382   0.898   1.407 -0.1473 -0.3398  0.4100
15425TIP3    H167690   4.454   0.870   1.463  0.2251 -1.6246 -0.6905
15425TIP3    H267691   4.342   0.817   1.377 -0.6767  0.3354 -0.7530
15426TIP3   OH267692   5.492   1.478   2.090  0.4602  0.2325  0.0329
15426TIP3    H167693   5.495   1.556   2.035  1.7110 -0.1042 -0.3860
15426TIP3    H267694   5.565   1.489   2.151  0.2418 -0.3017  0.3960
15427TIP3   OH267695   4.815   0.072   4.787 -0.5036  0.0843  0.3828
15427TIP3    H167696   4.750   0.141   4.774  0.1646  0.5696 -0.4223
15427TIP3    H267697   4.857   0.094   4.869  0.4454  1.2471 -0.4004
15428TIP3   OH267698   3.006   3.452   2.140 -0.4300 -0.2173 -0.3928
15428TIP3    H167699   2.991   3.536   2.097 -2.0676 -1.3218 -2.0803
15428TIP3    H267700   3.050   3.474   2.221 -1.9820  2.4017 -0.1907
15429TIP3   OH267701   1.767   4.340  12.101 -0.5317  0.1586  0.3426
15429TIP3    H167702   1.691   4.289  12.072 -1.2346  0.2738  1.9518
15429TIP3    H267703   1.813   4.282  12.161  0.8150 -0.0036 -0.8133
15430TIP3   OH267704   6.079   3.639  15.970 -0.0109  0.3431 -0.1822
15430TIP3    H167705   6.026   3.561  15.956  0.7974 -0.6808  2.0682
15430TIP3    H267706   6.045   3.704  15.909 -2.1715 -1.0815 -0.5237
15431TIP3   OH267707   4.475   3.595  15.546 -0.6572  0.6010  0.5654
15431TIP3    H167708   4.472   3.645  15.627  0.3606  1.0229  0.3568
15431TIP3    H267709   4.567   3.600  15.519 -0.7645 -0.4842 -0.0161
15432TIP3   OH267710   2.283   2.442  15.488  0.0547 -0.0972  0.3148
15432TIP3    H167711   2.304   2.350  15.506  0.7403  0.0655  0.3775
15432TIP3    H267712   2.351   2.491  15.533  0.6588  0.3856 -1.0800
15433TIP3   OH267713   2.397   3.116   0.348  0.6151 -0.1810 -0.4322
15433TIP3    H167714   2.413   3.030   0.310  0.8331 -1.0286  1.5655
15433TIP3    H267715   2.302   3.125   0.349  0.6105 -0.1179 -1.2543
15434TIP3   OH267716   6.183   4.932   5.849 -0.1369 -0.2146 -0.1098
15434TIP3    H167717   6.136   5.015   5.838 -0.1676 -0.4036 -1.4222
15434TIP3    H267718   6.263   4.943   5.798  0.0398 -0.8638  0.0288
15435TIP3   OH267719   6.038   4.866  12.152  0.3774 -0.0920 -0.0501
15435TIP3    H167720   5.962   4.900  12.199 -0.1698  0.2517 -1.1603
15435TIP3    H267721   6.014   4.776  12.127  0.4792 -0.1134 -0.0770
15436TIP3   OH267722   3.540   3.254  15.742  0.0286 -0.4249 -0.4958
15436TIP3    H167723   3.634   3.258  15.759  0.1901 -3.3836 -0.3906
15436TIP3    H267724   3.534   3.248  15.646 -0.2111  2.1125 -0.6793
15437TIP3   OH267725   2.196   2.356   1.214 -0.0718  0.0064  0.4044
15437TIP3    H167726   2.137   2.299   1.163  0.3010 -1.8174  1.9252
15437TIP3    H267727   2.277   2.359   1.163 -0.1022 -0.8304  0.2991
15438TIP3   OH267728   1.732   3.365   1.971  0.4883  0.1022 -0.0666
15438TIP3    H167729   1.695   3.407   1.893 -0.3412 -0.3645  0.0659
15438TIP3    H267730   1.803   3.422   1.998 -0.4488  1.2877 -0.0373
15439TIP3   OH267731   6.714   3.470   4.172 -0.1447 -0.0243  0.0653
15439TIP3    H167732   6.710   3.559   4.137 -1.2544  0.4467  1.3633
15439TIP3    H267733   6.734   3.415   4.096  0.1593  1.2816 -0.8125
15440TIP3   OH267734   0.239   3.786  13.713 -0.7214  0.2065 -0.0479
15440TIP3    H167735   0.287   3.706  13.690 -0.6641  0.1135  0.3967
15440TIP3    H267736   0.307   3.853  13.722 -0.6441  0.0167  0.8398
15441TIP3   OH267737   2.967   2.203  15.141  0.1280  0.7534  0.2399
15441TIP3    H167738   3.022   2.270  15.100  0.4941  0.5442  0.3766
15441TIP3    H267739   2.935   2.150  15.068 -0.6334  1.4278  0.0877
15442TIP3   OH267740   6.783   5.434   2.712  0.7550  0.2719 -0.5816
15442TIP3    H167741   6.841   5.358   2.719 -0.0358 -0.0860  2.8733
15442TIP3    H267742   6.793   5.480   2.795 -3.9970  0.0527  0.2879
15443TIP3   OH267743   2.717   2.991   2.714 -0.5061 -0.7607  0.0172
15443TIP3    H167744   2.780   3.048   2.757 -0.7439  1.0644 -1.9544
15443TIP3    H267745   2.749   2.983   2.624 -1.3792 -2.4122 -0.1740
15444TIP3   OH267746   1.224   6.254  16.549  0.2247 -0.2132 -0.2583
15444TIP3    H167747   1.129   6.272  16.547  0.2497 -0.1215 -1.1358
15444TIP3    H267748   1.263   6.336  16.579  0.0538 -0.1119 -0.3070
15445TIP3   OH267749   5.331   5.545  10.870  0.6882 -0.3215 -0.0785
15445TIP3    H167750   5.247   5.500  10.869  0.7583 -0.4666  0.2945
15445TIP3    H267751   5.378   5.511  10.794  1.0593 -1.4936  0.6722
15446TIP3   OH267752   3.301   0.438   1.586  0.4636 -0.3420 -0.0298
15446TIP3    H167753   3.349   0.414   1.507 -0.7062  0.9780 -1.1450
15446TIP3    H267754   3.209   0.426   1.564  0.0988  0.4354  1.0021
15447TIP3   OH267755   5.808   6.129  13.093  1.1374  0.2749 -0.0430
15447TIP3    H167756   5.722   6.161  13.068  0.2757  0.5697  3.0514
15447TIP3    H267757   5.855   6.117  13.011 -2.1461 -0.7278 -1.8253
15448TIP3   OH267758   1.541   3.722  16.395 -0.2397  0.5730  0.2576
15448TIP3    H167759   1.609   3.654  16.399 -0.9395 -0.1475  0.0614
15448TIP3    H267760   1.495   3.715  16.479 -1.5346 -0.4907 -0.5223
15449TIP3   OH267761   6.546   1.215  13.624 -0.3363 -0.0583  0.3952
15449TIP3    H167762   6.574   1.266  13.548 -0.7192 -0.1754  0.1730
15449TIP3    H267763   6.487   1.148  13.588 -1.4790  0.6443  0.9426
15450TIP3   OH267764   2.179   4.534  16.143 -0.2198 -0.3032  0.0184
15450TIP3    H167765   2.204   4.625  16.158  1.1057 -0.4609 -1.1219
15450TIP3    H267766   2.086   4.530  16.165 -0.1576  1.2087  0.5662
15451TIP3   OH267767   1.647   0.054  13.010 -0.1174 -0.0609 -0.1677
15451TIP3    H167768   1.580   0.061  13.077 -0.6479  0.0312 -0.7001
15451TIP3    H267769   1.712   0.119  13.034 -0.3441  0.0281  0.2109
15452TIP3   OH267770   2.051   2.873   4.438 -0.0303 -0.3766 -0.3118
15452TIP3    H167771   1.977   2.843   4.384  1.1121 -1.1184 -1.4883
15452TIP3    H267772   2.032   2.839   4.525 -1.4796  0.1205 -0.4164
15453TIP3   OH267773   5.253   2.831  14.381  0.2584 -0.0191  0.2733
15453TIP3    H167774   5.228   2.739  14.386 -2.1392  0.4797 -1.5157
15453TIP3    H267775   5.284   2.853  14.469  2.6346 -2.9841  0.2729
15454TIP3   OH267776   1.599   1.677   5.751  0.2770  0.5218  1.0620
15454TIP3    H167777   1.529   1.736   5.779 -0.2668  0.0083  0.8133
15454TIP3    H267778   1.555   1.593   5.738  0.7593  0.4299 -0.0560
15455TIP3   OH267779   2.550   3.055  13.054 -0.2613 -0.2810 -0.0278
15455TIP3    H167780   2.556   2.959  13.054  0.9445 -0.2113 -0.3807
15455TIP3    H267781   2.604   3.082  13.128 -0.5872  0.1422  0.0619
15456TIP3   OH267782   0.307   5.408  13.614  0.0796  0.4201  0.4199
15456TIP3    H167783   0.311   5.423  13.708  0.0274 -0.3378  0.5509
15456TIP3    H267784   0.215   5.423  13.591  0.3703  1.9571  0.2441
15457TIP3   OH267785   5.784   2.729  14.595 -0.4427 -0.0958  0.4830
15457TIP3    H167786   5.850   2.777  14.645 -1.4175  0.3423  1.3662
15457TIP3    H267787   5.720   2.796  14.569 -1.6980 -0.8566  1.5305
15458TIP3   OH267788   4.133   1.887   0.219  0.5234 -0.6591 -0.2284
15458TIP3    H167789   4.191   1.963   0.219 -2.1863  1.4285  0.5337
15458TIP3    H267790   4.125   1.864   0.126  0.3191  0.8017 -0.5859
15459TIP3   OH267791   5.707   4.070  17.190 -0.1670 -0.7451  0.1413
15459TIP3    H167792   5.618   4.105  17.199  0.2220  0.3310 -0.2055
15459TIP3    H267793   5.729   4.083  17.098  0.5452 -0.5335  0.3373
15460TIP3   OH267794   3.924   1.103   5.088 -0.2855 -0.4228  0.1930
15460TIP3    H167795   3.859   1.107   5.018  0.6354 -0.1930 -0.6638
15460TIP3    H267796   3.898   1.027   5.141 -0.8469 -0.7485 -0.5397
15461TIP3   OH267797   0.922   0.391  14.881  0.5893  0.7062  0.0044
15461TIP3    H167798   1.013   0.387  14.913  0.3728  1.3828  0.7250
15461TIP3    H267799   0.929   0.418  14.790  0.9746  3.7124  0.8870
15462TIP3   OH267800   5.031   0.102   0.133  0.3433 -0.3633  0.4525
15462TIP3    H167801   5.028   0.197   0.143  1.3644 -0.5974  3.2173
15462TIP3    H267802   4.947   0.072   0.168 -0.1269 -0.4810 -0.7445
15463TIP3   OH267803   0.730   3.456   5.851  0.2300 -0.5391  0.3110
15463TIP3    H167804   0.686   3.422   5.773  0.6756 -0.0956 -0.1393
15463TIP3    H267805   0.780   3.382   5.884 -0.6280 -0.9671  0.6654
15464TIP3   OH267806   3.405   5.299  12.900  0.3259 -0.0793 -0.5572
15464TIP3    H167807   3.398   5.374  12.841 -0.4426  0.7503  0.5752
15464TIP3    H267808   3.315   5.273  12.917  0.5678 -0.7723 -0.3294
15465TIP3   OH267809   2.773   5.266   3.536  0.1336 -0.0599  0.0153
15465TIP3    H167810   2.778   5.347   3.587  0.1300  0.7467 -1.2458
15465TIP3    H267811   2.864   5.244   3.515  0.1077 -0.1483 -0.0064
15466TIP3   OH267812   1.589   0.253   3.957 -0.2560 -0.5294  0.2958
15466TIP3    H167813   1.607   0.347   3.958 -1.2150 -0.2487 -2.4045
15466TIP3    H267814   1.511   0.243   4.011 -0.1142  0.2312  0.6463
15467TIP3   OH267815   0.821   0.031  15.931  0.0441 -0.1890 -0.0554
15467TIP3    H167816   0.836   0.049  16.024  0.6763  2.2743 -0.5997
15467TIP3    H267817   0.904  -0.004  15.900  1.2532  2.9448 -0.5745
15468TIP3   OH267818   2.012   5.925   0.471  0.0546 -0.0105  0.3865
15468TIP3    H167819   2.075   5.869   0.516  0.9907  1.2517  0.6722
15468TIP3    H267820   2.053   6.012   0.469 -1.1997  0.5899 -0.3879
15469TIP3   OH267821   2.371   6.095   3.534  0.3773 -0.0061 -0.4358
15469TIP3    H167822   2.325   6.174   3.563 -1.6981 -0.4552 -2.3665
15469TIP3    H267823   2.393   6.113   3.443  1.0548 -1.1572 -0.5031
15470TIP3   OH267824   4.272   0.284   5.181 -0.3994  0.4318  0.2542
15470TIP3    H167825   4.311   0.201   5.155  0.3249  0.6147  0.7143
15470TIP3    H267826   4.292   0.291   5.275 -2.6241 -0.0491  0.7858
15471TIP3   OH267827   6.632   3.688  13.385 -0.0514  0.2576 -0.1269
15471TIP3    H167828   6.713   3.739  13.379  0.9227 -0.9215  2.2582
15471TIP3    H267829   6.648   3.611  13.331  1.1586 -0.8468  1.7409
15472TIP3   OH267830   0.631   5.441  10.878  0.2177 -0.4216 -0.3362
15472TIP3    H167831   0.560   5.378  10.889  0.7646 -1.0313 -0.2728
15472TIP3    H267832   0.632   5.461  10.784 -1.4576  1.2720 -0.0410
15473TIP3   OH267833   3.825   0.825   5.439 -0.2997 -0.3689 -0.1514
15473TIP3    H167834   3.767   0.792   5.508  0.4184 -1.3126  0.0033
15473TIP3    H267835   3.846   0.747   5.387  0.5819  0.0339 -0.3917
15474TIP3   OH267836   1.845   1.616   1.923 -0.2871  0.2366  0.2265
15474TIP3    H167837   1.921   1.593   1.870  0.3062 -0.5961  1.4097
15474TIP3    H267838   1.862   1.705   1.952 -0.7377  0.7884 -1.1772
15475TIP3   OH267839   5.224   0.467   3.093  0.2302  0.2171 -0.2180
15475TIP3    H167840   5.177   0.527   3.035  0.7463  0.1847 -0.6767
15475TIP3    H267841   5.314   0.468   3.060  0.6338  0.5879  0.9069
15476TIP3   OH267842   6.123   1.857  11.014  0.0220  0.0476 -0.0288
15476TIP3    H167843   6.057   1.846  10.945  1.9521 -2.6408 -1.5842
15476TIP3    H267844   6.134   1.769  11.050  0.6937  1.0157  2.1936
15477TIP3   OH267845   0.520   0.042   3.594  0.1883 -0.0715 -0.5213
15477TIP3    H167846   0.571   0.095   3.655  1.5870  1.0550 -2.6175
15477TIP3    H267847   0.564  -0.043   3.591  0.6038  0.1468 -0.5871
15478TIP3   OH267848   1.780   1.607  14.317  0.3817 -0.4441  0.5966
15478TIP3    H167849   1.759   1.648  14.233  0.9231  0.7542  1.0264
15478TIP3    H267850   1.699   1.613  14.367 -0.2406 -2.0639 -0.1788
15479TIP3   OH267851   2.926   2.088  16.673 -0.5471 -0.5917  0.4575
15479TIP3    H167852   2.867   2.159  16.647 -1.0807 -1.3398 -0.4197
15479TIP3    H267853   2.959   2.052  16.590  0.4057 -0.7985  0.9140
15480TIP3   OH267854   4.609   6.559  15.222  0.2674 -0.0881  0.5305
15480TIP3    H167855   4.625   6.534  15.313  0.2367 -0.2919  0.4819
15480TIP3    H267856   4.559   6.640  15.227  0.6781  0.1563  0.6893
15481TIP3   OH267857   4.457   1.906   2.310 -0.0333  0.1979  0.0510
15481TIP3    H167858   4.425   1.954   2.234  0.0705  0.0461 -0.0902
15481TIP3    H267859   4.438   1.815   2.290 -1.1131  0.2651  0.7528
15482TIP3   OH267860   2.911   5.745  15.524  0.1813 -0.1453  0.5563
15482TIP3    H167861   2.823   5.751  15.559 -0.0099  0.2104  0.0143
15482TIP3    H267862   2.954   5.678  15.578 -0.4183 -0.3257  0.8085
15483TIP3   OH267863   5.773   3.718   0.252 -0.1862 -0.1392  0.0942
15483TIP3    H167864   5.805   3.763   0.174 -1.1257 -0.3062 -0.3886
15483TIP3    H267865   5.706   3.776   0.288  1.2290  0.6144  1.5828
15484TIP3   OH267866   3.634   2.898   0.932 -0.4771  0.1926 -0.6764
15484TIP3    H167867   3.638   2.967   0.866 -2.2124  0.4155 -0.5745
15484TIP3    H267868   3.579   2.934   1.001 -0.7706 -1.0017 -0.2672
15485TIP3   OH267869   4.311   0.951   0.105 -0.0889  0.0647 -0.1535
15485TIP3    H167870   4.252   0.886   0.067 -1.6122  1.5402 -0.3596
15485TIP3    H267871   4.334   0.915   0.191 -0.5519 -0.9578 -0.4463
15486TIP3   OH267872   0.139   5.118   4.430  0.2609  0.0848 -0.1466
15486TIP3    H167873   0.140   5.052   4.361  0.3690 -0.9793  0.8487
15486TIP3    H267874   0.176   5.196   4.389  0.3046 -0.5223 -1.2938
15487TIP3   OH267875   3.281   6.718  14.193 -0.5957 -0.3751  0.0459
15487TIP3    H167876   3.334   6.643  14.223  1.5556  0.7298 -0.8636
15487TIP3    H267877   3.232   6.744  14.271 -1.7034 -2.9845  0.2659
15488TIP3   OH267878   5.465   0.568   3.800  0.4856 -0.3169 -0.7655
15488TIP3    H167879   5.542   0.565   3.857  0.1071 -0.4787 -0.2567
15488TIP3    H267880   5.431   0.478   3.802 -0.7505  0.1702  0.4467
15489TIP3   OH267881   2.736   0.534   3.797 -0.2221  0.2981  0.4113
15489TIP3    H167882   2.779   0.578   3.723 -0.8389 -1.3325 -0.9419
15489TIP3    H267883   2.807   0.517   3.859  1.2175 -2.6302 -1.9329
15490TIP3   OH267884   0.691   1.755   4.695  0.5002  0.0987  0.2885
15490TIP3    H167885   0.741   1.779   4.617 -0.1919 -2.3096 -0.9481
15490TIP3    H267886   0.611   1.715   4.661  0.4650 -1.5466  2.2265
15491TIP3   OH267887   0.730   3.343  11.007  0.1704  0.2880 -0.1644
15491TIP3    H167888   0.697   3.417  10.956  1.5161  2.4551  2.0065
15491TIP3    H267889   0.659   3.321  11.067  0.3654  0.9241  0.3070
15492TIP3   OH267890   5.969   4.907   6.422  0.6531  0.3606  0.3271
15492TIP3    H167891   6.049   4.900   6.474  1.6095 -0.1027 -1.1710
15492TIP3    H267892   5.965   5.000   6.397  1.3566  0.1574 -0.5640
15493TIP3   OH267893   5.641   6.212  16.766  0.1929 -0.3903 -0.4166
15493TIP3    H167894   5.569   6.260  16.807  0.1486  0.2865 -1.2816
15493TIP3    H267895   5.632   6.229  16.673  1.8410  0.2190 -0.4852
15494TIP3   OH267896   3.256   5.618   3.904 -0.2113  0.0655 -0.0722
15494TIP3    H167897   3.164   5.604   3.927 -0.4922 -2.0825 -2.3183
15494TIP3    H267898   3.302   5.547   3.947  0.2560  0.4878  0.1235
15495TIP3   OH267899   1.885   5.024  15.659 -0.3690  0.1648  0.2298
15495TIP3    H167900   1.844   5.107  15.681  0.8438  1.4416 -2.1964
15495TIP3    H267901   1.975   5.033  15.692  0.0989  0.2657 -1.0736
15496TIP3   OH267902   4.141   1.988   4.869  0.0314  0.4801  0.2665
15496TIP3    H167903   4.194   1.935   4.809  1.4888  0.0543  1.8872
15496TIP3    H267904   4.069   1.930   4.894  1.0624 -0.4222  1.2314
15497TIP3   OH267905   6.036   0.358  13.587 -0.5864  0.1808  0.1370
15497TIP3    H167906   6.094   0.370  13.661 -1.7324 -1.3076  1.3242
15497TIP3    H267907   6.094   0.341  13.513  0.5035 -1.7686  1.3938
15498TIP3   OH267908   2.485   5.944  14.831 -0.7333  0.4310  0.0159
15498TIP3    H167909   2.438   5.884  14.773 -0.2737  0.0270  0.0550
15498TIP3    H267910   2.540   5.996  14.772 -1.5070  1.1660 -0.0684
15499TIP3   OH267911   2.461   4.353  13.055 -0.6338  0.5553  0.3589
15499TIP3    H167912   2.499   4.423  13.107 -0.7339  1.5238 -0.8726
15499TIP3    H267913   2.513   4.350  12.975 -0.6903 -0.7100  0.3441
15500TIP3   OH267914   4.851   2.344  13.678  0.1729  0.2122  0.5172
15500TIP3    H167915   4.896   2.402  13.740 -1.9726 -0.7994  3.0886
15500TIP3    H267916   4.794   2.402  13.628  2.3793  1.1279 -1.0337
15501TIP3   OH267917   2.783   0.355  12.049 -0.1393 -0.2343 -0.0505
15501TIP3    H167918   2.872   0.378  12.076 -0.4953 -0.8454  1.6826
15501TIP3    H267919   2.727   0.421  12.089 -0.7308 -1.4873  1.2364
15502TIP3   OH267920   0.827   4.612  14.942 -0.5181 -0.0923 -0.4948
15502TIP3    H167921   0.915   4.625  14.977 -0.5699 -0.6548 -0.1513
15502TIP3    H267922   0.785   4.698  14.950 -0.4015 -0.1162  0.4626
15503TIP3   OH267923   3.449   1.388   2.577  0.1851  0.2872  0.5835
15503TIP3    H167924   3.506   1.354   2.508  1.9405  3.3988  0.4338
15503TIP3    H267925   3.507   1.401   2.651 -1.2179 -0.6162  1.8791
15504TIP3   OH267926   0.089   4.003  10.638  0.4446  0.1956  0.3126
15504TIP3    H167927   0.168   3.950  10.650  0.9899  0.1492 -3.0947
15504TIP3    H267928   0.121   4.093  10.636  0.5052  0.1525 -1.4971
15505TIP3   OH267929   6.734   1.758   2.252  0.3135  0.7136 -0.2505
15505TIP3    H167930   6.641   1.740   2.243  0.7226 -1.3298 -0.8091
15505TIP3    H267931   6.741   1.815   2.329 -1.3720  0.7271 -0.0966
15506TIP3   OH267932   4.475   4.386  14.921  0.0520 -0.0971  0.3994
15506TIP3    H167933   4.391   4.348  14.946  1.4460 -3.6349  0.0206
15506TIP3    H267934   4.478   4.378  14.826  0.3433  1.1769  0.2825
15507TIP3   OH267935   4.885   2.935   5.614  0.0328 -0.0255 -0.2382
15507TIP3    H167936   4.924   2.908   5.531  1.1298  0.2664  0.1841
15507TIP3    H267937   4.890   2.857   5.669 -0.3665 -0.1127 -0.3241
15508TIP3   OH267938   6.560   2.364   6.644 -0.3665 -0.7842 -0.4523
15508TIP3    H167939   6.648   2.401   6.638  0.0107 -1.3489  1.5181
15508TIP3    H267940   6.508   2.418   6.584  1.0644  0.2880 -0.7544
15509TIP3   OH267941   5.033   6.341   4.521 -0.1440  0.9038  0.1881
15509TIP3    H167942   4.939   6.343   4.535 -0.3869 -1.2409 -0.8328
15509TIP3    H267943   5.045   6.377   4.433 -0.1516  0.0467 -0.1735
15510TIP3   OH267944   1.120   5.161  13.812 -0.4299 -0.1820 -0.3563
15510TIP3    H167945   1.157   5.114  13.888  1.2476 -0.5717 -1.3804
15510TIP3    H267946   1.177   5.237  13.801  0.1849 -0.8554 -2.0425
15511TIP3   OH267947   5.352   0.292   0.900  0.3136  0.0304 -0.0445
15511TIP3    H167948   5.273   0.238   0.907 -0.9341  1.6624 -1.0058
15511TIP3    H267949   5.327   0.363   0.841  2.2779  0.9965  0.2380
15512TIP3   OH267950   1.392   2.677   1.250 -0.4677  0.2225  0.0097
15512TIP3    H167951   1.309   2.719   1.228 -0.1625  0.9166  0.1608
15512TIP3    H267952   1.367   2.602   1.303 -1.1169 -0.7203 -1.6178
15513TIP3   OH267953   6.332   0.357  12.171 -0.4055 -0.0844  0.4923
15513TIP3    H167954   6.381   0.436  12.194 -1.0652  0.4355  0.1407
15513TIP3    H267955   6.295   0.376  12.084  0.7376 -1.3960 -0.3141
15514TIP3   OH267956   6.489   1.894  13.559 -0.0893  0.5257  0.0343
15514TIP3    H167957   6.467   1.846  13.479 -0.4297  0.3694  0.2193
15514TIP3    H267958   6.583   1.882  13.570 -0.4726 -1.6642  1.0957
15515TIP3   OH267959   4.859   1.218   5.495  0.2884  0.0287 -0.2944
15515TIP3    H167960   4.786   1.224   5.433  0.4081  0.4187 -0.3989
15515TIP3    H267961   4.826   1.258   5.576  0.2825 -0.0726 -0.2470
15516TIP3   OH267962   3.201   0.888  14.465 -0.4167  0.3922 -0.3439
15516TIP3    H167963   3.232   0.946  14.535  0.6378 -0.6448  0.0659
15516TIP3    H267964   3.107   0.881  14.480 -0.6756  2.4610 -0.7643
15517TIP3   OH267965   5.499   3.253  16.416  0.0597  0.1469  0.3034
15517TIP3    H167966   5.490   3.284  16.326 -0.0912  0.8561  0.5590
15517TIP3    H267967   5.474   3.161  16.412 -1.2989  0.5213 -0.1381
15518TIP3   OH267968   4.929   1.483   4.597  0.0922  0.1086  0.4582
15518TIP3    H167969   4.929   1.435   4.680  1.6452 -3.1371 -1.3247
15518TIP3    H267970   4.836   1.490   4.574 -0.3102  0.3696  2.0556
15519TIP3   OH267971   1.410   2.269   4.878  0.0875  0.5640  0.5176
15519TIP3    H167972   1.406   2.269   4.782 -0.8410 -2.8926  0.4662
15519TIP3    H267973   1.496   2.306   4.899  1.3438 -0.8937 -1.7858
15520TIP3   OH267974   5.598   6.746   0.264  0.7963 -0.0383 -0.3625
15520TIP3    H167975   5.555   6.826   0.235 -0.1973 -0.0050  1.1722
15520TIP3    H267976   5.653   6.772   0.337 -0.1216 -0.8730  0.6452
15521TIP3   OH267977   0.644   0.465   4.894 -0.1855  0.2090  0.1012
15521TIP3    H167978   0.559   0.468   4.850 -0.4159 -1.1898  0.4128
15521TIP3    H267979   0.623   0.450   4.986  0.3713  0.9340  0.3493
15522TIP3   OH267980   0.835   1.112  14.102 -0.2951  0.1297 -0.0033
15522TIP3    H167981   0.816   1.089  14.193 -0.9011 -1.2752 -0.4728
15522TIP3    H267982   0.927   1.138  14.103 -0.6118  1.2913  1.2282
15523TIP3   OH267983   1.686   3.358   4.265  0.3910  0.0880 -0.4783
15523TIP3    H167984   1.765   3.335   4.217  0.5664  0.6295 -0.4503
15523TIP3    H267985   1.650   3.274   4.295  2.6134  0.0157  2.1792
15524TIP3   OH267986   2.811   2.069  16.268  0.6161  0.2444  0.3852
15524TIP3    H167987   2.750   2.113  16.327  0.6630  1.3761 -0.4158
15524TIP3    H267988   2.858   2.007  16.325 -1.0524 -0.4350  1.0502
15525TIP3   OH267989   0.739   2.258   0.892  0.4687 -0.1004 -0.8602
15525TIP3    H167990   0.786   2.175   0.897  0.2191 -0.1774  0.3102
15525TIP3    H267991   0.808   2.324   0.894  0.5539 -0.2126  0.8768
15526TIP3   OH267992   3.827   5.201  16.398 -0.1744 -0.0246 -0.4380
15526TIP3    H167993   3.787   5.135  16.342 -2.5394  1.6338 -0.7911
15526TIP3    H267994   3.770   5.204  16.475 -0.1461  1.6659 -0.4761
15527TIP3   OH267995   4.817   1.655  15.294  0.1290  0.1943 -0.0547
15527TIP3    H167996   4.875   1.622  15.225 -0.6788  0.3648 -0.8264
15527TIP3    H267997   4.729   1.644  15.258 -0.3198 -0.0890  1.1261
15528TIP3   OH267998   3.846   4.391  12.337 -0.1187 -0.5075  0.6202
15528TIP3    H167999   3.781   4.410  12.269  0.4864 -0.8121 -0.0421
15528TIP3    H268000   3.893   4.473  12.350  1.7532 -1.2295 -1.4514
15529TIP3   OH268001   0.960   6.050   3.334  0.7131 -0.0249 -0.5809
15529TIP3    H168002   1.000   5.964   3.321 -1.1395 -0.7895 -1.3990
15529TIP3    H268003   0.911   6.066   3.253  0.0381  1.2519  0.0587
15530TIP3   OH268004   1.368   3.026  11.243 -0.4914  0.3700  0.3483
15530TIP3    H168005   1.305   3.051  11.176  0.3881  1.4632 -0.0801
15530TIP3    H268006   1.406   3.109  11.272 -0.2928 -0.1594  1.6332
15531TIP3   OH268007   4.341   6.435   0.207  0.0303 -0.0595  0.0429
15531TIP3    H168008   4.335   6.443   0.112 -0.9311 -2.7435 -0.1685
15531TIP3    H268009   4.296   6.353   0.227  1.1654 -0.0854  2.7161
15532TIP3   OH268010   2.912   5.485  14.260  0.1548  0.0797 -0.2932
15532TIP3    H168011   2.840   5.539  14.291  1.2122  1.0077  0.5873
15532TIP3    H268012   2.984   5.546  14.246  1.4260 -1.1085  0.8563
15533TIP3   OH268013   4.897   2.880   2.786  0.7219  0.3017 -0.1327
15533TIP3    H168014   4.930   2.894   2.697  0.9674 -1.5168 -0.3550
15533TIP3    H268015   4.878   2.968   2.819  2.2545  1.1138 -1.3549
15534TIP3   OH268016   0.207   0.155  15.081 -0.0531  0.4008  0.6540
15534TIP3    H168017   0.195   0.219  15.151  2.6058 -0.4928  2.0012
15534TIP3    H268018   0.256   0.201  15.013  1.0085  0.0834  1.1996
15535TIP3   OH268019   0.892   3.463  14.461 -0.1071 -0.1333 -0.0196
15535TIP3    H168020   0.881   3.545  14.412  2.6539 -0.9085 -2.0585
15535TIP3    H268021   0.806   3.422  14.458 -0.7677  1.2905 -1.5862
15536TIP3   OH268022   5.639   1.230  12.386 -1.1580 -0.7470 -1.0066
15536TIP3    H168023   5.733   1.248  12.385 -1.5469  1.3900 -1.1676
15536TIP3    H268024   5.616   1.218  12.294 -0.9922 -1.5600 -0.9431
15537TIP3   OH268025   5.139   1.152   0.344  0.3292 -0.0885 -0.0565
15537TIP3    H168026   5.085   1.231   0.333 -0.1664 -0.6096 -1.4610
15537TIP3    H268027   5.081   1.080   0.320  1.3923 -0.7287 -0.7276
15538TIP3   OH268028   4.658   0.071   5.776 -0.1846 -0.9512  0.2107
15538TIP3    H168029   4.717   0.065   5.850 -0.3043 -0.2175  0.3611
15538TIP3    H268030   4.581   0.020   5.802  0.8378 -2.8927 -0.4391
15539TIP3   OH268031   4.312   6.439   3.119 -0.1319  0.1511  0.3350
15539TIP3    H168032   4.272   6.452   3.033  0.3368  1.4877  0.3073
15539TIP3    H268033   4.404   6.461   3.106 -0.3202  1.7085  1.4828
15540TIP3   OH268034   0.759   4.218   5.063  0.6581  0.1674 -0.2530
15540TIP3    H168035   0.690   4.168   5.107 -0.9773  1.3343 -1.4456
15540TIP3    H268036   0.826   4.231   5.130 -0.2975 -0.9461  0.9336
15541TIP3   OH268037   6.551   1.427  15.199  0.0448 -1.1202 -0.0024
15541TIP3    H168038   6.527   1.424  15.106  3.0399  1.0265 -0.9403
15541TIP3    H268039   6.474   1.461  15.243 -0.1221  1.6656 -2.3005
15542TIP3   OH268040   3.556   6.094   4.190 -0.0257  0.4701  0.3793
15542TIP3    H168041   3.597   6.009   4.204  1.1807  0.6138 -2.0868
15542TIP3    H268042   3.621   6.157   4.221  1.0432  0.6349 -2.0783
15543TIP3   OH268043   3.867   2.764  11.663 -0.3118 -0.1917 -0.5451
15543TIP3    H168044   3.891   2.671  11.656 -1.0305 -0.3297 -1.2250
15543TIP3    H268045   3.804   2.778  11.592  0.1149  0.9214 -0.7058
15544TIP3   OH268046   2.689   0.280   1.823 -0.5450 -0.1206 -0.0861
15544TIP3    H168047   2.727   0.271   1.911  1.1056  1.7476 -0.5642
15544TIP3    H268048   2.610   0.331   1.836 -0.0763  0.5217  0.2820
15545TIP3   OH268049   0.197   5.915   2.518  0.0462 -0.3544 -0.1956
15545TIP3    H168050   0.136   5.987   2.536  1.3052  0.9161 -0.9566
15545TIP3    H268051   0.144   5.849   2.474 -1.1447  0.0459  0.6023
15546TIP3   OH268052   6.691   1.124  11.656  0.3379  0.2432 -0.1012
15546TIP3    H168053   6.729   1.047  11.697 -0.1783  1.6168  3.1303
15546TIP3    H268054   6.758   1.192  11.665  0.2406  0.5632 -1.6292
15547TIP3   OH268055   3.939   0.142  15.689 -0.1920 -0.5243  0.4776
15547TIP3    H168056   3.987   0.156  15.607  1.3957 -2.0717  1.0899
15547TIP3    H268057   3.896   0.225  15.706  1.7617  0.7323 -0.4771
15548TIP3   OH268058   4.624   5.853  16.142  1.0378 -0.5810 -0.3946
15548TIP3    H168059   4.596   5.904  16.218  2.3346  0.0443 -0.3202
15548TIP3    H268060   4.609   5.911  16.067 -0.5556 -1.3196 -0.6771
15549TIP3   OH268061   2.885   2.153  11.906  0.3196  0.1064 -0.1411
15549TIP3    H168062   2.942   2.137  11.981 -0.5935  0.2465  0.5973
15549TIP3    H268063   2.811   2.093  11.919 -0.0880  0.4870 -0.6603
15550TIP3   OH268064   0.646   6.265   0.132  0.4832 -0.4518  0.1092
15550TIP3    H168065   0.626   6.215   0.211  0.2877  1.1261  1.0671
15550TIP3    H268066   0.722   6.220   0.095  2.0043  0.1425  2.4200
15551TIP3   OH268067   1.178   0.546   3.157 -0.2247  0.5370 -0.1318
15551TIP3    H168068   1.266   0.579   3.174  0.6381 -0.4494 -2.3710
15551TIP3    H268069   1.185   0.452   3.173 -0.4200  0.2089 -1.8389
15552TIP3   OH268070   0.954   1.479  13.266 -0.2684  0.0791 -0.1030
15552TIP3    H168071   0.911   1.494  13.350  0.7598 -2.6426  0.9731
15552TIP3    H268072   0.884   1.448  13.208 -0.5535 -0.2657  0.4215
15553TIP3   OH268073   4.183   5.649   4.835  0.3135  0.2045  0.1552
15553TIP3    H168074   4.226   5.568   4.861  0.0495 -0.2385 -0.7795
15553TIP3    H268075   4.254   5.707   4.809  0.4075 -0.2030 -0.4940
15554TIP3   OH268076   1.189   4.274   2.440 -0.3855  0.4126  0.0857
15554TIP3    H168077   1.168   4.181   2.443  0.4840  0.2713  2.3367
15554TIP3    H268078   1.191   4.295   2.346 -1.4442 -1.6201 -0.4121
15555TIP3   OH268079   2.631   6.535  12.417  0.1896  0.1774 -0.3730
15555TIP3    H168080   2.642   6.630  12.410 -0.3025  0.2515 -0.1822
15555TIP3    H268081   2.575   6.512  12.343 -1.6345  0.3827  0.8909
15556TIP3   OH268082   5.615   2.325  11.250  0.5902 -0.8996  0.5279
15556TIP3    H168083   5.632   2.395  11.314  0.2945 -0.1960 -0.1512
15556TIP3    H268084   5.702   2.294  11.225  0.8360  0.9863 -1.0710
15557TIP3   OH268085   4.030   4.083   5.115  0.1565 -0.0491 -0.1611
15557TIP3    H168086   4.080   4.006   5.144 -0.2588 -0.0962  0.4424
15557TIP3    H268087   4.000   4.124   5.196  2.4994  2.1877 -0.3817
15558TIP3   OH268088   5.176   4.957  14.889 -0.0438  0.4572 -0.5834
15558TIP3    H168089   5.191   4.869  14.923  0.2755  1.1723  1.1877
15558TIP3    H268090   5.082   4.971  14.897  0.2578  1.3341  1.8840
15559TIP3   OH268091   0.562   5.501   3.087  0.1548  0.7774  0.5142
15559TIP3    H168092   0.613   5.429   3.049 -0.5362  0.7854 -0.4567
15559TIP3    H268093   0.539   5.470   3.175  0.4412  0.0934  0.3563
15560TIP3   OH268094   6.496   1.999   5.031  0.0731 -0.0536  0.0801
15560TIP3    H168095   6.492   2.028   5.122  0.2683 -0.0947  0.1018
15560TIP3    H268096   6.416   1.948   5.019  0.7830 -1.3528  0.6877
15561TIP3   OH268097   1.914   3.399  14.673  0.2103 -0.2689 -0.3435
15561TIP3    H168098   1.879   3.345  14.744 -0.0674  0.0885 -0.2066
15561TIP3    H268099   1.863   3.480  14.677  0.8674  0.1485 -0.3189
15562TIP3   OH268100   2.637   3.644   3.524  0.4262  0.4841 -0.0787
15562TIP3    H168101   2.626   3.739   3.531 -0.4822  0.4393 -0.6989
15562TIP3    H268102   2.649   3.614   3.614  0.7007  1.1876  0.1199
15563TIP3   OH268103   0.484   6.584   4.070  0.3651 -0.5516  0.1276
15563TIP3    H168104   0.486   6.502   4.020  0.1930 -0.7576  0.4604
15563TIP3    H268105   0.571   6.591   4.108 -0.0944 -1.3537  1.3522
15564TIP3   OH268106   2.958   1.332   3.859  0.1997  0.0038 -0.1854
15564TIP3    H168107   3.024   1.372   3.916  2.2586 -0.1890 -2.3430
15564TIP3    H268108   2.904   1.405   3.829  1.4373  0.6509 -0.9051
15565TIP3   OH268109   5.629   4.561  13.004  0.3306 -0.5229 -0.1776
15565TIP3    H168110   5.605   4.475  12.970 -0.1104 -0.1954 -0.7160
15565TIP3    H268111   5.579   4.623  12.950  1.9624  0.1560 -0.9509
15566TIP3   OH268112   5.719   3.069   1.885  0.0717  0.5291  0.1407
15566TIP3    H168113   5.786   3.073   1.817 -0.5200  0.4454 -0.4559
15566TIP3    H268114   5.761   3.107   1.962  1.0290 -0.1699 -0.0296
15567TIP3   OH268115   3.232   2.248   4.706 -0.0348  0.7834  0.1633
15567TIP3    H168116   3.305   2.192   4.681 -1.4421 -1.8734  1.8358
15567TIP3    H268117   3.268   2.337   4.700  3.0794 -0.3903  0.1672
15568TIP3   OH268118   0.221   3.934   2.218 -0.1229 -0.3770 -0.1692
15568TIP3    H168119   0.141   3.917   2.169 -0.9083  1.0999  0.5815
15568TIP3    H268120   0.204   3.899   2.305  0.3946 -0.8706 -0.2609
15569TIP3   OH268121   2.263   6.720   2.123 -0.1275 -0.2741  0.6637
15569TIP3    H168122   2.306   6.646   2.080 -0.2093 -0.0349  0.1623
15569TIP3    H268123   2.172   6.694   2.131 -0.6424  0.6591 -1.5812
15570TIP3   OH268124   3.516   3.202  12.448 -0.2503  0.2856 -0.5200
15570TIP3    H168125   3.475   3.116  12.433 -0.1005 -0.0233  0.8391
15570TIP3    H268126   3.455   3.264  12.408 -1.6412 -0.2457  0.7449
15571TIP3   OH268127   4.955   5.993  14.062 -0.4635 -0.0826  0.2511
15571TIP3    H168128   5.037   6.043  14.063 -0.4323  0.2286 -4.9746
15571TIP3    H268129   4.887   6.058  14.046 -1.2714 -0.8474  0.5585
15572TIP3   OH268130   4.494   4.232  12.334 -0.3492  0.0175  0.6144
15572TIP3    H168131   4.544   4.153  12.355  1.8398  1.7230  2.1131
15572TIP3    H268132   4.526   4.257  12.247 -1.9999 -1.4183 -0.4439
15573TIP3   OH268133   1.532   3.805   2.760 -0.3507  0.0469 -0.4811
15573TIP3    H168134   1.454   3.834   2.808 -0.2272 -0.6259  0.1490
15573TIP3    H268135   1.530   3.709   2.769  1.2053  0.1058  0.5846
15574TIP3   OH268136   2.398   4.094  14.019  0.9247 -0.4394 -0.4490
15574TIP3    H168137   2.320   4.121  13.970  0.1462 -0.4149  0.7637
15574TIP3    H268138   2.449   4.174  14.029  0.9319 -0.3821 -0.9525
15575TIP3   OH268139   4.317   5.553  12.603 -0.1183 -0.0158  0.3460
15575TIP3    H168140   4.326   5.603  12.684 -0.0675  0.9721 -0.2513
15575TIP3    H268141   4.323   5.620  12.534 -1.7879 -0.6293 -0.4146
15576TIP3   OH268142   4.433   0.365   2.215 -0.0124 -0.1218  0.5606
15576TIP3    H168143   4.403   0.347   2.125 -1.7662 -0.0029  1.0890
15576TIP3    H268144   4.355   0.352   2.269  0.7523  0.8625  1.9456
15577TIP3   OH268145   4.545   2.525   1.197  0.1105 -0.5814 -0.4172
15577TIP3    H168146   4.585   2.613   1.198 -0.3301 -0.3665 -1.4326
15577TIP3    H268147   4.616   2.467   1.225  0.1256  0.2048  1.2499
15578TIP3   OH268148   4.477   3.598   5.621  0.5582  0.3688  0.0406
15578TIP3    H168149   4.484   3.688   5.588 -0.7144  0.1945 -0.7537
15578TIP3    H268150   4.512   3.602   5.710 -1.0630  2.0328  0.6392
15579TIP3   OH268151   2.577   0.260   4.825 -0.4247 -0.0761 -0.4104
15579TIP3    H168152   2.645   0.217   4.877 -1.3062 -1.2351 -0.2133
15579TIP3    H268153   2.523   0.189   4.791 -3.2734  0.9431  1.7774
15580TIP3   OH268154   4.275   0.847   2.355 -0.1844  0.6507  0.1279
15580TIP3    H168155   4.186   0.813   2.370  0.4179 -0.6211  0.8600
15580TIP3    H268156   4.296   0.895   2.435  0.0788  0.3077  0.2659
15581TIP3   OH268157   4.780   4.665  11.584 -0.3879 -0.1942 -0.1800
15581TIP3    H168158   4.781   4.597  11.651 -0.2608  0.3998  0.4221
15581TIP3    H268159   4.687   4.675  11.561 -0.5964  0.6040  0.9450
15582TIP3   OH268160   6.708   3.984   3.610 -0.0379  0.0685  0.3306
15582TIP3    H168161   6.663   4.040   3.547  1.5115  0.7444 -0.1949
15582TIP3    H268162   6.670   3.897   3.595 -1.3138  0.6501  0.0568
15583TIP3   OH268163   4.408   2.248   3.142 -0.8167 -0.1848  0.2683
15583TIP3    H168164   4.442   2.182   3.203 -1.5062  0.5438  1.4653
15583TIP3    H268165   4.313   2.242   3.152 -0.8458  2.3706  1.8999
15584TIP3   OH268166   5.386   4.165  11.724 -0.3734 -0.1919  0.5151
15584TIP3    H168167   5.480   4.150  11.737 -0.2955  0.1582  0.3624
15584TIP3    H268168   5.351   4.179  11.812 -0.9829 -4.2368  1.0442
15585TIP3   OH268169   5.148   5.073   1.369 -0.3022 -0.3345  0.7437
15585TIP3    H168170   5.242   5.058   1.363 -0.3023 -0.3613  0.8005
15585TIP3    H268171   5.117   5.071   1.279 -0.1906  0.0671  0.6967
15586TIP3   OH268172   2.154   4.777  12.769 -0.2463 -0.3738  0.2072
15586TIP3    H168173   2.198   4.786  12.854 -0.8368  0.6649  0.4135
15586TIP3    H268174   2.096   4.702  12.779  3.1556 -3.2601 -0.8074
15587TIP3   OH268175   5.053   4.591   5.333 -0.4235  0.2595 -0.3218
15587TIP3    H168176   5.105   4.670   5.319 -0.6328  0.4367 -0.1020
15587TIP3    H268177   5.103   4.541   5.397 -0.0300 -0.0297 -0.8496
15588TIP3   OH268178   2.047   6.243  15.944 -0.2266  0.1696 -0.2704
15588TIP3    H168179   1.982   6.279  16.004  0.0062  0.6026 -0.2782
15588TIP3    H268180   2.124   6.299  15.955  0.2033 -0.4438 -0.1328
15589TIP3   OH268181   4.860   1.074  12.628 -0.3611 -0.0549 -0.4093
15589TIP3    H168182   4.784   1.023  12.656 -0.0298 -0.5402 -0.3950
15589TIP3    H268183   4.824   1.144  12.574 -0.8064 -0.3517 -0.4938
15590TIP3   OH268184   1.172   3.215  14.154 -0.5728  0.2766 -0.4319
15590TIP3    H168185   1.252   3.235  14.105  1.7271 -0.1142  3.0340
15590TIP3    H268186   1.143   3.131  14.119  2.7017 -1.4723  0.7978
15591TIP3   OH268187   0.892   3.694   1.977 -0.1131  0.4516  0.5376
15591TIP3    H168188   0.842   3.770   2.008 -1.2884  0.3551 -1.0629
15591TIP3    H268189   0.983   3.714   2.000 -0.6544  1.4606  1.8628
15592TIP3   OH268190   3.285   4.376  15.390 -0.2197  0.1640 -0.6217
15592TIP3    H168191   3.378   4.360  15.373  0.1259  1.3489  0.1502
15592TIP3    H268192   3.283   4.460  15.434 -1.5722 -0.4160  0.4351
15593TIP3   OH268193   5.376   4.198  12.774 -0.2630  0.2350  0.0936
15593TIP3    H168194   5.301   4.184  12.717 -0.8822 -1.1004  1.1957
15593TIP3    H268195   5.339   4.245  12.850 -0.5508 -2.5893  1.7938
15594TIP3   OH268196   1.345   5.088  15.178 -0.5445 -0.2701  0.2728
15594TIP3    H168197   1.401   5.046  15.244 -2.1833  0.7806  2.4103
15594TIP3    H268198   1.262   5.042  15.185 -1.2173  0.8928  0.0647
15595TIP3   OH268199   1.342   0.066  15.958  0.4732  0.4529 -0.6348
15595TIP3    H168200   1.366  -0.026  15.948 -2.6500 -0.4182 -0.3850
15595TIP3    H268201   1.316   0.093  15.870  0.1578  0.7418 -0.4512
15596TIP3   OH268202   1.483   5.012  15.413 -0.6656 -0.5210 -0.2326
15596TIP3    H168203   1.577   4.998  15.427 -0.0563  0.5648 -2.7345
15596TIP3    H268204   1.455   5.066  15.487  0.4851 -1.5686  0.9873
15597TIP3   OH268205   2.387   3.749  13.435 -0.4655 -0.3310 -0.6426
15597TIP3    H168206   2.439   3.826  13.457  2.7080 -2.1997 -1.2868
15597TIP3    H268207   2.395   3.691  13.511 -1.4233 -0.7436 -0.8411
15598TIP3   OH268208   6.163   5.701  14.328  0.0565 -0.0066  0.0007
15598TIP3    H168209   6.182   5.795  14.328 -1.0725  0.2291  0.0018
15598TIP3    H268210   6.077   5.694  14.370 -1.4340 -0.7205 -3.0141
15599TIP3   OH268211   3.269   0.883  16.862  0.2486 -0.4957 -0.3505
15599TIP3    H168212   3.325   0.950  16.901  0.5626 -0.9110 -0.0811
15599TIP3    H268213   3.329   0.815  16.831 -0.0688 -0.6880 -0.5518
15600TIP3   OH268214   0.826   0.429  11.788  0.5728  1.1884  0.0089
15600TIP3    H168215   0.814   0.336  11.810  1.2628  0.9572 -0.6188
15600TIP3    H268216   0.739   0.457  11.759  0.1100  1.0007  1.1743
15601TIP3   OH268217   0.904   6.621  16.831 -0.6158  0.4909 -0.4030
15601TIP3    H168218   0.915   6.690  16.765 -2.5450  2.2451  1.0252
15601TIP3    H268219   0.872   6.668  16.908  0.5281 -1.6783  1.4311
15602TIP3   OH268220   5.254   2.130  15.235 -0.1453 -0.4020 -0.0552
15602TIP3    H168221   5.309   2.149  15.159 -0.3802  0.3279 -0.0462
15602TIP3    H268222   5.289   2.185  15.305 -0.8945  0.0889 -0.0572
15603TIP3   OH268223   4.084   1.689   5.513 -0.6404 -0.3620  0.5715
15603TIP3    H168224   4.089   1.774   5.467 -0.1229  0.4569  2.1145
15603TIP3    H268225   4.110   1.625   5.447 -1.1689  0.6559 -0.6644
15604TIP3   OH268226   4.497   2.466  12.507  0.4203  0.0919 -0.5817
15604TIP3    H168227   4.405   2.475  12.484  0.3680  0.4413 -0.2377
15604TIP3    H268228   4.541   2.446  12.424  0.1274  0.5769 -0.8560
15605TIP3   OH268229   4.209   0.823   4.690  0.1188  0.2312  0.2220
15605TIP3    H168230   4.202   0.741   4.739 -3.1074  1.5024  2.0579
15605TIP3    H268231   4.230   0.888   4.757  2.8218  0.9078 -1.2457
15606TIP3   OH268232   0.283   3.497  10.240  0.2940  0.5412  0.2022
15606TIP3    H168233   0.219   3.541  10.296 -1.3535  0.2981 -1.4134
15606TIP3    H268234   0.262   3.404  10.249  0.4116  0.4608 -0.3265
15607TIP3   OH268235   5.936   0.711   2.915  0.2945 -0.5338  0.4867
15607TIP3    H168236   5.871   0.657   2.960  0.1336 -0.0447  0.8461
15607TIP3    H268237   5.887   0.786   2.883  0.6601 -0.2146  0.6726
15608TIP3   OH268238   5.072   0.155  13.274  0.2724  0.0876  0.5647
15608TIP3    H168239   5.121   0.099  13.214 -1.7713 -1.1932  0.0162
15608TIP3    H268240   5.117   0.239  13.271  1.9168 -0.7942 -0.5334
15609TIP3   OH268241   2.266   2.398  14.628 -0.0811  0.4832  0.2338
15609TIP3    H168242   2.284   2.334  14.558 -0.9303  1.1754 -0.6255
15609TIP3    H268243   2.341   2.457  14.626  0.0629  0.2986  0.1416
15610TIP3   OH268244   0.828   6.623  13.216  0.5708  0.4440  0.1650
15610TIP3    H168245   0.735   6.598  13.221 -0.2792  3.4857  0.4231
15610TIP3    H268246   0.864   6.595  13.300 -0.0707 -0.8310  0.0402
15611TIP3   OH268247   3.048   0.301  12.995  0.2643  0.3670  0.0525
15611TIP3    H168248   2.976   0.248  13.029  1.7423  0.2681  3.2124
15611TIP3    H268249   3.077   0.256  12.916 -0.4278 -1.8669  1.0542
15612TIP3   OH268250   0.452   1.945   5.253 -0.0406 -0.1296  0.1737
15612TIP3    H168251   0.391   1.901   5.311  0.8487 -0.1100  1.1297
15612TIP3    H268252   0.441   2.038   5.273  0.8804 -0.1806  0.9161
15613TIP3   OH268253   6.381   1.000   2.506  0.7907 -0.8431  0.1328
15613TIP3    H168254   6.306   0.948   2.479 -0.2532  0.8821 -0.3093
15613TIP3    H268255   6.393   0.978   2.599 -1.2293  0.0326  0.6203
15614TIP3   OH268256   1.923   1.653  11.447  0.4969  0.3715  0.0104
15614TIP3    H168257   1.905   1.655  11.541 -1.2620 -0.7680 -0.2931
15614TIP3    H268258   1.951   1.563  11.430 -0.1569  0.3023 -0.7255
15615TIP3   OH268259   4.436   2.219  13.051  0.5150 -0.4395 -0.1596
15615TIP3    H168260   4.476   2.303  13.074 -0.3222 -0.3500  0.9805
15615TIP3    H268261   4.508   2.156  13.052  0.8467 -0.0433  0.6124
15616TIP3   OH268262   3.941   0.123  13.110 -0.2547  0.0016  0.2022
15616TIP3    H168263   3.864   0.098  13.162  0.1771 -1.9316 -0.0353
15616TIP3    H268264   3.992   0.179  13.167 -1.7530  1.1614  0.4348
15617TIP3   OH268265   6.738   6.534   3.780  0.0926 -0.3800 -0.0719
15617TIP3    H168266   6.798   6.487   3.838 -0.9011 -0.1212  1.1625
15617TIP3    H268267   6.789   6.609   3.750  1.2649 -1.5425 -1.0808
15618TIP3   OH268268   0.974   3.361  10.826 -0.0774 -0.2996  0.0747
15618TIP3    H168269   0.913   3.334  10.756 -0.0941  0.0312 -0.0437
15618TIP3    H268270   0.918   3.407  10.889 -0.0359 -0.4623  0.2285
15619TIP3   OH268271   5.021   0.430   5.290 -0.0931 -0.2540  0.8852
15619TIP3    H168272   5.109   0.466   5.295  1.0222 -2.5589 -1.0863
15619TIP3    H268273   5.006   0.418   5.196 -2.2501 -0.5069  1.2370
15620TIP3   OH268274   2.539   3.811   5.825 -0.7354  0.0576 -0.1942
15620TIP3    H168275   2.523   3.903   5.848 -0.8977  0.3046 -1.2825
15620TIP3    H268276   2.512   3.804   5.734  3.0656 -0.0897 -1.4080
15621TIP3   OH268277   4.721   2.431  14.001  0.5514 -0.3421  0.4899
15621TIP3    H168278   4.756   2.455  13.915  0.4858 -1.2609  0.2058
15621TIP3    H268279   4.628   2.416  13.986  0.0620  1.7321  1.1744
15622TIP3   OH268280   2.540   1.683  13.137 -0.6854 -0.0076 -0.2270
15622TIP3    H168281   2.450   1.651  13.142 -0.7924 -0.0570 -2.0458
15622TIP3    H268282   2.538   1.767  13.182 -0.7997 -1.6470  3.0015
15623TIP3   OH268283   4.650   3.365  16.226 -0.0749 -0.0382 -0.4715
15623TIP3    H168284   4.735   3.355  16.268 -1.1393 -1.2333  1.4791
15623TIP3    H268285   4.616   3.448  16.258 -0.5389 -0.5650  0.4117
15624TIP3   OH268286   5.984   5.185   0.888  0.4054  0.5470 -0.2110
15624TIP3    H168287   5.939   5.185   0.972  0.7528 -2.5554  0.0312
15624TIP3    H268288   6.058   5.243   0.901  0.6797 -0.1934  1.7619
15625TIP3   OH268289   2.673   1.838  11.284  0.4482  0.6434 -0.1609
15625TIP3    H168290   2.654   1.759  11.233  2.8230 -0.9967  1.3990
15625TIP3    H268291   2.606   1.838  11.352  0.7369 -0.3006  0.1325
15626TIP3   OH268292   1.102   6.730   0.061 -0.1403  0.2597  0.1975
15626TIP3    H168293   1.007   6.716   0.061  0.0157 -1.0936 -2.5116
15626TIP3    H268294   1.140   6.643   0.068  0.8941  0.6554 -0.3169
15627TIP3   OH268295   4.386   2.109  16.694 -0.1849  0.0913 -0.5115
15627TIP3    H168296   4.434   2.030  16.716 -1.3970 -0.0463  1.7839
15627TIP3    H268297   4.399   2.120  16.599  0.6419 -2.3876 -0.7087
15628TIP3   OH268298   0.454   6.244   0.515 -0.0947 -0.2565 -0.7159
15628TIP3    H168299   0.470   6.198   0.433  2.5344  1.0887 -1.0026
15628TIP3    H268300   0.475   6.180   0.583 -2.0041 -1.2800 -1.0490
15629TIP3   OH268301   2.426   3.541  16.358  0.3976  0.2359 -0.3756
15629TIP3    H168302   2.453   3.476  16.293 -2.2762 -1.1121 -0.1995
15629TIP3    H268303   2.438   3.497  16.443 -0.6334  0.2712 -0.2117
15630TIP3   OH268304   5.612   5.920  12.901 -0.0269  0.6941 -0.8150
15630TIP3    H168305   5.594   5.861  12.828  1.4788  1.6471 -2.0105
15630TIP3    H268306   5.614   5.864  12.979 -0.1132 -0.5818 -1.7254
15631TIP3   OH268307   4.618   4.449  13.550  0.2003 -0.4994  0.1674
15631TIP3    H168308   4.641   4.526  13.602 -1.3015  0.9252 -1.2075
15631TIP3    H268309   4.556   4.401  13.606 -1.1402  0.8394 -0.1387
15632TIP3   OH268310   5.941   4.471  15.472  0.4621 -0.0020  0.4683
15632TIP3    H168311   5.940   4.394  15.415 -0.9829 -1.2057  2.0869
15632TIP3    H268312   5.854   4.509  15.464  0.6272  0.5015  0.9772
15633TIP3   OH268313   0.748   1.655  16.888 -0.2100 -0.2066 -0.2351
15633TIP3    H168314   0.691   1.634  16.961  1.2124 -0.4718  0.8212
15633TIP3    H268315   0.722   1.743  16.862 -1.7437 -0.7011 -0.4038
15634TIP3   OH268316   1.326   2.475  15.826  0.3399  0.3864 -0.2915
15634TIP3    H168317   1.417   2.457  15.850 -0.0863 -1.3904  0.0524
15634TIP3    H268318   1.310   2.421  15.749 -0.3568  0.8566 -0.4798
15635TIP3   OH268319   0.488   1.962   0.108 -0.4504 -0.0258  0.7588
15635TIP3    H168320   0.414   2.022   0.105  0.5649  1.1962 -0.3033
15635TIP3    H268321   0.488   1.920   0.022 -0.3804 -0.6192  1.0416
15636TIP3   OH268322   4.684   4.505  11.800 -0.0817 -0.2012 -0.0045
15636TIP3    H168323   4.662   4.419  11.835  0.4983 -0.6336 -0.6955
15636TIP3    H268324   4.600   4.546  11.781 -0.4076 -0.0978  1.5331
15637TIP3   OH268325   3.460   0.495  14.522  0.3690  0.4525 -0.3359
15637TIP3    H168326   3.396   0.454  14.464 -0.6528 -0.1502  1.1871
15637TIP3    H268327   3.475   0.581  14.482 -0.0551 -0.0688 -1.6751
15638TIP3   OH268328   3.196   0.843  13.919 -0.5091 -0.4801  0.0316
15638TIP3    H168329   3.147   0.835  13.837  0.1077 -0.9097 -0.3003
15638TIP3    H268330   3.213   0.752  13.945 -1.5442 -0.3736  1.1468
15639TIP3   OH268331   4.424   5.583   3.583  0.2953  0.1996 -1.0922
15639TIP3    H168332   4.410   5.500   3.538 -1.3831 -0.6354  0.8852
15639TIP3    H268333   4.368   5.645   3.536 -2.8161 -1.0421  0.8282
15640TIP3   OH268334   2.278   4.247   0.815 -0.1917  0.1055  0.0998
15640TIP3    H168335   2.244   4.311   0.753 -0.0381  1.0941  1.0415
15640TIP3    H268336   2.365   4.280   0.839 -1.0007  0.7310  2.2873
15641TIP3   OH268337   3.741   6.363   0.853 -0.5008 -0.8972  0.0637
15641TIP3    H168338   3.692   6.299   0.905 -1.2711 -0.0902  0.3464
15641TIP3    H268339   3.687   6.375   0.775 -0.5222 -0.3440  0.1663
15642TIP3   OH268340   1.074   2.008   4.897 -0.5689  0.1541 -0.5184
15642TIP3    H168341   1.102   2.098   4.914  0.2472  0.4006 -3.0134
15642TIP3    H268342   0.984   2.017   4.868 -0.8441  0.0555  0.2977
15643TIP3   OH268343   6.720   2.940   1.668 -0.3545 -0.0376 -0.4413
15643TIP3    H168344   6.790   2.877   1.683  0.3972  0.6982 -0.7988
15643TIP3    H268345   6.722   2.997   1.745  0.0229  0.5209 -0.8631
15644TIP3   OH268346   0.581   5.351  12.178  0.7779  0.5627  0.0347
15644TIP3    H168347   0.633   5.288  12.128  1.8533  1.2670  0.2342
15644TIP3    H268348   0.646   5.401  12.228 -0.1773  0.8100  1.0435
15645TIP3   OH268349   6.134   1.866   6.553  0.6073  0.1196 -0.2467
15645TIP3    H168350   6.096   1.918   6.623 -0.5793 -0.1330 -0.6905
15645TIP3    H268351   6.099   1.778   6.566  0.8228 -0.0563 -0.8262
15646TIP3   OH268352   4.676   6.185  15.632 -0.1524 -0.2179 -0.5738
15646TIP3    H168353   4.603   6.180  15.571  0.1833  0.9194 -1.0775
15646TIP3    H268354   4.680   6.277  15.658  0.6114 -0.4195  0.0402
15647TIP3   OH268355   5.650   3.001  14.515 -0.0839 -0.2532 -0.2331
15647TIP3    H168356   5.672   3.063  14.584 -0.4477 -0.7724  0.3566
15647TIP3    H268357   5.624   3.055  14.441  0.3538  0.3089  0.0239
15648TIP3   OH268358   0.728   1.119   0.830  0.4038 -0.3335 -0.0106
15648TIP3    H168359   0.647   1.098   0.784  1.4223 -3.2050 -0.5897
15648TIP3    H268360   0.784   1.158   0.763 -0.7007  2.3262  0.5531
15649TIP3   OH268361   5.631   3.509   4.601  0.4289 -0.2159 -0.5967
15649TIP3    H168362   5.570   3.557   4.657  1.2241  0.3217 -0.1673
15649TIP3    H268363   5.618   3.417   4.623  0.3049 -0.0467  0.0370
15650TIP3   OH268364   2.210   6.183  16.449  0.2187  0.0057 -0.0323
15650TIP3    H168365   2.242   6.156  16.536 -0.7289 -0.3689  0.2097
15650TIP3    H268366   2.154   6.258  16.467 -0.5633 -0.5278 -0.2425
15651TIP3   OH268367   5.520   0.392  13.968  0.2813 -0.5242  0.1409
15651TIP3    H168368   5.546   0.469  14.019 -1.3323  0.0394  0.1469
15651TIP3    H268369   5.468   0.339  14.028  0.4639 -1.0928 -0.1945
15652TIP3   OH268370   1.303   4.229   5.821 -0.4787 -0.7272 -0.0328
15652TIP3    H168371   1.217   4.189   5.832 -0.4137 -0.6421  0.8238
15652TIP3    H268372   1.339   4.233   5.909 -0.5587  1.3772 -0.0555
15653TIP3   OH268373   2.963   5.097   3.211  0.1703  0.3028 -0.0445
15653TIP3    H168374   2.881   5.072   3.254 -0.4231  0.7574 -0.8775
15653TIP3    H268375   3.032   5.072   3.272 -0.5752 -0.4669  0.4842
15654TIP3   OH268376   4.783   2.591  17.217  0.3426  0.3149 -1.0476
15654TIP3    H168377   4.836   2.601  17.138  0.8876 -0.2125 -0.7547
15654TIP3    H268378   4.701   2.554  17.187  1.6504 -2.7768 -1.0257
15655TIP3   OH268379   5.663   6.458   1.109 -0.2409 -0.1255 -0.0870
15655TIP3    H168380   5.645   6.396   1.179  0.5771 -1.3850 -0.9501
15655TIP3    H268381   5.667   6.544   1.152  0.2922 -0.8807  1.3976
15656TIP3   OH268382   4.163   4.106  15.141 -0.5522 -0.3018  0.0727
15656TIP3    H168383   4.167   4.201  15.126 -1.6639 -0.0256  1.4598
15656TIP3    H268384   4.248   4.074  15.111  0.0099  1.1894  0.0133
15657TIP3   OH268385   4.015   2.508   1.609  0.2090  0.0957 -0.1202
15657TIP3    H168386   4.061   2.449   1.669  2.0504  1.1654 -0.4371
15657TIP3    H268387   4.062   2.500   1.526 -1.2527 -0.0740 -0.9586
15658TIP3   OH268388   1.984   5.624   1.496  0.1712  0.0603  0.3762
15658TIP3    H168389   1.935   5.572   1.432  1.8476 -1.3398  0.1943
15658TIP3    H268390   2.014   5.700   1.447  1.2457 -0.8881 -0.4751
15659TIP3   OH268391   6.619   6.697   1.767 -0.1039  0.1647 -0.1507
15659TIP3    H168392   6.692   6.732   1.716  0.5080 -0.4905  0.2771
15659TIP3    H268393   6.643   6.714   1.858 -0.2087 -0.5808  0.0200
15660TIP3   OH268394   4.521   1.836  16.786 -0.3804 -0.5096  0.1762
15660TIP3    H168395   4.443   1.782  16.773 -0.7803 -0.1268  0.9979
15660TIP3    H268396   4.593   1.780  16.757 -0.9864 -0.7057 -1.0195
15661TIP3   OH268397   3.271   2.298   5.611 -0.5113 -0.0367  0.1584
15661TIP3    H168398   3.321   2.255   5.680  1.0015 -1.1674 -1.5922
15661TIP3    H268399   3.205   2.233   5.585 -1.7607  0.7747  1.2147
15662TIP3   OH268400   0.780   4.468   3.684 -0.2868 -0.5467 -0.2550
15662TIP3    H168401   0.765   4.562   3.680 -1.2017 -0.7387 -2.0163
15662TIP3    H268402   0.717   4.436   3.748 -0.0183  0.0331  0.2938
15663TIP3   OH268403   3.658   1.171  14.680 -0.5993  0.3253 -0.1421
15663TIP3    H168404   3.631   1.263  14.686 -1.6694  0.1099 -1.4567
15663TIP3    H268405   3.578   1.122  14.697 -0.1149 -0.3657  0.1432
15664TIP3   OH268406   5.395   2.195   0.612 -0.1165 -0.2348 -0.1685
15664TIP3    H168407   5.389   2.263   0.545  1.2119 -1.9057 -2.0287
15664TIP3    H268408   5.487   2.169   0.613 -0.6650 -2.2674  0.2267
15665TIP3   OH268409   6.352   3.928   0.884 -0.2225 -0.2153 -0.3873
15665TIP3    H168410   6.331   3.974   0.803 -0.2300 -1.1047 -0.8901
15665TIP3    H268411   6.322   3.987   0.953  0.3127  0.8065 -1.0160
15666TIP3   OH268412   0.395   2.381  15.230 -0.0435  0.2845 -0.8701
15666TIP3    H168413   0.442   2.464  15.239  1.9110 -0.7016 -1.6543
15666TIP3    H268414   0.455   2.316  15.268 -1.5636 -0.7648 -0.2469
15667TIP3   OH268415   3.442   0.677   3.037 -0.3291  0.1738  0.3021
15667TIP3    H168416   3.385   0.706   3.109  0.2795 -0.5938  1.1026
15667TIP3    H268417   3.525   0.657   3.080 -0.3495 -1.5119 -0.4268
15668TIP3   OH268418   2.359   6.498   3.947 -0.3037  0.0986  0.6019
15668TIP3    H168419   2.434   6.506   4.006  0.4214  0.2022 -0.3272
15668TIP3    H268420   2.319   6.414   3.971 -0.5911  0.5866  1.8901
15669TIP3   OH268421   3.254   2.816   3.017 -0.1449  0.1151  0.4074
15669TIP3    H168422   3.183   2.879   3.004 -0.3930 -0.0532  0.9382
15669TIP3    H268423   3.243   2.785   3.107 -0.2950 -1.0245  0.0059
15670TIP3   OH268424   4.824   1.822  14.723 -0.0749 -0.4325 -0.3888
15670TIP3    H168425   4.800   1.900  14.674 -1.4216 -0.4743  0.1622
15670TIP3    H268426   4.915   1.835  14.748  0.3304  0.0087 -2.0815
15671TIP3   OH268427   3.725   4.621   4.811 -0.0082 -0.2846 -0.6146
15671TIP3    H168428   3.638   4.618   4.772 -0.5340 -1.5845  0.5988
15671TIP3    H268429   3.720   4.695   4.873  0.0987  0.3221 -1.3263
15672TIP3   OH268430   4.350   4.142   2.005  0.1237  0.3767 -0.1937
15672TIP3    H168431   4.354   4.225   2.052  0.7468 -0.4775  1.2840
15672TIP3    H268432   4.335   4.167   1.914  0.4596  2.1107  0.2089
15673TIP3   OH268433   5.722   6.054  11.985 -0.6415 -0.5677  0.2859
15673TIP3    H168434   5.733   6.091  12.072 -1.4665  0.0630  0.1234
15673TIP3    H268435   5.736   6.127  11.925 -0.8221 -0.8342 -0.0881
15674TIP3   OH268436   2.075   1.279  12.733 -0.4450  0.7770 -0.0981
15674TIP3    H168437   2.153   1.310  12.779 -0.6350  2.1408 -0.6697
15674TIP3    H268438   2.025   1.359  12.714 -1.0395  0.0991 -1.4307
15675TIP3   OH268439   6.452   2.982  13.255  0.4201 -0.4513  0.0589
15675TIP3    H168440   6.473   2.945  13.170 -0.1050  0.8554 -0.6513
15675TIP3    H268441   6.359   2.962  13.268  0.2061  0.3722 -0.2018
15676TIP3   OH268442   0.021   0.582   2.388 -0.3367  0.0070 -0.4795
15676TIP3    H168443   0.039   0.674   2.410 -2.7489  0.4362 -0.1179
15676TIP3    H268444   0.068   0.532   2.454 -2.3995  1.1252  1.9008
15677TIP3   OH268445   4.081   5.065  13.192 -0.3273 -0.1941 -0.2139
15677TIP3    H168446   4.173   5.041  13.205  0.1151 -0.0574 -2.8755
15677TIP3    H268447   4.080   5.160  13.198 -0.6731 -0.2995  1.8582
15678TIP3   OH268448   0.137   2.064  15.481  0.0109 -0.0451  0.1247
15678TIP3    H168449   0.178   2.151  15.486  2.1803 -1.0203  0.1582
15678TIP3    H268450   0.133   2.035  15.573  0.4549 -0.4677  0.0175
15679TIP3   OH268451   5.287   4.243   2.383  0.2669  0.0997 -0.5186
15679TIP3    H168452   5.263   4.270   2.294 -1.0711 -1.1523 -0.5430
15679TIP3    H268453   5.322   4.155   2.372  1.5820  0.5493 -0.0001
15680TIP3   OH268454   2.509   5.192  16.680 -0.3265  0.1469 -0.7096
15680TIP3    H168455   2.552   5.117  16.722 -0.2034 -0.1669 -1.3888
15680TIP3    H268456   2.565   5.267  16.701  1.1500 -0.4207 -2.4457
15681TIP3   OH268457   4.989   3.621   1.556 -0.1402 -0.1510  0.0608
15681TIP3    H168458   5.001   3.695   1.614  0.6645 -0.9923  0.9750
15681TIP3    H268459   5.022   3.545   1.605 -1.1094 -1.1450 -0.7779
15682TIP3   OH268460   2.139   0.243   5.560 -0.4201 -0.3995 -0.6317
15682TIP3    H168461   2.165   0.320   5.611  0.6289 -0.9138 -0.3858
15682TIP3    H268462   2.219   0.193   5.548 -1.2138 -1.8242 -0.1786
15683TIP3   OH268463   4.500   6.097   2.319  0.4258  0.2587  0.1348
15683TIP3    H168464   4.570   6.127   2.261  0.8956 -0.2091  0.4427
15683TIP3    H268465   4.422   6.094   2.264  0.6816  0.6567 -0.2504
15684TIP3   OH268466   3.261   5.736  12.227 -0.1158 -0.1773 -0.6370
15684TIP3    H168467   3.330   5.676  12.200  0.6079  0.0544  0.6487
15684TIP3    H268468   3.271   5.812  12.169  0.8403 -0.0690 -0.3365
15685TIP3   OH268469   3.424   4.603   5.667  0.5884  0.6690  0.2206
15685TIP3    H168470   3.356   4.567   5.723 -0.2231 -0.0723 -1.1962
15685TIP3    H268471   3.385   4.684   5.632  1.1444  1.2067  0.8250
15686TIP3   OH268472   6.699   4.640   4.328 -0.1611  0.0410  0.1656
15686TIP3    H168473   6.741   4.650   4.243 -0.2248  2.5092  0.3935
15686TIP3    H268474   6.690   4.545   4.340 -1.3581 -0.3162 -3.1738
15687TIP3   OH268475   0.579   3.512  14.659 -0.4682  0.3798 -0.4377
15687TIP3    H168476   0.671   3.484  14.659  0.2571  2.6237 -1.1547
15687TIP3    H268477   0.544   3.480  14.576 -0.0257  0.4185 -0.6431
15688TIP3   OH268478   1.362   5.372   4.324  0.1133 -0.3420  0.2167
15688TIP3    H168479   1.353   5.455   4.370 -1.6150 -1.0093  1.1432
15688TIP3    H268480   1.318   5.385   4.241  0.4177 -0.1246  0.0913
15689TIP3   OH268481   4.773   2.844  15.318 -0.1250  0.4326 -0.2588
15689TIP3    H168482   4.752   2.848  15.411 -1.4662  0.1483 -0.5304
15689TIP3    H268483   4.736   2.761  15.288 -1.0335  1.2128 -1.3474
15690TIP3   OH268484   2.109   5.792  14.944  0.3732 -0.2205  0.1329
15690TIP3    H168485   2.127   5.701  14.965 -1.0174 -0.3971  0.6121
15690TIP3    H268486   2.121   5.798  14.849 -0.2237 -1.0726  0.0001
15691TIP3   OH268487   5.188   0.765   4.610  0.4870 -0.0755  0.2613
15691TIP3    H168488   5.129   0.837   4.631  1.0990  0.1659  1.1633
15691TIP3    H268489   5.145   0.720   4.538 -0.2747  0.7363  0.1934
15692TIP3   OH268490   5.863   1.266  11.354  0.2429 -0.0045  0.0434
15692TIP3    H168491   5.958   1.263  11.347  0.2582  0.8241 -0.1988
15692TIP3    H268492   5.845   1.341  11.410 -0.3120  0.8261 -1.2093
15693TIP3   OH268493   4.067   2.493  17.191 -0.0173  0.4559  0.4833
15693TIP3    H168494   4.154   2.454  17.202 -1.6262 -3.3545  0.4744
15693TIP3    H268495   4.053   2.493  17.097 -0.6331 -0.3759  0.5714
15694TIP3   OH268496   5.848   1.584  15.227 -0.1110 -0.1378 -0.1362
15694TIP3    H168497   5.795   1.509  15.198 -1.8700  1.2324 -0.5020
15694TIP3    H268498   5.876   1.626  15.146 -0.7972  0.7605  0.0908
15695TIP3   OH268499   5.658   6.738   1.142  0.5208 -0.4124 -0.1966
15695TIP3    H168500   5.681   6.830   1.136  1.8904 -0.7161  0.2441
15695TIP3    H268501   5.579   6.729   1.088  0.1223  1.0913  0.1386
15696TIP3   OH268502   6.528   2.217  12.223 -0.1677 -0.1443  0.7380
15696TIP3    H168503   6.519   2.209  12.128 -0.8207  0.0574  0.7811
15696TIP3    H268504   6.534   2.127  12.254  0.2600 -0.2028  0.4843
15697TIP3   OH268505   1.477   3.172   0.741  0.3285 -0.3365  0.2041
15697TIP3    H168506   1.555   3.223   0.759 -0.1440  0.7269 -0.6540
15697TIP3    H268507   1.498   3.084   0.771  1.8473 -0.0640 -0.0152
15698TIP3   OH268508   2.231   2.793  17.236 -0.3255 -0.7070 -0.4458
15698TIP3    H168509   2.244   2.885  17.257 -0.0617 -0.8179 -0.1156
15698TIP3    H268510   2.282   2.778  17.157  0.7522 -0.8934  0.2665
15699TIP3   OH268511   5.060   6.173  12.341  0.2165  0.2173 -0.9281
15699TIP3    H168512   5.037   6.103  12.403  3.7553  0.4201  0.7527
15699TIP3    H268513   4.997   6.243  12.360 -1.4364 -1.3328 -0.5361
15700TIP3   OH268514   2.966   4.156   2.837  0.3838 -0.5215 -0.0031
15700TIP3    H168515   2.940   4.128   2.749 -0.7971 -1.2290  0.5615
15700TIP3    H268516   2.993   4.075   2.881  0.7532 -0.2035  0.3648
15701TIP3   OH268517   6.111   2.624   2.891  0.4254  0.0674  0.3588
15701TIP3    H168518   6.183   2.655   2.836  0.1455  1.4468  0.7684
15701TIP3    H268519   6.048   2.587   2.829  0.7584  0.3135 -0.1324
15702TIP3   OH268520   4.189   0.224   3.805 -0.3389 -0.2280 -0.3191
15702TIP3    H168521   4.141   0.141   3.814 -0.1401 -0.1820  1.3370
15702TIP3    H268522   4.141   0.285   3.860  2.1100 -0.4085  2.1141
15703TIP3   OH268523   4.318   6.198  13.060 -0.2506 -0.5494 -0.1733
15703TIP3    H168524   4.305   6.164  13.148  0.6054  0.9496  0.5493
15703TIP3    H268525   4.388   6.263  13.069 -0.4745 -0.0336 -1.8704
15704TIP3   OH268526   5.285   4.390  15.911 -0.2150  0.3273 -0.2305
15704TIP3    H168527   5.296   4.375  16.005 -0.0261 -1.8738 -0.5644
15704TIP3    H268528   5.374   4.384  15.876 -0.1738  2.0610 -0.4425
15705TIP3   OH268529   1.008   0.381   2.147  0.3268  0.1366 -0.4041
15705TIP3    H168530   1.014   0.413   2.238  2.0870  0.4134 -0.5897
15705TIP3    H268531   1.007   0.286   2.156 -0.8251  0.1807 -0.0334
15706TIP3   OH268532   4.253   5.899   3.044  0.1494 -0.5597 -0.0947
15706TIP3    H168533   4.179   5.853   3.083  0.9483 -0.5829  1.4012
15706TIP3    H268534   4.326   5.839   3.051  0.6728  0.0611 -0.1828
15707TIP3   OH268535   2.641   6.011  12.056 -0.2877  0.4887  0.2436
15707TIP3    H168536   2.716   6.042  12.005 -0.9131 -0.7106 -1.4384
15707TIP3    H268537   2.586   5.965  11.993 -1.8569  0.3031  1.6993
15708TIP3   OH268538   2.762   1.754   3.382  0.2794  0.2776  0.5992
15708TIP3    H168539   2.815   1.776   3.458 -0.6264  0.5878  1.1435
15708TIP3    H268540   2.672   1.764   3.412 -0.1491 -2.9003  0.4935
15709TIP3   OH268541   0.143   4.577   4.530  0.3919 -0.3627 -0.3256
15709TIP3    H168542   0.056   4.584   4.491 -0.4595  1.0094  1.7282
15709TIP3    H268543   0.196   4.640   4.482  0.1647 -0.9359 -1.3424
15710TIP3   OH268544   5.797   0.135   4.902  0.6799  0.5613  0.2711
15710TIP3    H168545   5.744   0.167   4.975  1.4121  0.4315  0.8555
15710TIP3    H268546   5.735   0.129   4.829 -0.0893  0.5184  0.9243
15711TIP3   OH268547   5.722   0.891  11.866  0.3934 -0.3668 -0.1606
15711TIP3    H168548   5.634   0.929  11.859 -0.5798 -2.2134  1.3222
15711TIP3    H268549   5.749   0.908  11.956  0.7358 -1.4386 -0.0447
15712TIP3   OH268550   6.191   2.676  11.586  0.5537 -0.2731 -0.3905
15712TIP3    H168551   6.171   2.623  11.664 -0.2020 -0.7257 -0.8899
15712TIP3    H268552   6.106   2.701  11.552  0.8942  0.1691 -0.9130
15713TIP3   OH268553   4.612   6.136  13.211 -0.0494  0.1239  0.2129
15713TIP3    H168554   4.670   6.062  13.191  0.9035  1.1360 -0.8330
15713TIP3    H268555   4.646   6.208  13.158 -0.6701  1.4587  1.6065
15714TIP3   OH268556   1.171   0.268  16.793  0.2968  0.9081 -0.0586
15714TIP3    H168557   1.142   0.326  16.723  3.0491  1.4267 -0.8317
15714TIP3    H268558   1.244   0.314  16.834  0.4957 -0.6157  1.3720
15715TIP3   OH268559   6.537   5.241   2.738  0.4214  0.1765  0.0827
15715TIP3    H168560   6.516   5.222   2.647  1.9039 -2.0275  0.1521
15715TIP3    H268561   6.618   5.292   2.734  2.2731 -2.6442  0.2145
15716TIP3   OH268562   2.952   1.314   2.946  0.0414 -0.5574 -0.0518
15716TIP3    H168563   2.934   1.258   3.022 -2.0914  1.3949  0.9584
15716TIP3    H268564   2.981   1.397   2.984 -1.0631  0.4497 -1.3533
15717TIP3   OH268565   6.250   1.560   1.542 -0.1667  0.4386  0.0757
15717TIP3    H168566   6.248   1.617   1.465 -2.4964 -0.0882 -0.2911
15717TIP3    H268567   6.158   1.544   1.562  0.4454 -1.3046  1.5994
15718TIP3   OH268568   1.309   0.880   2.420  0.4142  0.6015 -0.3832
15718TIP3    H168569   1.241   0.833   2.468  2.7869 -1.9233  0.6524
15718TIP3    H268570   1.330   0.822   2.346  1.3042  1.4106 -0.7713
15719TIP3   OH268571   5.174   6.300   3.911  0.2191  0.0663  0.1485
15719TIP3    H168572   5.254   6.351   3.920 -0.6155  1.4436 -0.1018
15719TIP3    H268573   5.104   6.364   3.922 -0.8396 -0.5565 -2.6197
15720TIP3   OH268574   6.267   0.330   3.877 -0.3278  0.4144  0.7246
15720TIP3    H168575   6.259   0.367   3.965  1.5547  1.5739  0.4259
15720TIP3    H268576   6.347   0.277   3.880  0.4743  1.5066 -0.6398
15721TIP3   OH268577   1.857   3.021  12.998  0.2846 -0.0335  0.3849
15721TIP3    H168578   1.849   3.047  13.090  0.5801 -1.0025  0.6926
15721TIP3    H268579   1.826   2.930  12.996  1.1280 -0.3122 -0.2992
15722TIP3   OH268580   4.768   3.098   4.605 -0.2736  1.1480 -0.6355
15722TIP3    H168581   4.819   3.175   4.579 -1.0301  1.5435 -0.9732
15722TIP3    H268582   4.830   3.042   4.652 -0.2860  3.0512  1.7286
15723TIP3   OH268583   5.795   4.801   4.441  0.1233 -1.1680 -0.0592
15723TIP3    H168584   5.836   4.753   4.370 -0.7793 -3.7258  1.0713
15723TIP3    H268585   5.816   4.750   4.520  0.5293  1.2111  1.4131
15724TIP3   OH268586   5.677   0.212   4.225  0.3612  0.4666 -0.3235
15724TIP3    H168587   5.588   0.247   4.218  1.0993  2.3409 -0.7203
15724TIP3    H268588   5.702   0.228   4.316  0.7911  1.2188 -0.5687
15725TIP3   OH268589   1.750   0.864   5.712  0.5400  0.3494 -0.1005
15725TIP3    H168590   1.770   0.770   5.704 -0.4474 -0.2890  3.9416
15725TIP3    H268591   1.827   0.908   5.675  1.3858 -2.0536 -1.2960
15726TIP3   OH268592   2.579   4.750  16.979 -0.0806  0.0460  0.2111
15726TIP3    H168593   2.622   4.815  17.034 -0.4768  0.5017 -0.0112
15726TIP3    H268594   2.651   4.700  16.940  0.2370  0.5627  0.1307
15727TIP3   OH268595   3.522   0.432   0.159  0.6147  0.2085 -0.0359
15727TIP3    H168596   3.561   0.433   0.071  0.9445  0.7161  0.1158
15727TIP3    H268597   3.548   0.347   0.196 -0.5108 -0.5096 -0.8683
15728TIP3   OH268598   5.851   2.729   0.855  0.0415 -0.1559  0.4837
15728TIP3    H168599   5.798   2.782   0.796  0.1801  0.6968  1.1107
15728TIP3    H268600   5.918   2.689   0.800  0.3795  0.9001  0.1191
15729TIP3   OH268601   4.045   2.714   2.705 -0.1777  0.2533  0.1269
15729TIP3    H168602   3.999   2.758   2.633  1.0862  0.5018 -0.5467
15729TIP3    H268603   4.037   2.773   2.779  1.5242  1.6450 -0.7769
15730TIP3   OH268604   3.085   2.199  13.400  0.6673 -0.3826  0.0940
15730TIP3    H168605   3.075   2.177  13.308  1.8477 -0.2446 -0.0828
15730TIP3    H268606   3.166   2.250  13.404 -0.2870  1.0881  0.9663
15731TIP3   OH268607   2.615   3.657  11.754  0.5930 -0.3170  0.0944
15731TIP3    H168608   2.554   3.597  11.797  1.0179  0.3550  1.6615
15731TIP3    H268609   2.679   3.599  11.712  0.2423 -0.9867  0.4683
15732TIP3   OH268610   2.157   1.457  11.401  0.0523 -0.2138  0.1973
15732TIP3    H168611   2.251   1.443  11.417  0.1164 -0.8268 -0.6950
15732TIP3    H268612   2.114   1.395  11.460  0.2867 -2.1777 -1.6315
15733TIP3   OH268613   1.915   4.663   4.781  0.1621  0.2587  0.1145
15733TIP3    H168614   1.875   4.627   4.860 -0.2917  2.2778  0.8467
15733TIP3    H268615   2.009   4.662   4.799  0.1614 -0.5757  0.1017
15734TIP3   OH268616   2.230   5.127  14.323 -0.1892 -0.0489  0.0123
15734TIP3    H168617   2.295   5.061  14.302  0.1369  0.2843 -0.0336
15734TIP3    H268618   2.206   5.165  14.238 -1.5113 -1.1598 -0.1292
15735TIP3   OH268619   5.585   0.459   0.759 -0.4464  0.0971  0.6130
15735TIP3    H168620   5.562   0.368   0.745 -1.3054  0.2978  0.7029
15735TIP3    H268621   5.511   0.509   0.724  0.0538  0.7568  0.4885
15736TIP3   OH268622   4.929   3.830  12.619  0.3610  0.3947  0.0177
15736TIP3    H168623   4.886   3.784  12.691  0.2015  0.5094 -0.0022
15736TIP3    H268624   4.879   3.804  12.541  1.4469 -0.8986 -0.2609
15737TIP3   OH268625   6.533   5.779   4.552  0.0636  0.5465  0.0552
15737TIP3    H168626   6.496   5.737   4.474 -1.3536  0.9827  0.4729
15737TIP3    H268627   6.506   5.723   4.625 -1.0126  1.6139  0.5088
15738TIP3   OH268628   4.694   2.775   1.875  0.0727 -0.1023 -0.3228
15738TIP3    H168629   4.642   2.771   1.795  0.6133 -2.7363 -0.6046
15738TIP3    H268630   4.781   2.746   1.849  0.8045  1.0308  0.8207
15739TIP3   OH268631   0.456   4.935   3.008 -0.0888 -0.3180  0.1776
15739TIP3    H168632   0.435   4.842   3.009  0.3539 -0.4230 -0.3101
15739TIP3    H268633   0.478   4.955   2.917  1.9128 -0.2182  0.6599
15740TIP3   OH268634   1.943   0.030   4.774  0.1555  0.1471  0.1712
15740TIP3    H168635   2.017   0.033   4.713 -0.2802  2.2443 -0.2795
15740TIP3    H268636   1.932  -0.063   4.794  0.6751 -0.5154 -2.4781
15741TIP3   OH268637   0.655   0.876  16.337  0.3694  0.3851  0.5599
15741TIP3    H168638   0.710   0.826  16.397 -1.1776 -2.4069 -0.2247
15741TIP3    H268639   0.668   0.833  16.252 -0.7924  1.5204 -0.2091
15742TIP3   OH268640   0.197   0.460  14.983  0.2294 -0.3832 -0.4704
15742TIP3    H168641   0.228   0.539  14.939  1.9363 -0.8172 -0.0984
15742TIP3    H268642   0.225   0.388  14.925 -0.2728 -0.7731 -0.2282
15743TIP3   OH268643   0.302   3.792  12.321  0.3730  0.0883 -0.2177
15743TIP3    H168644   0.334   3.796  12.411 -1.9131 -0.2151  0.6479
15743TIP3    H268645   0.372   3.831  12.269  1.3357  1.1312  1.7894
15744TIP3   OH268646   0.479   0.986   3.254 -0.1486  0.1671 -0.9238
15744TIP3    H168647   0.522   1.057   3.302  0.0086 -1.3373  1.2099
15744TIP3    H268648   0.386   1.003   3.265 -0.1405 -1.3638  1.7910
15745TIP3   OH268649   0.605   4.669  12.732  0.0478 -0.4706 -0.4264
15745TIP3    H168650   0.689   4.627  12.749 -0.3557 -1.7346 -1.4698
15745TIP3    H268651   0.542   4.618  12.783 -0.1671  0.1286 -0.0897
15746TIP3   OH268652   0.613   6.675  16.380  0.5036 -0.1658  0.0795
15746TIP3    H168653   0.705   6.651  16.390  0.8542  1.2622  0.4799
15746TIP3    H268654   0.585   6.631  16.300  2.0323  0.7678 -1.0055
15747TIP3   OH268655   5.615   3.232  12.029  0.2573 -1.0069  0.0355
15747TIP3    H168656   5.553   3.197  11.965  0.1994 -3.2271  1.2754
15747TIP3    H268657   5.589   3.324  12.039  0.2235 -0.6395 -3.0473
15748TIP3   OH268658   4.455   6.430   6.372  0.0645 -0.0461 -0.1480
15748TIP3    H168659   4.448   6.514   6.417 -4.2177 -0.0981 -0.5382
15748TIP3    H268660   4.498   6.452   6.289 -1.1769  1.8215 -0.3300
15749TIP3   OH268661   3.067   3.398  13.782 -0.5597  0.4616 -0.0611
15749TIP3    H168662   3.117   3.395  13.701 -0.1761  0.1778  0.1848
15749TIP3    H268663   3.096   3.321  13.832  0.2471  1.4062  0.9555
15750TIP3   OH268664   4.644   2.831  13.275  0.0080  0.6318  0.3790
15750TIP3    H168665   4.580   2.820  13.345 -1.3226  2.0844 -0.5549
15750TIP3    H268666   4.591   2.834  13.195  1.3820  0.3376 -0.5567
15751TIP3   OH268667   6.304   6.693   5.013 -0.3256  0.0801  0.3742
15751TIP3    H168668   6.396   6.675   4.991 -0.4309 -0.7176  0.5752
15751TIP3    H268669   6.256   6.618   4.978 -0.8610  0.3118  0.6031
15752TIP3   OH268670   3.685   0.936  11.091 -0.4814  0.0517 -0.1152
15752TIP3    H168671   3.703   1.002  11.024  0.0552  0.3107  0.2775
15752TIP3    H268672   3.744   0.959  11.163 -2.2653  0.8307  1.1521
15753TIP3   OH268673   0.918   4.602  11.783  0.2875  0.0298  0.5568
15753TIP3    H168674   0.903   4.695  11.771  0.1197 -0.1109 -0.3483
15753TIP3    H268675   1.010   4.595  11.805  0.0758  0.4947  1.6027
15754TIP3   OH268676   0.318   3.206   2.793 -0.8970 -0.3224 -0.0489
15754TIP3    H168677   0.395   3.187   2.739 -0.8651  2.5874 -1.1135
15754TIP3    H268678   0.342   3.175   2.880  1.0283 -0.4828 -0.6104
15755TIP3   OH268679   6.625   2.134   0.212  0.2129  0.1097 -0.8323
15755TIP3    H168680   6.623   2.039   0.226 -0.3528  0.3406  0.7833
15755TIP3    H268681   6.708   2.162   0.249  0.2124  0.2930 -0.9693
15756TIP3   OH268682   5.691   5.353  15.488  0.1030 -0.1302 -0.1033
15756TIP3    H168683   5.661   5.327  15.576 -0.1233 -0.3285 -0.2370
15756TIP3    H268684   5.785   5.335  15.488 -0.4348 -3.0945 -0.9541
15757TIP3   OH268685   1.426   4.931   1.708 -0.0691 -0.4933 -0.4000
15757TIP3    H168686   1.424   5.023   1.682  1.3698 -0.5347 -0.6976
15757TIP3    H268687   1.368   4.926   1.784 -0.1602  0.6558 -0.3872
15758TIP3   OH268688   1.483   5.688   6.560  0.5284  0.5027  0.6318
15758TIP3    H168689   1.424   5.737   6.616  0.8891  1.6342  0.0454
15758TIP3    H268690   1.426   5.643   6.498  0.2166  0.5377  0.8954
15759TIP3   OH268691   1.116   1.933  10.736 -0.4388  0.2638 -0.8291
15759TIP3    H168692   1.083   2.018  10.765 -2.1110 -1.0537  1.2539
15759TIP3    H268693   1.042   1.893  10.690 -1.2833 -1.9968  2.3660
15760TIP3   OH268694   3.121   5.759   4.470  1.0789 -0.0364 -0.0241
15760TIP3    H168695   3.115   5.689   4.535  1.0868  1.6179  1.7682
15760TIP3    H268696   3.156   5.834   4.517  1.4905  1.0808 -2.0303
15761TIP3   OH268697   1.431   1.866   1.909 -0.4044  0.4437  0.0922
15761TIP3    H168698   1.370   1.800   1.940  0.2246 -1.3225 -2.2577
15761TIP3    H268699   1.509   1.817   1.882  0.1956  2.1463 -1.4103
15762TIP3   OH268700   5.710   4.671   5.511 -0.0182  0.4726  0.1532
15762TIP3    H168701   5.702   4.719   5.428 -2.0150 -0.6198 -0.2920
15762TIP3    H268702   5.677   4.732   5.577 -1.5288  0.1148 -0.2719
15763TIP3   OH268703   6.557   3.666   3.979  0.2679  0.3284  0.1367
15763TIP3    H168704   6.641   3.652   3.934 -1.4579 -0.2813 -3.0280
15763TIP3    H268705   6.498   3.602   3.939 -2.2547  2.2201  0.7665
15764TIP3   OH268706   1.498   6.629  14.731 -0.0413 -0.0395  0.2420
15764TIP3    H168707   1.570   6.689  14.713  0.2323 -1.0019 -2.0362
15764TIP3    H268708   1.536   6.560  14.785  0.4766  0.0315 -0.0342
15765TIP3   OH268709   0.117   2.276  12.971  0.1719 -0.3239  0.1570
15765TIP3    H168710   0.026   2.249  12.976  0.2858 -0.8663 -0.7085
15765TIP3    H268711   0.126   2.342  13.040 -1.3200  1.0238 -0.8734
15766TIP3   OH268712   1.154   6.665   2.899  0.3058  0.1420 -0.3053
15766TIP3    H168713   1.211   6.727   2.854  1.1197  0.8721  1.6643
15766TIP3    H268714   1.164   6.584   2.850  0.4654  1.1271 -1.9604
15767TIP3   OH268715   4.238   5.906   5.148  0.3023  0.3211 -0.0873
15767TIP3    H168716   4.259   5.995   5.175 -1.0834  1.2439 -1.8931
15767TIP3    H268717   4.149   5.891   5.179 -0.3778  0.4869 -1.8577
15768TIP3   OH268718   4.053   0.912  11.053 -0.0932  0.4129 -0.8793
15768TIP3    H168719   4.015   0.952  11.131  0.3200 -0.9173  0.0233
15768TIP3    H268720   4.039   0.818  11.065  1.3223  0.0855 -1.6754
15769TIP3   OH268721   2.000   1.080  12.554 -0.3641  0.1241  0.1374
15769TIP3    H168722   2.056   1.117  12.622 -2.6713  0.7221  1.7560
15769TIP3    H268723   1.988   1.152  12.491 -1.0545  0.6793  0.8955
15770TIP3   OH268724   6.245   0.686   0.208 -0.5789 -0.1727  1.2105
15770TIP3    H168725   6.299   0.662   0.132  0.1984  1.3031  1.2773
15770TIP3    H268726   6.200   0.766   0.181  0.7288  1.1181  2.7776
15771TIP3   OH268727   2.683   2.696   5.073 -0.1705  0.1580 -0.4119
15771TIP3    H168728   2.607   2.734   5.117 -0.3106 -0.8979  0.2690
15771TIP3    H268729   2.749   2.766   5.073 -0.9869  0.9362 -0.6293
15772TIP3   OH268730   4.346   3.776  15.055 -0.0088  0.3471 -0.4358
15772TIP3    H168731   4.280   3.790  15.123 -0.9795 -0.8198 -1.1142
15772TIP3    H268732   4.410   3.845  15.070 -1.2207  1.3239  0.4263
15773TIP3   OH268733   4.404   6.160   1.562 -0.2938 -0.3272 -0.6609
15773TIP3    H168734   4.438   6.226   1.501 -0.0604  1.5716  1.4499
15773TIP3    H268735   4.472   6.153   1.629 -0.8472 -1.8970 -0.2583
15774TIP3   OH268736   6.265   0.081   3.617  0.6427 -0.6908  0.1445
15774TIP3    H168737   6.235   0.170   3.601 -1.5966 -1.3838  0.3276
15774TIP3    H268738   6.289   0.048   3.530  0.6152 -0.2217 -0.0437
15775TIP3   OH268739   0.941   5.320  11.264 -0.0795 -0.4626  0.3227
15775TIP3    H168740   1.021   5.272  11.242  0.6137  0.9608 -0.3214
15775TIP3    H268741   0.872   5.254  11.262  1.0974 -1.7364  1.0325
15776TIP3   OH268742   6.606   5.578  14.600 -0.1658  0.3671  0.1320
15776TIP3    H168743   6.610   5.619  14.687 -1.1477 -0.0011  0.3575
15776TIP3    H268744   6.695   5.547  14.584  0.4213  1.8978  0.2867
15777TIP3   OH268745   3.932   1.424   4.553 -0.1932 -0.2566 -0.6065
15777TIP3    H168746   3.912   1.429   4.647  1.4624 -0.7191 -0.2024
15777TIP3    H268747   3.855   1.383   4.514 -1.5639  1.3701  0.3098
15778TIP3   OH268748   5.946   0.839   1.833  0.4194 -0.0849 -0.3563
15778TIP3    H168749   5.870   0.831   1.775 -0.2302 -0.3760  0.5173
15778TIP3    H268750   6.017   0.798   1.785 -0.3125 -1.0947 -0.5905
15779TIP3   OH268751   3.829   0.139   5.797 -0.4926 -0.0900  0.1175
15779TIP3    H168752   3.870   0.075   5.855 -0.0849 -0.1039 -0.1775
15779TIP3    H268753   3.893   0.151   5.726 -0.1631  1.3180  0.6284
15780TIP3   OH268754   3.295   5.170   1.928 -0.0749 -0.1237  0.2727
15780TIP3    H168755   3.306   5.086   1.884 -1.7001 -0.4233  0.4210
15780TIP3    H268756   3.209   5.165   1.969 -0.1876  1.5981  0.3055
15781TIP3   OH268757   6.143   1.787  11.572  0.3647  0.2156  0.2536
15781TIP3    H168758   6.166   1.838  11.494  0.3512 -0.4022 -0.1583
15781TIP3    H268759   6.222   1.790  11.626  0.9837 -0.8397 -0.5864
15782TIP3   OH268760   4.728   1.303  14.804  0.0805 -0.5940  0.1861
15782TIP3    H168761   4.641   1.335  14.781  0.4975  0.7705  0.4868
15782TIP3    H268762   4.757   1.360  14.875  1.1867 -1.1044  0.1591
15783TIP3   OH268763   2.050   4.589   2.242  0.4086 -0.0040 -0.0948
15783TIP3    H168764   1.964   4.619   2.210  0.2031  0.5417  0.9433
15783TIP3    H268765   2.099   4.670   2.257  0.9003 -0.2957 -0.1249
15784TIP3   OH268766   2.626   6.349  15.732 -0.0085 -0.1318  0.0818
15784TIP3    H168767   2.709   6.388  15.760 -0.8027  1.7326 -0.1062
15784TIP3    H268768   2.582   6.324  15.813  1.2202 -2.1843  0.1398
15785TIP3   OH268769   0.793   6.414   0.431  0.5501 -0.5938 -0.1508
15785TIP3    H168770   0.739   6.403   0.510  0.8505 -1.3338 -0.0477
15785TIP3    H268771   0.861   6.476   0.458  0.6402 -0.8267  0.1759
15786TIP3   OH268772   0.982   0.911   3.508 -0.3476  0.6870 -0.1945
15786TIP3    H168773   0.888   0.897   3.516 -0.5369  1.6193 -0.7635
15786TIP3    H268774   1.009   0.854   3.436 -0.4882  0.5187 -0.1157
15787TIP3   OH268775   3.626   3.251   1.778  0.1608 -0.3249 -0.0865
15787TIP3    H168776   3.681   3.303   1.719 -0.8090 -2.5400 -3.0899
15787TIP3    H268777   3.555   3.311   1.802  1.3537  1.0776  0.0262
15788TIP3   OH268778   2.859   0.751  16.858  0.2820 -0.7679 -0.0756
15788TIP3    H168779   2.789   0.803  16.898  0.9274  0.7620 -0.9030
15788TIP3    H268780   2.823   0.663  16.851 -0.5821 -0.6059  1.9891
15789TIP3   OH268781   6.067   6.730  15.907 -0.6280 -0.3288  0.2826
15789TIP3    H168782   6.060   6.763  15.818 -0.5080  0.0405  0.4113
15789TIP3    H268783   6.133   6.786  15.949  1.1914 -2.0882 -0.1480
15790TIP3   OH268784   4.926   4.538   3.273 -0.7168 -0.5525  0.0569
15790TIP3    H168785   4.968   4.458   3.241 -0.3562  0.2229 -1.4879
15790TIP3    H268786   4.870   4.566   3.200  0.0330  1.1979  0.1218
15791TIP3   OH268787   3.389   3.667   2.492  0.1006  0.6240  0.1493
15791TIP3    H168788   3.360   3.639   2.405 -1.1385 -2.7450  1.5853
15791TIP3    H268789   3.470   3.618   2.507 -0.6738 -0.2134  1.6451
15792TIP3   OH268790   2.687   2.857  11.271 -0.5211  0.0580  0.4734
15792TIP3    H168791   2.594   2.835  11.279 -0.7354  1.3883  1.8516
15792TIP3    H268792   2.699   2.933  11.327  1.4130 -0.1066  0.3303
15793TIP3   OH268793   4.412   0.400  10.327 -0.1358  0.2878 -0.0295
15793TIP3    H168794   4.338   0.401  10.387 -0.5575  0.1694 -0.5499
15793TIP3    H268795   4.375   0.376  10.242  0.7679 -1.5664  0.0709
15794TIP3   OH268796   5.194   5.342   1.454  0.2402  0.4071 -0.1248
15794TIP3    H168797   5.169   5.251   1.441  1.0555  0.2384 -0.5445
15794TIP3    H268798   5.197   5.379   1.366 -2.2153  1.4328  0.1849
15795TIP3   OH268799   6.576   4.957   2.945  0.3473 -0.2906 -0.4022
15795TIP3    H168800   6.504   5.020   2.939 -0.5921 -1.3187 -0.2134
15795TIP3    H268801   6.641   4.999   3.000 -0.1736  0.6013 -0.4667
15796TIP3   OH268802   5.625   1.795   5.712 -0.3250 -0.0972 -0.4534
15796TIP3    H168803   5.616   1.789   5.807  0.3492  2.2592 -0.1888
15796TIP3    H268804   5.546   1.755   5.677 -0.9113 -0.3478  1.1216
15797TIP3   OH268805   4.062   0.320  13.278 -0.0186  0.0643 -0.3110
15797TIP3    H168806   4.150   0.290  13.253 -0.8723 -0.7528 -2.4562
15797TIP3    H268807   4.072   0.414  13.292  1.2370 -0.0407 -0.4164
15798TIP3   OH268808   0.721   3.051  13.225 -0.0716  0.5092 -0.3927
15798TIP3    H168809   0.814   3.047  13.201 -0.2490 -0.2122 -0.9624
15798TIP3    H268810   0.719   3.110  13.300  1.1544 -1.3948  1.1721
15799TIP3   OH268811   4.416   1.246  11.597 -0.6977  0.3029  0.2336
15799TIP3    H168812   4.381   1.160  11.620 -1.0532 -0.2005 -2.0811
15799TIP3    H268813   4.510   1.238  11.610 -0.8443 -0.0899  1.0681
15800TIP3   OH268814   0.418   1.900  11.412 -0.7721 -0.0729 -0.0133
15800TIP3    H168815   0.348   1.866  11.468  1.4026 -0.6297  2.4047
15800TIP3    H268816   0.492   1.915  11.470  1.8794 -1.5226 -2.8553
15801TIP3   OH268817   3.024   5.875   2.723 -0.9877  0.0612  1.0120
15801TIP3    H168818   2.933   5.846   2.730 -1.6728  2.4465  2.6370
15801TIP3    H268819   3.043   5.874   2.629 -2.1975 -1.8956  0.7777
15802TIP3   OH268820   0.821   0.056   3.998 -0.7637 -0.0637 -0.3991
15802TIP3    H168821   0.901   0.109   4.004 -0.8968  0.1474 -0.4722
15802TIP3    H268822   0.750   0.118   4.011 -0.8884 -0.4502  0.8388
15803TIP3   OH268823   1.973   6.290   2.895  0.4425  0.2786 -0.2256
15803TIP3    H168824   1.982   6.380   2.927  1.0468  1.0437 -2.4962
15803TIP3    H268825   1.968   6.298   2.800  1.7657 -2.1812 -0.5438
15804TIP3   OH268826   0.781   0.602   2.740 -0.0400  0.0559 -0.1889
15804TIP3    H168827   0.687   0.601   2.757  0.0243  2.4474  0.4816
15804TIP3    H268828   0.818   0.658   2.808  1.9952 -1.4885  0.0363
15805TIP3   OH268829   2.540   6.745  11.441 -0.2923 -0.2176  0.0649
15805TIP3    H168830   2.526   6.689  11.518  1.4407  0.0709  0.6001
15805TIP3    H268831   2.592   6.819  11.474  2.0419 -0.9991 -1.7547
15806TIP3   OH268832   6.433   1.755  11.635  0.1142  0.5246  0.0821
15806TIP3    H168833   6.453   1.695  11.707 -0.5861 -2.7652 -2.3901
15806TIP3    H268834   6.507   1.744  11.574 -0.5872  1.3408 -0.9253
15807TIP3   OH268835   6.231   4.991  15.278  0.1969  0.0986  0.5040
15807TIP3    H168836   6.173   5.017  15.349  0.6618  3.6662 -0.3347
15807TIP3    H268837   6.299   4.938  15.320 -0.9270  0.0308  2.2715
15808TIP3   OH268838   6.001   4.019  10.597 -0.4664 -0.7016 -0.2530
15808TIP3    H168839   6.038   3.939  10.560  1.5667 -0.3942  0.9812
15808TIP3    H268840   5.949   4.057  10.526  0.3174 -1.9981 -1.5517
15809TIP3   OH268841   2.863   1.220   3.191 -0.1603 -0.0032 -0.1598
15809TIP3    H168842   2.794   1.177   3.141 -0.8757  1.9786 -0.9345
15809TIP3    H268843   2.818   1.290   3.239  1.1596  0.7961 -0.0467
15810TIP3   OH268844   0.029   1.874   2.715  0.2597  0.4664  0.0630
15810TIP3    H168845   0.089   1.899   2.785  1.6146 -0.9382 -0.5597
15810TIP3    H268846  -0.047   1.838   2.760  0.4147  1.1078  0.8413
15811TIP3   OH268847   5.515   3.191  16.899 -0.0777  0.2584 -0.1605
15811TIP3    H168848   5.551   3.237  16.823 -0.0624 -0.8138 -0.7999
15811TIP3    H268849   5.579   3.123  16.919 -0.7600 -0.3506 -0.0478
15812TIP3   OH268850   1.761   1.410   1.404 -0.0150 -0.1628  0.3473
15812TIP3    H168851   1.721   1.340   1.352  1.0551 -0.4413 -0.1199
15812TIP3    H268852   1.854   1.389   1.405  0.4143  1.5969 -0.3309
15813TIP3   OH268853   1.292   5.233  11.534  0.6561 -0.3294  0.5207
15813TIP3    H168854   1.298   5.289  11.456 -0.3446 -1.0758 -0.1099
15813TIP3    H268855   1.383   5.212  11.556  1.0047  1.0068  0.3743
15814TIP3   OH268856   0.971   5.950   4.115  0.6813 -0.1055 -0.0300
15814TIP3    H168857   0.963   6.012   4.187 -2.1567  1.2085 -1.3655
15814TIP3    H268858   1.030   5.882   4.147  1.0976  1.4939  2.7381
15815TIP3   OH268859   4.234   0.664  14.469  0.0024 -0.4390 -0.2522
15815TIP3    H168860   4.237   0.747  14.422  0.6395  0.6180  1.6082
15815TIP3    H268861   4.273   0.601  14.409  0.3680  0.7776 -1.3219
15816TIP3   OH268862   3.889   5.025  12.203 -0.5178  0.4639 -0.4692
15816TIP3    H168863   3.885   5.112  12.242 -1.3619  0.6082 -0.8555
15816TIP3    H268864   3.858   4.966  12.272  1.3172  0.3080  0.2404
15817TIP3   OH268865   4.348   0.138  12.434 -0.4442  0.3338  0.0016
15817TIP3    H168866   4.284   0.186  12.381  0.5512  3.0208  1.1104
15817TIP3    H268867   4.432   0.178  12.410  0.4113 -0.8555  0.9948
15818TIP3   OH268868   0.233   0.727  15.730 -0.6627  0.2172  0.1764
15818TIP3    H168869   0.239   0.814  15.690  2.2241  0.4344  0.9456
15818TIP3    H268870   0.184   0.675  15.666  1.0663  1.3870 -2.2239
15819TIP3   OH268871   6.647   2.407  13.527 -0.6920  0.8706 -0.1166
15819TIP3    H168872   6.695   2.411  13.610  1.7469 -1.9774 -1.2663
15819TIP3    H268873   6.696   2.465  13.469  0.3491 -0.6301 -0.7798
15820TIP3   OH268874   1.210   3.649  14.050  0.0309  0.1859 -0.3331
15820TIP3    H168875   1.280   3.691  14.101  0.3465  0.2059 -0.7843
15820TIP3    H268876   1.173   3.584  14.110  1.4140 -0.8499 -0.5982
15821TIP3   OH268877   2.127   6.198   5.314 -0.0696 -0.3952 -0.5169
15821TIP3    H168878   2.099   6.116   5.354  0.4155 -0.4452 -0.2761
15821TIP3    H268879   2.208   6.176   5.268  1.3815  0.4530  1.5528
15822TIP3   OH268880   1.517   5.781   2.906 -0.0387 -0.4747  0.4093
15822TIP3    H168881   1.561   5.702   2.936 -0.2934 -0.3974  0.9904
15822TIP3    H268882   1.544   5.849   2.968  2.1351  0.4660 -1.4780
15823TIP3   OH268883   5.196   6.063  14.427  0.1882  0.5352 -0.3714
15823TIP3    H168884   5.194   5.971  14.401  0.5928 -0.0088  1.4068
15823TIP3    H268885   5.106   6.094  14.416  0.2201  0.1577 -1.7470
15824TIP3   OH268886   1.746   4.941   0.516  0.2019 -0.3850 -0.0728
15824TIP3    H168887   1.717   4.956   0.426  0.1899 -1.1228 -0.1898
15824TIP3    H268888   1.841   4.940   0.511  0.2258  0.5666  0.0823
15825TIP3   OH268889   2.403   0.947   3.048 -0.0418 -0.6415  0.2674
15825TIP3    H168890   2.320   0.945   3.097  0.0902 -0.2068  0.5112
15825TIP3    H268891   2.412   1.038   3.019  0.3761 -0.6751  0.2862
15826TIP3   OH268892   6.536   3.741  17.136 -0.2447 -0.1773 -0.1566
15826TIP3    H168893   6.521   3.809  17.070  0.7701  0.1463 -0.0559
15826TIP3    H268894   6.480   3.767  17.209  0.9628  1.1605  0.3106
15827TIP3   OH268895   2.849   6.241   5.735 -0.1947  0.0217  0.1598
15827TIP3    H168896   2.762   6.216   5.767  0.3119  0.0384  1.5533
15827TIP3    H268897   2.910   6.188   5.786  0.8535  3.2209  2.3622
15828TIP3   OH268898   6.391   2.603   0.257 -0.0616 -0.2959 -0.1353
15828TIP3    H168899   6.422   2.685   0.218 -0.0338  0.0377  0.5650
15828TIP3    H268900   6.471   2.560   0.288 -0.2153  0.1946  0.9687
15829TIP3   OH268901   3.820   6.393   0.145 -0.5383 -0.0589 -0.0601
15829TIP3    H168902   3.840   6.408   0.053 -0.4315  1.3389  0.1839
15829TIP3    H268903   3.736   6.346   0.144 -0.7432  0.3196 -0.8597
15830TIP3   OH268904   5.306   1.251  11.942  0.3754 -0.1851  0.3404
15830TIP3    H168905   5.355   1.332  11.948 -1.8381  1.1048  1.8125
15830TIP3    H268906   5.286   1.228  12.033 -1.2101 -0.9772 -0.1847
15831TIP3   OH268907   3.418   6.740   5.829 -0.2319  0.3020 -0.7720
15831TIP3    H168908   3.358   6.744   5.904  2.7631  0.5097  1.7417
15831TIP3    H268909   3.457   6.653   5.834  0.7990  0.7163 -1.4349
15832TIP3   OH268910   3.613   6.019  14.951 -0.1657  0.6712  0.3878
15832TIP3    H168911   3.588   6.067  14.873  0.1920 -0.0425 -0.1746
15832TIP3    H268912   3.587   6.075  15.024  1.7023  2.4272 -0.2677
15833TIP3   OH268913   1.831   1.738   0.964  0.4657  0.5382 -0.6205
15833TIP3    H168914   1.805   1.774   0.879  0.0183  0.1119 -0.6660
15833TIP3    H268915   1.841   1.815   1.020  1.2465  0.8557 -1.1849
15834TIP3   OH268916   2.793   6.339  13.239  0.1428  0.9416  0.7366
15834TIP3    H168917   2.770   6.329  13.331 -0.2017  1.2895  0.6928
15834TIP3    H268918   2.709   6.335  13.193  0.6106 -2.9216  0.0863
15835TIP3   OH268919   6.030   1.721  12.336  0.2902  0.0180 -0.1610
15835TIP3    H168920   6.043   1.684  12.424 -0.2232 -1.2177 -0.5943
15835TIP3    H268921   5.970   1.794  12.350  1.8434  1.1492  0.8004
15836TIP3   OH268922   4.827   1.473   3.442  0.4119 -0.4414 -0.5847
15836TIP3    H168923   4.855   1.421   3.367  0.7118 -0.7729 -0.2484
15836TIP3    H268924   4.904   1.476   3.499  0.9338  1.7567 -1.3417
15837TIP3   OH268925   6.363   3.318   4.844 -0.7212  0.4612  0.0598
15837TIP3    H168926   6.372   3.410   4.869 -0.1532  0.9115 -1.7565
15837TIP3    H268927   6.311   3.279   4.915 -1.3375  2.2727  0.6340
15838TIP3   OH268928   3.915   2.012   4.551 -0.0742  0.0961  0.0014
15838TIP3    H168929   4.006   2.001   4.580  0.4400  0.8657 -1.2588
15838TIP3    H268930   3.900   2.106   4.555 -0.4208  0.0905 -0.9044
15839TIP3   OH268931   3.610   5.538   2.183 -0.0982  0.3751  0.2627
15839TIP3    H168932   3.563   5.463   2.146 -0.2069  0.6194 -0.1001
15839TIP3    H268933   3.681   5.555   2.121 -1.2536  1.8062 -0.7099
15840TIP3   OH268934   4.198   6.112   2.252 -0.2691  0.2911 -0.2936
15840TIP3    H168935   4.142   6.105   2.330 -0.2197  0.8635 -0.2039
15840TIP3    H268936   4.168   6.191   2.208  0.5802  0.6918 -0.1558
15841TIP3   OH268937   0.181   2.200   0.652  0.0740  0.0167  0.2765
15841TIP3    H168938   0.267   2.212   0.693  1.3914  0.4886 -2.5430
15841TIP3    H268939   0.134   2.282   0.672  1.3692  1.0228 -0.7281
15842TIP3   OH268940   3.688   5.039  11.894  0.3215  0.0957  0.3376
15842TIP3    H168941   3.702   4.955  11.850 -0.0262  0.1208  0.1773
15842TIP3    H268942   3.610   5.024  11.949 -0.8114  0.8439 -1.0497
15843TIP3   OH268943   4.949   3.421   3.914  0.0562 -0.3942  0.1525
15843TIP3    H168944   4.932   3.349   3.975 -0.3749  0.9783  1.6879
15843TIP3    H268945   4.863   3.458   3.895  0.4211  0.7409  0.6668
15844TIP3   OH268946   5.956   4.753   0.607 -0.0747 -0.3620  0.2311
15844TIP3    H168947   5.939   4.757   0.513  4.1617  1.4362 -0.5372
15844TIP3    H268948   5.884   4.802   0.647 -1.3662 -0.2966 -2.1354
15845TIP3   OH268949   3.034   6.445  11.733 -0.3118 -0.0225 -0.3673
15845TIP3    H168950   2.975   6.444  11.808 -0.6654 -1.1732 -0.6474
15845TIP3    H268951   2.976   6.447  11.657  0.0500  2.0506 -0.6212
15846TIP3   OH268952   6.470   4.562   2.182 -0.2201 -0.0536 -0.2279
15846TIP3    H168953   6.564   4.552   2.195 -0.4810 -1.3289  0.8626
15846TIP3    H268954   6.450   4.506   2.107 -0.1719 -0.1629 -0.1602
15847TIP3   OH268955   2.398   5.517  11.392  0.0401  0.0634 -0.3543
15847TIP3    H168956   2.382   5.434  11.436  2.1370 -0.5737 -0.7306
15847TIP3    H268957   2.488   5.540  11.417 -0.4769  2.1494 -0.3671
15848TIP3   OH268958   5.293   5.117  16.840  0.5040  0.7980  0.0929
15848TIP3    H168959   5.366   5.059  16.866 -0.1956  0.4254  1.2651
15848TIP3    H268960   5.316   5.202  16.876  1.1888  1.1009 -1.0283
15849TIP3   OH268961   5.171   4.932  12.295  0.3608 -0.1548  0.3410
15849TIP3    H168962   5.124   4.987  12.233 -0.0063 -0.2031  0.5775
15849TIP3    H268963   5.150   4.842  12.269  0.9243 -0.1878 -0.0171
15850TIP3   OH268964   6.483   1.411   1.608  0.7530 -0.0392 -0.1151
15850TIP3    H168965   6.404   1.457   1.579 -0.3174 -1.6809  0.1116
15850TIP3    H268966   6.484   1.423   1.703 -0.6529 -2.1433  0.2017
15851TIP3   OH268967   4.910   2.427  14.789 -0.4260 -0.9948  0.2507
15851TIP3    H168968   4.904   2.344  14.743 -1.1854 -1.0140  0.3726
15851TIP3    H268969   4.819   2.454  14.802 -0.2282 -0.9391  1.6338
15852TIP3   OH268970   3.513   1.083   5.057  0.3249  0.2869 -0.6363
15852TIP3    H168971   3.579   1.048   5.117 -1.1696  0.5083  1.1944
15852TIP3    H268972   3.563   1.120   4.985  2.2915  1.6856  1.3787
15853TIP3   OH268973   5.140   5.797   4.766  0.1300  0.2907 -0.6357
15853TIP3    H168974   5.133   5.802   4.671  3.5113  3.3261 -0.8382
15853TIP3    H268975   5.138   5.888   4.796 -0.6100 -0.5855  2.2097
15854TIP3   OH268976   6.587   6.330   1.015 -0.1845  0.1958  0.1487
15854TIP3    H168977   6.680   6.351   1.027  0.1687 -1.0551 -0.3763
15854TIP3    H268978   6.572   6.255   1.071 -0.8949  0.4107  0.2468
15855TIP3   OH268979   1.525   0.448   4.918 -0.0116 -0.0420 -0.3852
15855TIP3    H168980   1.549   0.407   4.835 -3.5848  0.4254 -1.7300
15855TIP3    H268981   1.547   0.541   4.906  1.8044 -0.3807  0.1650
15856TIP3   OH268982   0.357   0.408  15.953  0.6640 -0.4849  0.2659
15856TIP3    H168983   0.349   0.318  15.920 -2.3310 -1.0858  2.3970
15856TIP3    H268984   0.282   0.454  15.914 -0.3824 -0.0993  2.6271
15857TIP3   OH268985   5.519   1.885   3.188 -0.1200 -0.3327  0.1128
15857TIP3    H168986   5.599   1.887   3.241  0.0235  0.7055 -0.1339
15857TIP3    H268987   5.476   1.969   3.206 -0.0056  0.0944 -1.4995
15858TIP3   OH268988   3.455   4.404   2.156 -0.1369  0.1302  0.3372
15858TIP3    H168989   3.518   4.471   2.183  0.6274 -0.7114  0.6684
15858TIP3    H268990   3.487   4.373   2.072 -0.8361  0.6038 -0.1150
15859TIP3   OH268991   0.336   5.534  15.569 -0.3074 -0.6687 -0.2900
15859TIP3    H168992   0.364   5.498  15.484 -1.8041 -2.4554 -0.0625
15859TIP3    H268993   0.414   5.527  15.624  1.0242  1.5992 -1.8275
15860TIP3   OH268994   4.765   6.524  13.090 -0.4601  0.4638 -0.1712
15860TIP3    H168995   4.827   6.571  13.145  0.0710 -0.1867 -0.2064
15860TIP3    H268996   4.783   6.432  13.107 -0.7468  0.2659 -0.9228
15861TIP3   OH268997   6.006   3.088   1.508  0.4103  0.4649 -0.0313
15861TIP3    H168998   6.044   3.000   1.506  0.3847  0.4573 -0.3448
15861TIP3    H268999   5.923   3.078   1.460  0.2933  0.6067  0.1427
15862TIP3   OH269000   1.160   0.079  12.662 -0.3442  0.4255 -0.7810
15862TIP3    H169001   1.206   0.079  12.578  1.9613 -1.3131  0.4044
15862TIP3    H269002   1.230   0.068  12.727 -2.1618  0.8425  1.3045
15863TIP3   OH269003   2.858   3.977  12.618  0.3294 -0.3475 -0.2544
15863TIP3    H169004   2.768   4.009  12.606 -0.0814 -0.6138  1.8693
15863TIP3    H269005   2.910   4.028  12.557 -0.9702  1.2642 -0.0593
15864TIP3   OH269006   5.776   2.614   3.130 -0.0771 -0.3053  0.4882
15864TIP3    H169007   5.851   2.615   3.190  0.5435  0.7255 -0.2923
15864TIP3    H269008   5.750   2.706   3.124 -1.7344 -0.7026  1.1448
15865TIP3   OH269009   4.844   1.302  13.579 -0.2315 -0.4362  0.1289
15865TIP3    H169010   4.933   1.270  13.587 -0.7978 -1.9594  0.6064
15865TIP3    H269011   4.838   1.375  13.641  0.0139 -1.8350  1.8305
15866TIP3   OH269012   5.208   6.187  13.514  0.4140  0.4504 -0.2597
15866TIP3    H169013   5.255   6.243  13.575  1.4374 -2.6068  1.9036
15866TIP3    H269014   5.269   6.114  13.497 -1.4628 -0.8352 -1.6672
15867TIP3   OH269015   5.129   1.309  16.585 -0.1332 -0.0145 -0.0586
15867TIP3    H169016   5.201   1.274  16.637  1.5465  2.7944 -0.3861
15867TIP3    H269017   5.075   1.358  16.647  1.0267  2.0460 -0.6211
15868TIP3   OH269018   2.877   1.576   3.726 -0.4880 -0.0845  0.2167
15868TIP3    H169019   2.878   1.669   3.700 -0.3811  0.4302  2.0282
15868TIP3    H269020   2.905   1.530   3.647 -0.5931  1.4129 -0.7323
15869TIP3   OH269021   5.754   6.766  13.452 -0.1883 -0.5376 -0.0991
15869TIP3    H169022   5.761   6.761  13.356  3.2588 -0.7608  0.1062
15869TIP3    H269023   5.819   6.703  13.484 -0.3551  0.4977  2.3896
15870TIP3   OH269024   1.709   5.608   2.433 -0.3805  0.2786  0.1103
15870TIP3    H169025   1.710   5.640   2.523 -0.4147 -0.4279  0.3657
15870TIP3    H269026   1.786   5.648   2.393  0.7064 -0.8684  0.9870
15871TIP3   OH269027   5.314   6.349  12.779  0.2778 -0.3527  0.1141
15871TIP3    H169028   5.397   6.340  12.733  0.3164  1.5346 -0.2346
15871TIP3    H269029   5.338   6.386  12.864 -0.3662  2.2485 -0.7908
15872TIP3   OH269030   3.452   0.747   1.046  0.1665  0.3282 -0.9326
15872TIP3    H169031   3.407   0.777   0.966  1.2866  1.6797 -1.0852
15872TIP3    H269032   3.493   0.665   1.021  0.5226  0.7536 -1.7565
15873TIP3   OH269033   5.284   3.170   6.166 -0.2423  0.3956 -0.1367
15873TIP3    H169034   5.359   3.201   6.218  0.0512 -0.2289 -0.1778
15873TIP3    H269035   5.221   3.242   6.170  0.6557  1.2404 -0.7045
15874TIP3   OH269036   0.240   6.254   7.004  0.3952  0.7472  0.5177
15874TIP3    H169037   0.256   6.342   7.036  2.8842  0.7829 -0.6987
15874TIP3    H269038   0.307   6.240   6.937 -2.0528 -0.8297 -1.7173
15875TIP3   OH269039   5.995   2.269  13.118 -0.4207 -0.5487  0.5390
15875TIP3    H169040   6.072   2.316  13.151 -0.9391  0.3985  0.4120
15875TIP3    H269041   5.995   2.186  13.167 -0.6682  0.4552  2.2732
15876TIP3   OH269042   4.126   3.156  12.953  0.3910  0.1589  0.2698
15876TIP3    H169043   4.098   3.209  13.028  0.3338 -1.1237  1.1739
15876TIP3    H269044   4.047   3.109  12.926  0.8076 -0.6808  0.4934
15877TIP3   OH269045   3.986   4.909  12.996 -0.4610  0.6145  0.8456
15877TIP3    H169046   3.949   4.989  12.958 -0.1986  1.2587  1.9091
15877TIP3    H269047   4.039   4.940  13.070  0.8675 -0.4330  0.3489
15878TIP3   OH269048   3.259   0.240   5.051 -0.1331  0.5325  0.5386
15878TIP3    H169049   3.345   0.201   5.067 -0.2810 -0.6551 -1.3727
15878TIP3    H269050   3.206   0.213   5.126  0.4645 -0.9207  0.4568
15879TIP3   OH269051   5.134   3.950  14.176  0.1914  0.5772  0.1459
15879TIP3    H169052   5.157   3.988  14.260  1.6744 -1.0277  0.5057
15879TIP3    H269053   5.116   3.858  14.195  0.7168  0.1497 -1.2975
15880TIP3   OH269054   3.143   1.532   4.926  0.3120 -0.1655 -0.2627
15880TIP3    H169055   3.195   1.451   4.925 -0.0643 -0.4072 -0.2227
15880TIP3    H269056   3.194   1.593   4.872  0.4614 -0.5102 -0.5166
15881TIP3   OH269057   2.489   6.751   4.509 -0.8567 -0.7701  0.2044
15881TIP3    H169058   2.447   6.729   4.426 -1.6547 -0.7351  0.5983
15881TIP3    H269059   2.521   6.840   4.496  2.9394 -2.2876 -1.6161
15882TIP3   OH269060   3.401   1.166  16.354 -0.1522  0.0109 -0.1875
15882TIP3    H169061   3.362   1.162  16.441  0.5129  1.3864  0.2018
15882TIP3    H269062   3.449   1.084  16.345 -0.0326 -0.0387  0.8470
15883TIP3   OH269063   4.624   6.463  14.375 -0.4863  0.2690 -0.1278
15883TIP3    H169064   4.600   6.407  14.448  1.2449 -1.8115 -1.1046
15883TIP3    H269065   4.602   6.412  14.297  0.5355  1.1982 -1.0365
15884TIP3   OH269066   2.622   0.833  11.604  0.3202 -0.0244 -0.3862
15884TIP3    H169067   2.685   0.767  11.573  0.6262 -0.0211  0.2187
15884TIP3    H269068   2.537   0.796  11.581  0.4333 -1.1521  0.8821
15885TIP3   OH269069   0.089   5.640   5.094 -0.1732  0.6348 -0.1301
15885TIP3    H169070   0.041   5.708   5.047 -1.1266  0.4326  0.5350
15885TIP3    H269071   0.067   5.559   5.049 -1.0822  0.4417  0.6614
15886TIP3   OH269072   4.670   4.220  12.884  0.1149  0.4050 -0.2409
15886TIP3    H169073   4.675   4.127  12.902 -2.0755  0.1332 -0.9151
15886TIP3    H269074   4.650   4.260  12.969  1.0391  0.2707  0.0427
15887TIP3   OH269075   2.392   4.403  16.418  0.2133 -0.2511  0.1002
15887TIP3    H169076   2.411   4.421  16.510  0.1102 -1.4098  0.3493
15887TIP3    H269077   2.297   4.413  16.411  0.0520 -1.5304  0.4252
15888TIP3   OH269078   2.641   5.030   2.191  0.5056  0.3795  0.1920
15888TIP3    H169079   2.563   5.072   2.228 -0.2475 -0.1862 -0.7213
15888TIP3    H269080   2.713   5.090   2.210  0.1244  0.1468  2.4736
15889TIP3   OH269081   1.356   0.507  12.513  0.1943  0.2321  0.5044
15889TIP3    H169082   1.284   0.563  12.544  1.1231  0.7728  1.7643
15889TIP3    H269083   1.425   0.520  12.578  0.6346 -1.9669  0.5150
15890TIP3   OH269084   4.803   4.787   1.214  0.1573 -0.3531 -0.1208
15890TIP3    H169085   4.780   4.759   1.125  2.2581  0.3561 -0.9204
15890TIP3    H269086   4.857   4.716   1.248  1.7237  0.6358 -0.4862
15891TIP3   OH269087   3.839   2.138   1.828  0.0160  0.0070  0.3061
15891TIP3    H169088   3.895   2.062   1.809 -0.8736 -0.4861 -0.3673
15891TIP3    H269089   3.775   2.105   1.891 -0.2160  0.2762  0.2100
15892TIP3   OH269090   1.179   3.566   5.645  0.2277  0.1791 -0.2272
15892TIP3    H169091   1.185   3.594   5.736 -1.4502  1.6340 -0.5309
15892TIP3    H269092   1.194   3.472   5.648  0.1054  0.1950  1.5585
15893TIP3   OH269093   5.176   5.038  13.166  0.2347  0.2330  0.4764
15893TIP3    H169094   5.117   5.111  13.188 -1.8242 -1.7286  1.6735
15893TIP3    H269095   5.240   5.036  13.237 -0.7087 -0.1536  1.3257
15894TIP3   OH269096   6.558   3.672  15.769 -0.1229 -0.5626 -0.0286
15894TIP3    H169097   6.569   3.759  15.808 -1.9580 -0.1206 -0.4740
15894TIP3    H269098   6.501   3.625  15.829 -0.1620 -1.0305 -0.4272
15895TIP3   OH269099   5.676   2.315  16.859 -0.2352 -0.1191 -0.5591
15895TIP3    H169100   5.681   2.224  16.830  0.9472 -0.9008  1.9240
15895TIP3    H269101   5.587   2.324  16.894 -0.0225 -0.6432  0.1354
15896TIP3   OH269102   0.219   4.476  15.695 -0.2385  0.2076  0.6113
15896TIP3    H169103   0.211   4.504  15.786 -0.3835 -1.1215  1.0104
15896TIP3    H269104   0.150   4.411  15.683 -0.2596  0.4123 -0.4726
15897TIP3   OH269105   6.514   4.386  14.627 -0.0195 -0.4267 -0.1267
15897TIP3    H169106   6.527   4.477  14.654 -0.2937 -0.5089  0.3013
15897TIP3    H269107   6.598   4.343  14.647 -0.0989 -0.4047  0.2699
15898TIP3   OH269108   3.312   5.387   3.205  0.7098 -0.2676  0.0110
15898TIP3    H169109   3.321   5.312   3.263  0.3755  0.8571  1.5457
15898TIP3    H269110   3.401   5.420   3.194  0.6167  0.3340  1.0022
15899TIP3   OH269111   2.599   1.307   1.994 -0.3566  0.2538 -0.1073
15899TIP3    H169112   2.571   1.348   2.076 -0.0120 -0.7627  0.5263
15899TIP3    H269113   2.539   1.342   1.928 -2.1572 -0.6941  0.9611
15900TIP3   OH269114   6.571   5.654   1.285  0.0953  0.2916  0.6709
15900TIP3    H169115   6.632   5.616   1.223  0.0240  0.3484  0.5670
15900TIP3    H269116   6.486   5.652   1.241  0.4338  2.4877 -0.1588
15901TIP3   OH269117   2.810   4.202   0.530 -0.2703 -0.0506 -0.1972
15901TIP3    H169118   2.847   4.213   0.618 -0.7220 -2.5676  0.3298
15901TIP3    H269119   2.716   4.216   0.543 -0.2588  0.2330 -0.4111
15902TIP3   OH269120   2.901   1.910  11.151 -0.2508 -0.2090 -0.3918
15902TIP3    H169121   2.829   1.904  11.215  0.0410  0.4464  0.0056
15902TIP3    H269122   2.857   1.932  11.069 -0.4614  0.7158 -0.0381
15903TIP3   OH269123   4.834   5.947  12.857 -0.6351  0.6112 -0.7247
15903TIP3    H169124   4.884   5.885  12.803  0.7770  0.3739  0.8291
15903TIP3    H269125   4.874   6.032  12.839  1.1473  0.2701  1.3737
15904TIP3   OH269126   6.145   1.054   3.088 -0.4856  0.1974 -0.3401
15904TIP3    H169127   6.222   1.112   3.090 -1.2923  1.2669  0.2528
15904TIP3    H269128   6.094   1.084   3.013 -0.7927  0.1058 -0.1688
15905TIP3   OH269129   6.014   2.455  14.117  0.1175  0.3999 -0.1758
15905TIP3    H169130   5.933   2.447  14.168 -0.2418  0.2749 -0.7541
15905TIP3    H269131   6.054   2.536  14.148 -1.0969  1.3828 -1.0739
15906TIP3   OH269132   4.145   0.843  13.048 -0.3579 -0.1642 -0.4970
15906TIP3    H169133   4.240   0.842  13.034 -0.4016  0.6085 -0.8525
15906TIP3    H269134   4.134   0.861  13.141 -0.1530 -0.6945 -0.3653
15907TIP3   OH269135   3.567   1.678   2.688 -0.0810  0.0278 -0.2316
15907TIP3    H169136   3.645   1.675   2.632  0.0530  0.5207 -0.0758
15907TIP3    H269137   3.567   1.595   2.735  1.6338  0.9780  1.4982
15908TIP3   OH269138   0.745   4.967  13.351  0.0391  0.0584  0.1440
15908TIP3    H169139   0.796   5.034  13.305 -1.5939  0.6411 -0.8437
15908TIP3    H269140   0.810   4.917  13.400  1.5361  0.9361 -0.9157
15909TIP3   OH269141   2.523   0.437  12.162  0.2004  0.5133 -0.0299
15909TIP3    H169142   2.544   0.373  12.230  0.9693 -1.3363 -1.9218
15909TIP3    H269143   2.437   0.410  12.130 -0.8370  2.2778  1.1824
15910TIP3   OH269144   0.549   1.344  13.616 -0.0230 -0.0095  0.1276
15910TIP3    H169145   0.591   1.427  13.641 -0.6720  0.3757 -0.0410
15910TIP3    H269146   0.456   1.366  13.609 -0.4040 -1.1247  1.6223
15911TIP3   OH269147   1.742   0.867   0.674  0.1415  0.0785  0.0944
15911TIP3    H169148   1.778   0.953   0.655  1.3816 -0.1787  1.1990
15911TIP3    H269149   1.781   0.809   0.609 -1.4072  0.4929 -1.2328
15912TIP3   OH269150   3.106   5.210   5.075  0.3600 -0.3636 -0.1038
15912TIP3    H169151   3.045   5.252   5.015 -0.1757  1.7090  1.8232
15912TIP3    H269152   3.180   5.186   5.020  0.2941  2.3313 -1.4782
15913TIP3   OH269153   1.783   3.781   4.172 -0.1309  0.2299  0.2604
15913TIP3    H169154   1.810   3.700   4.216 -0.4352 -1.1216 -1.9507
15913TIP3    H269155   1.690   3.770   4.155 -0.3276  1.3548  0.5552
15914TIP3   OH269156   1.786   3.071   2.045  0.2298 -0.0733  0.1368
15914TIP3    H169157   1.770   3.165   2.042  1.6466  0.1878  0.2702
15914TIP3    H269158   1.848   3.059   2.118  0.6403 -1.0033 -0.3474
15915TIP3   OH269159   1.173   1.618   1.198 -0.1462  0.3279 -0.2809
15915TIP3    H169160   1.199   1.702   1.238 -1.0124  1.2852 -1.6897
15915TIP3    H269161   1.080   1.610   1.217 -0.6034  0.8623 -2.1948
15916TIP3   OH269162   5.836   1.694  11.958 -0.3795 -0.3207 -0.3794
15916TIP3    H169163   5.884   1.680  11.877 -0.5494 -0.1088 -0.5165
15916TIP3    H269164   5.763   1.631  11.954 -0.1652 -0.5838 -0.2106
15917TIP3   OH269165   3.098   4.418   3.518 -0.1309  0.0455 -0.1094
15917TIP3    H169166   3.002   4.422   3.518 -0.1262  0.4383 -2.0618
15917TIP3    H269167   3.126   4.502   3.482  0.9319 -0.4683 -0.5009
15918TIP3   OH269168   6.264   6.754   2.414  0.1753  0.0371  0.2960
15918TIP3    H169169   6.251   6.738   2.321 -1.6883  0.7854  0.4049
15918TIP3    H269170   6.313   6.836   2.418 -0.6338  0.5372 -0.0076
15919TIP3   OH269171   6.015   3.150  12.599  0.2758  0.0488  0.5106
15919TIP3    H169172   6.042   3.070  12.644 -0.3171 -0.8562 -0.7179
15919TIP3    H269173   5.938   3.124  12.548  0.0626  1.4136  0.1214
15920TIP3   OH269174   5.090   2.938   3.634 -0.0218  0.3947  0.4697
15920TIP3    H169175   5.138   3.020   3.637 -0.4405  0.6813 -0.6756
15920TIP3    H269176   5.027   2.948   3.563 -1.6011 -0.0890  1.7684
15921TIP3   OH269177   1.713   0.945  11.599 -0.0911  0.3205 -0.1379
15921TIP3    H169178   1.723   0.913  11.688 -0.9676 -0.9154 -0.4669
15921TIP3    H269179   1.665   1.027  11.607  1.5997  1.2332  0.6713
15922TIP3   OH269180   0.508   1.399   0.734  0.4480 -0.1974 -0.0787
15922TIP3    H169181   0.462   1.366   0.656  0.2473  1.2888 -0.5997
15922TIP3    H269182   0.438   1.425   0.794  0.6145  0.1669 -0.0464
15923TIP3   OH269183   4.325   0.213   5.950 -0.7881 -0.0654  0.1471
15923TIP3    H169184   4.358   0.230   6.038  1.3804  2.9716 -1.1812
15923TIP3    H269185   4.267   0.287   5.931 -0.9449 -0.5027 -1.1169
15924TIP3   OH269186   4.806   3.416   6.601  0.0692 -0.1350 -0.2164
15924TIP3    H169187   4.735   3.437   6.663 -1.2714 -1.8756 -1.1161
15924TIP3    H269188   4.841   3.332   6.633  0.4928 -0.1984 -0.8496
15925TIP3   OH269189   4.220   4.201  12.877  0.1664  0.5368  0.2420
15925TIP3    H169190   4.136   4.224  12.838 -0.1969 -2.0018 -0.5764
15925TIP3    H269191   4.283   4.261  12.838 -0.4038 -1.0704 -3.3545
15926TIP3   OH269192   6.252   3.531   2.347 -0.2511 -0.3624  0.5077
15926TIP3    H169193   6.165   3.519   2.307 -0.1475  0.6679 -0.0605
15926TIP3    H269194   6.310   3.478   2.293 -0.6082 -1.4538  1.1945
15927TIP3   OH269195   6.491   4.729  16.957  0.4507 -0.0700 -0.1189
15927TIP3    H169196   6.577   4.768  16.938  0.7721 -0.7158 -0.0075
15927TIP3    H269197   6.467   4.765  17.042 -0.1753  1.4390 -0.8987
15928TIP3   OH269198   4.381   0.425  12.756  0.1094  0.0328 -1.1240
15928TIP3    H169199   4.446   0.438  12.824 -1.9498  1.3154  0.6731
15928TIP3    H269200   4.352   0.334  12.766  0.6048 -0.1099 -1.0168
15929TIP3   OH269201   4.036   0.410   0.757  0.1781  0.3177  0.4492
15929TIP3    H169202   4.000   0.496   0.737 -1.6317 -0.6013 -0.3338
15929TIP3    H269203   4.032   0.362   0.674  1.3943 -0.4559  0.8147
15930TIP3   OH269204   2.882   4.899   2.485 -0.6778  0.4095 -0.3169
15930TIP3    H169205   2.910   4.951   2.560 -2.0132  0.0065  0.4742
15930TIP3    H269206   2.856   4.963   2.419 -0.5529  0.7558 -0.0264
15931TIP3   OH269207   0.435   5.381   4.430 -0.3041  0.7507 -0.1877
15931TIP3    H169208   0.356   5.407   4.479 -0.8049  1.0802 -1.1492
15931TIP3    H269209   0.478   5.464   4.410  1.1086  0.4887  1.6495
15932TIP3   OH269210   5.094   2.058   4.622 -0.1350 -0.1796 -0.1068
15932TIP3    H169211   5.179   2.016   4.633  0.3071  0.4339 -1.0308
15932TIP3    H269212   5.031   1.996   4.657  0.7910 -0.1355  1.7020
15933TIP3   OH269213   4.044   5.002   0.042 -0.1570 -0.4597 -0.2526
15933TIP3    H169214   4.090   5.066   0.096 -0.0199  0.2725 -1.2341
15933TIP3    H269215   3.960   5.042   0.022 -1.1299 -1.6678  1.2726
15934TIP3   OH269216   4.586   3.043  12.409 -0.3332 -0.3388  0.7208
15934TIP3    H169217   4.621   3.072  12.325  1.8349 -2.2218  0.9179
15934TIP3    H269218   4.660   3.052  12.470 -1.4349 -0.4239  2.1053
15935TIP3   OH269219   3.384   3.871   1.971  0.1673  0.2561 -0.6954
15935TIP3    H169220   3.397   3.865   1.877  0.3870  0.1738 -0.6596
15935TIP3    H269221   3.332   3.951   1.983  0.8772  0.7430 -0.8158
15936TIP3   OH269222   3.464   3.314  12.728 -0.1806  0.0062 -0.2972
15936TIP3    H169223   3.500   3.319  12.639 -0.6603 -0.2796 -0.5104
15936TIP3    H269224   3.401   3.242  12.724 -1.3133  0.9694 -0.1321
15937TIP3   OH269225   2.861   6.444  12.520  0.2669  0.0502  0.5420
15937TIP3    H169226   2.768   6.462  12.507  0.2717 -0.8761 -0.8262
15937TIP3    H269227   2.886   6.391  12.445  1.7113 -0.4123  1.3373
15938TIP3   OH269228   2.024   6.181  12.419  0.6872  0.1226 -0.0296
15938TIP3    H169229   2.006   6.089  12.440  0.6111  0.6191  2.1392
15938TIP3    H269230   1.938   6.222  12.416  0.8166  0.4328  0.4877
15939TIP3   OH269231   6.301   2.494   1.603 -0.3163 -0.0942 -0.2664
15939TIP3    H169232   6.302   2.562   1.534 -3.5546 -0.4489 -0.7612
15939TIP3    H269233   6.235   2.525   1.665  0.1988 -1.4230  0.9468
15940TIP3   OH269234   5.710   0.490  16.694 -0.2741 -0.5098 -0.3064
15940TIP3    H169235   5.695   0.444  16.611  1.1395 -0.4392 -0.6034
15940TIP3    H269236   5.647   0.562  16.692  1.8838  1.3826 -2.7748
15941TIP3   OH269237   6.416   6.291   2.815  0.6289 -0.2077 -0.1931
15941TIP3    H169238   6.496   6.252   2.849  0.4723 -0.4424 -0.0906
15941TIP3    H269239   6.403   6.370   2.869 -1.1391 -2.0679  2.2276
15942TIP3   OH269240   5.109   3.832   1.706  0.0404 -0.6438  0.2717
15942TIP3    H169241   5.107   3.844   1.801 -1.2745 -1.5016  0.3600
15942TIP3    H269242   5.197   3.859   1.681  0.7777 -1.4671  1.8762
15943TIP3   OH269243   2.784   6.769   3.985 -0.0630  0.4618 -0.0104
15943TIP3    H169244   2.845   6.721   3.930 -0.5062  0.2312 -0.3019
15943TIP3    H269245   2.761   6.847   3.934 -0.8771 -0.0152 -0.3719
15944TIP3   OH269246   3.309   2.362   0.111  0.4249 -0.2934 -0.4313
15944TIP3    H169247   3.235   2.327   0.161  0.1102  0.6957 -0.2014
15944TIP3    H269248   3.379   2.298   0.125  0.2747 -0.1382  1.1032
15945TIP3   OH269249   1.609   4.403   6.746  0.1194  0.2132 -0.4718
15945TIP3    H169250   1.534   4.459   6.726  0.4543  0.0821 -2.1940
15945TIP3    H269251   1.665   4.457   6.802 -1.9419 -0.2194  2.1168
15946TIP3   OH269252   4.756   1.707  16.687  0.3765 -0.2961  0.1642
15946TIP3    H169253   4.716   1.645  16.626 -1.8622 -0.1438  1.3898
15946TIP3    H269254   4.841   1.669  16.707 -0.4548 -2.3854 -0.0535
15947TIP3   OH269255   3.667   4.027  17.017  0.2376 -0.0126 -0.1222
15947TIP3    H169256   3.629   3.940  17.030  0.4020 -0.0122  0.3844
15947TIP3    H269257   3.689   4.030  16.924  1.9835 -1.2214  0.2382
15948TIP3   OH269258   4.798   6.091  11.691  0.4429 -0.0634 -0.0136
15948TIP3    H169259   4.816   6.012  11.742 -0.1503  0.1670  0.5595
15948TIP3    H269260   4.799   6.061  11.600  0.6491 -0.6473  0.1773
15949TIP3   OH269261   0.923   2.584  17.090 -0.1570 -0.0198  0.2289
15949TIP3    H169262   0.985   2.656  17.077 -1.9543  1.7356  0.9720
15949TIP3    H269263   0.916   2.576  17.185 -1.3383  0.0536  0.1500
15950TIP3   OH269264   3.454   1.706   4.186  0.0912  0.0398  0.1523
15950TIP3    H169265   3.432   1.703   4.093 -0.1178 -2.0642  0.2476
15950TIP3    H269266   3.532   1.651   4.194  0.2091  0.3498  1.1946
15951TIP3   OH269267   0.580   5.588  16.569  0.4926 -0.2660  0.8955
15951TIP3    H169268   0.636   5.564  16.643  0.3147  1.3070  1.5735
15951TIP3    H269269   0.528   5.662  16.601 -1.4606 -1.2254  0.0359
15952TIP3   OH269270   5.061   0.184   5.472  0.2212 -0.3168 -0.2483
15952TIP3    H169271   5.148   0.220   5.490  0.7217 -0.9716 -1.3247
15952TIP3    H269272   5.008   0.259   5.448  0.1875  0.2413  1.5124
15953TIP3   OH269273   0.314   6.146  12.152 -0.6352  0.1606 -0.3592
15953TIP3    H169274   0.283   6.151  12.062 -0.2859  0.9051 -0.4426
15953TIP3    H269275   0.381   6.214  12.158 -0.3295 -0.1922  0.3339
15954TIP3   OH269276   6.371   6.760   0.058  0.6003 -0.6173  0.6967
15954TIP3    H169277   6.294   6.712   0.028  1.0897 -1.5022  0.8542
15954TIP3    H269278   6.402   6.712   0.134  1.5174 -0.4669  0.4229
15955TIP3   OH269279   6.478   2.509   2.994 -0.2161 -0.8404 -0.7234
15955TIP3    H169280   6.469   2.513   3.089 -0.4300  2.1424 -0.8014
15955TIP3    H269281   6.421   2.437   2.968 -2.1411 -0.1079  1.2215
15956TIP3   OH269282   6.449   3.575   3.486  0.6209 -0.9132 -0.3573
15956TIP3    H169283   6.374   3.608   3.436  0.1546 -0.5402  0.5603
15956TIP3    H269284   6.505   3.534   3.421 -0.3143 -1.0668 -1.0861
15957TIP3   OH269285   6.101   5.862  16.909  0.1049  0.1789 -0.5303
15957TIP3    H169286   6.194   5.880  16.898  0.0345  0.3377 -0.8786
15957TIP3    H269287   6.077   5.907  16.990 -0.0353  1.5181 -1.3017
15958TIP3   OH269288   5.287   4.197   6.650 -0.2695 -0.1306  0.2234
15958TIP3    H169289   5.243   4.163   6.573 -1.3570 -1.2517  1.3105
15958TIP3    H269290   5.302   4.120   6.706  0.1599  0.7057  1.2943
15959TIP3   OH269291   6.349   3.935  10.474  0.0415  0.3876 -0.4616
15959TIP3    H169292   6.303   3.861  10.514 -0.1072  0.6496 -0.1400
15959TIP3    H269293   6.435   3.936  10.517  0.0230  0.4353 -0.4257
15960TIP3   OH269294   3.314   5.988  10.620 -0.0232  0.7208 -0.0958
15960TIP3    H169295   3.323   5.929  10.694  0.2607 -0.3211 -0.9449
15960TIP3    H269296   3.228   6.030  10.633 -0.4662 -0.2761  0.2336
15961TIP3   OH269297   0.563   2.889   5.433 -0.2942 -0.1087 -0.0697
15961TIP3    H169298   0.649   2.891   5.475  0.3316  0.7515 -1.3391
15961TIP3    H269299   0.507   2.943   5.489  0.0883 -0.3833  0.5756
15962TIP3   OH269300   3.417   4.864   0.303  0.0579 -0.2039  0.4991
15962TIP3    H169301   3.363   4.787   0.323 -2.2032  1.2216  0.0730
15962TIP3    H269302   3.495   4.853   0.357 -0.9174 -2.0363  1.5907
15963TIP3   OH269303   3.493   0.312   3.218 -0.5506 -0.0500  0.1702
15963TIP3    H169304   3.575   0.294   3.264 -0.7062 -1.2599 -0.0058
15963TIP3    H269305   3.516   0.378   3.152  0.3327 -0.5729 -0.0509
15964TIP3   OH269306   3.752   1.290  13.195  0.1107  0.6505  0.7779
15964TIP3    H169307   3.781   1.302  13.104 -0.8441  0.6339  0.4730
15964TIP3    H269308   3.754   1.196  13.208 -0.2707  0.6175  0.6038
15965TIP3   OH269309   6.554   0.454   4.654 -0.2913 -0.4288  0.0446
15965TIP3    H169310   6.636   0.502   4.662  0.5655 -1.7285 -0.7267
15965TIP3    H269311   6.515   0.487   4.573 -0.9000  0.7340  0.8081
15966TIP3   OH269312   2.441   2.516  12.988 -0.0800 -0.3809  0.3098
15966TIP3    H169313   2.389   2.548  13.062 -1.3455 -1.9140  0.1209
15966TIP3    H269314   2.404   2.560  12.912 -0.3461 -0.5934  0.3155
15967TIP3   OH269315   6.510   3.496  16.871 -0.5349  0.1076  0.7653
15967TIP3    H169316   6.500   3.589  16.891  1.2019  0.8242 -1.4596
15967TIP3    H269317   6.507   3.491  16.776 -0.7534 -2.1567  0.8573
15968TIP3   OH269318   1.943   3.763  14.963  0.3601  0.1321 -0.0293
15968TIP3    H169319   1.963   3.790  14.873  0.0372  0.4566 -0.0059
15968TIP3    H269320   1.992   3.681  14.975  0.0797 -0.1277 -0.6371
15969TIP3   OH269321   3.037   0.861  16.260  0.0827  0.0200 -0.0702
15969TIP3    H169322   3.047   0.927  16.328 -0.5614  0.8652 -0.7935
15969TIP3    H269323   3.117   0.868  16.208  0.4832 -0.4878  0.4702
15970TIP3   OH269324   3.576   3.364  15.070 -0.1934 -0.0321  0.0313
15970TIP3    H169325   3.629   3.383  15.148  0.7790  0.0637 -0.6525
15970TIP3    H269326   3.492   3.336  15.106  0.0592  0.5447  1.1156
15971TIP3   OH269327   3.970   4.441  16.960  0.2424 -0.1405 -0.0686
15971TIP3    H169328   4.017   4.361  16.937  0.2039  0.4816 -2.5204
15971TIP3    H269329   3.908   4.415  17.028  1.1913 -1.8810  0.1388
15972TIP3   OH269330   6.064   1.624  13.191 -0.7191 -0.2221 -0.7973
15972TIP3    H169331   6.089   1.603  13.101  0.5326  0.0346 -0.5091
15972TIP3    H269332   6.143   1.660  13.231 -1.5268  0.5439  0.1400
15973TIP3   OH269333   0.279   2.668  14.875  0.3585  0.4869  0.0614
15973TIP3    H169334   0.286   2.725  14.952  2.3296  0.9680 -0.4578
15973TIP3    H269335   0.310   2.583  14.906 -1.3787 -0.0176  0.4909
15974TIP3   OH269336   0.641   2.589   3.428 -0.0779 -0.2811 -0.1693
15974TIP3    H169337   0.735   2.570   3.437 -0.0316 -0.2095 -0.5271
15974TIP3    H269338   0.605   2.570   3.515  0.3307  0.0524  0.0767
15975TIP3   OH269339   5.703   1.887  11.366  0.2919  0.1101  0.1944
15975TIP3    H169340   5.726   1.969  11.322  0.1708  0.5018  0.8622
15975TIP3    H269341   5.676   1.913  11.454 -0.0570 -0.6171  0.3056
15976TIP3   OH269342   6.282   6.733   2.052  0.2094  0.1492 -0.1928
15976TIP3    H169343   6.365   6.696   2.023  1.0950  0.9439  1.2475
15976TIP3    H269344   6.217   6.666   2.032  0.8795  0.3142 -3.1597
15977TIP3   OH269345   6.181   1.279   2.775  0.0537  0.9544  0.0271
15977TIP3    H169346   6.148   1.363   2.742 -0.9556  0.0587 -1.2909
15977TIP3    H269347   6.113   1.249   2.834 -0.3670  0.2797 -0.7909
15978TIP3   OH269348   3.196   1.199   3.626 -0.5213  0.2064  0.0940
15978TIP3    H169349   3.143   1.233   3.555  0.6328  0.2981 -0.7406
15978TIP3    H269350   3.283   1.187   3.588 -0.2214 -1.0371  1.1140
15979TIP3   OH269351   3.331   1.363   5.410  0.1962 -0.1260 -0.1840
15979TIP3    H169352   3.287   1.360   5.495 -1.8236 -1.0029 -1.2276
15979TIP3    H269353   3.422   1.342   5.430 -0.6585 -2.4892  1.5205
15980TIP3   OH269354   4.237   5.521   2.484 -0.1851  0.3901  0.7489
15980TIP3    H169355   4.272   5.609   2.493 -0.8503  0.6244  1.0201
15980TIP3    H269356   4.147   5.533   2.454 -0.1011 -0.2098  0.2268
15981TIP3   OH269357   3.603   2.587  11.320  0.4651  0.2119  0.0531
15981TIP3    H169358   3.556   2.504  11.330  1.0996  0.0301  1.5593
15981TIP3    H269359   3.619   2.594  11.226 -0.2092 -1.0325 -0.1616
15982TIP3   OH269360   1.665   3.814   5.102  0.0071 -0.3718 -0.3523
15982TIP3    H169361   1.716   3.842   5.178 -0.8107  0.4121 -0.0755
15982TIP3    H269362   1.705   3.732   5.075  0.3012 -0.6702  0.9352
15983TIP3   OH269363   1.804   4.211   3.767  0.9464  0.4603  0.5086
15983TIP3    H169364   1.799   4.191   3.861  2.9749 -0.1834  0.5011
15983TIP3    H269365   1.782   4.304   3.761 -2.1961 -0.1841  1.2638
15984TIP3   OH269366   6.694   0.581  15.320 -0.2179  0.1313 -0.1490
15984TIP3    H169367   6.607   0.591  15.283 -0.7741 -0.4934  0.9749
15984TIP3    H269368   6.682   0.597  15.414  0.5636 -1.6652  0.2768
15985TIP3   OH269369   1.202   0.348   3.627  0.5821 -0.2297 -0.1444
15985TIP3    H169370   1.196   0.257   3.598  0.7408 -0.5406  0.7987
15985TIP3    H269371   1.277   0.383   3.579  2.7214 -1.5889  2.1239
15986TIP3   OH269372   2.609   3.184  15.076 -0.0040 -0.4163 -0.1094
15986TIP3    H169373   2.556   3.246  15.026 -0.6968 -0.2656  0.8013
15986TIP3    H269374   2.651   3.129  15.010 -1.9511 -1.0806 -0.8239
15987TIP3   OH269375   2.257   0.123   5.881 -0.2038 -0.3918 -0.3398
15987TIP3    H169376   2.178   0.073   5.897 -0.4824 -0.2079 -1.0892
15987TIP3    H269377   2.226   0.209   5.851  0.2655  0.2185  0.8845
15988TIP3   OH269378   6.762   0.365   3.576 -0.4642 -0.2041  0.1084
15988TIP3    H169379   6.728   0.303   3.641 -0.7821 -0.5832 -0.4163
15988TIP3    H269380   6.722   0.337   3.493  0.4774 -0.1450 -0.3704
15989TIP3   OH269381   5.984   2.834   1.938 -0.2855  0.6003 -0.9031
15989TIP3    H169382   5.950   2.863   2.023 -0.6284 -1.2884 -0.3850
15989TIP3    H269383   6.079   2.849   1.944 -0.0665 -1.1588  0.4976
15990TIP3   OH269384   2.453   0.878   2.374 -0.1395  0.8714  0.1504
15990TIP3    H169385   2.521   0.875   2.442 -2.4739  2.3853  2.6379
15990TIP3    H269386   2.482   0.947   2.315  1.0437  0.7228  0.5300
15991TIP3   OH269387   1.803   0.559  10.955  0.3568 -0.1614 -0.0026
15991TIP3    H169388   1.717   0.546  10.915 -0.0149 -1.5126  1.2001
15991TIP3    H269389   1.840   0.471  10.961 -0.5682 -0.3473  4.7461
15992TIP3   OH269390   4.909   6.188   2.347 -0.6538  0.0607  0.0201
15992TIP3    H169391   4.923   6.264   2.403 -1.1986  0.4660 -0.3788
15992TIP3    H269392   4.996   6.151   2.333  0.0849  2.5912 -2.5416
15993TIP3   OH269393   1.114   0.847  13.451 -0.4398  0.2001 -0.4363
15993TIP3    H169394   1.198   0.838  13.496  1.0785  1.0440 -3.0131
15993TIP3    H269395   1.112   0.937  13.419 -3.4706  0.9743  1.7299
15994TIP3   OH269396   1.426   5.470   3.288 -0.7852  0.2190 -0.1517
15994TIP3    H169397   1.516   5.448   3.312 -0.0131  1.3830 -1.8575
15994TIP3    H269398   1.404   5.409   3.218 -0.7811  0.9003 -0.7556
15995TIP3   OH269399   3.315   5.137  12.351 -0.2183 -0.1859  0.1070
15995TIP3    H169400   3.289   5.138  12.258 -0.8232  2.2256  0.2667
15995TIP3    H269401   3.405   5.167  12.351 -0.5759  0.8971  0.3889
15996TIP3   OH269402   5.318   4.887   2.007 -0.0690  0.3329 -0.0465
15996TIP3    H169403   5.247   4.951   2.006 -0.5560 -0.2207 -0.9105
15996TIP3    H269404   5.386   4.929   2.060 -0.9266  0.9757  0.5675
15997TIP3   OH269405   1.737   6.346   1.802 -0.1215  0.1074  0.0049
15997TIP3    H169406   1.653   6.357   1.758  0.5420 -0.1193 -1.3447
15997TIP3    H269407   1.802   6.375   1.738  1.0094 -2.3743 -0.0445
15998TIP3   OH269408   2.022   0.799  17.163  0.3362 -0.0911  0.0223
15998TIP3    H169409   2.103   0.845  17.144  0.3735  0.4944  1.5169
15998TIP3    H269410   2.050   0.708  17.179  0.7794  0.2182  1.0691
15999TIP3   OH269411   3.245   1.549  11.901  0.0563  0.0432  0.0407
15999TIP3    H169412   3.229   1.527  11.809 -0.2645  0.8790 -0.1087
15999TIP3    H269413   3.340   1.557  11.907  0.0722  0.0631 -0.2353
16000TIP3   OH269414   5.390   5.645   3.979  0.0270 -0.7655  0.4404
16000TIP3    H169415   5.325   5.702   3.938  1.8060 -1.2197 -3.2078
16000TIP3    H269416   5.431   5.699   4.046 -1.1496  0.8971 -0.1502
16001TIP3   OH269417   6.503   4.222  11.192 -0.3460 -0.3937  0.0148
16001TIP3    H169418   6.540   4.157  11.252  1.7609 -0.4694 -1.3202
16001TIP3    H269419   6.478   4.171  11.114  0.3988  0.2186 -0.6381
16002TIP3   OH269420   6.649   6.714  14.218  0.2987  0.0292 -0.2177
16002TIP3    H169421   6.611   6.637  14.175 -0.1527  0.6653 -0.9657
16002TIP3    H269422   6.609   6.714  14.305 -2.1122  1.1595 -1.2735
16003TIP3   OH269423   4.060   0.567  15.836  0.2362  0.3887 -0.2877
16003TIP3    H169424   4.124   0.521  15.890 -0.6826  0.8439  1.2201
16003TIP3    H269425   4.050   0.653  15.877 -1.0946  0.4341 -0.6710
16004TIP3   OH269426   2.452   0.053  11.190 -0.1344  0.3926  0.2542
16004TIP3    H169427   2.461  -0.039  11.162  1.0745  0.7733 -0.6649
16004TIP3    H269428   2.454   0.049  11.285 -0.9980 -0.6227  0.2395
16005TIP3   OH269429   1.019   5.145  16.730  0.3780  0.5446 -0.0189
16005TIP3    H169430   0.970   5.180  16.805  0.0163  0.7422 -0.3491
16005TIP3    H269431   0.978   5.186  16.654  1.0943  0.7574 -0.2922
16006TIP3   OH269432   3.701   1.094   0.214  0.5732  0.1276  0.2984
16006TIP3    H169433   3.698   1.021   0.276 -1.0777  0.9934  1.2845
16006TIP3    H269434   3.670   1.170   0.264  1.7625  1.4106 -0.8540
16007TIP3   OH269435   2.697   6.590  11.247 -0.4356 -0.1750  0.0703
16007TIP3    H169436   2.658   6.627  11.326  0.4962 -0.6843  0.7778
16007TIP3    H269437   2.633   6.609  11.178 -0.2486  2.2151  0.5113
16008TIP3   OH269438   3.322   5.227   5.993 -0.5349  0.0362  0.6190
16008TIP3    H169439   3.372   5.227   5.911 -1.5952 -0.7463 -0.0453
16008TIP3    H269440   3.316   5.135   6.018  0.5722  0.3406  2.0910
16009TIP3   OH269441   5.075   3.027   3.114 -0.5705 -0.2497 -0.2802
16009TIP3    H169442   5.063   2.933   3.101 -1.8210 -0.1107 -0.1772
16009TIP3    H269443   5.103   3.060   3.029 -3.7333 -0.1428 -1.3189
16010TIP3   OH269444   2.957   6.083  11.187  0.2315 -0.1675  0.2475
16010TIP3    H169445   2.894   6.020  11.154 -0.6128  0.6647  0.2408
16010TIP3    H269446   2.906   6.141  11.243  1.2729 -0.3946  1.4637
16011TIP3   OH269447   3.723   3.399  16.637  0.3694 -0.0925  0.0468
16011TIP3    H169448   3.703   3.492  16.628 -1.3806 -0.3621  0.9274
16011TIP3    H269449   3.649   3.363  16.686  0.4370 -2.1784 -1.3105
16012TIP3   OH269450   3.034   2.895  14.419 -0.2964 -0.0674  0.5516
16012TIP3    H169451   2.970   2.956  14.382 -0.9074  0.2116  2.0613
16012TIP3    H269452   2.987   2.850  14.489  0.6598 -1.0891  0.5558
16013TIP3   OH269453   0.507   3.517   3.643 -0.0169 -0.2231  0.1252
16013TIP3    H169454   0.491   3.516   3.737 -1.2023  0.8496 -0.0545
16013TIP3    H269455   0.534   3.427   3.622  2.7208  0.1514  1.8838
16014TIP3   OH269456   4.998   2.546  16.511 -0.4550  0.5822  0.1559
16014TIP3    H169457   4.957   2.472  16.558 -0.5945  0.7644  0.3252
16014TIP3    H269458   5.007   2.614  16.578  3.3400 -0.6690  1.0184
16015TIP3   OH269459   0.427   0.896   3.649  0.3804 -0.1489  0.0861
16015TIP3    H169460   0.348   0.890   3.703  1.2343  0.0629  1.3568
16015TIP3    H269461   0.411   0.833   3.578  0.2873 -2.2373  1.8892
16016TIP3   OH269462   2.921   5.920  11.911  0.3987  0.1337  0.5420
16016TIP3    H169463   2.872   5.838  11.919  0.3072  0.1730  0.3911
16016TIP3    H269464   2.871   5.972  11.848  0.2419  0.4625  0.9294
16017TIP3   OH269465   5.770   5.326  13.306 -0.3480 -0.1624 -0.2048
16017TIP3    H169466   5.844   5.266  13.305 -1.1368 -1.1751  0.5961
16017TIP3    H269467   5.808   5.413  13.319  0.6546 -0.7233  0.6011
16018TIP3   OH269468   1.886   6.639  14.944 -0.2921 -0.0259  0.1061
16018TIP3    H169469   1.869   6.725  14.983  0.7568  1.3581 -2.4091
16018TIP3    H269470   1.973   6.646  14.906 -1.5366 -0.9938 -3.1690
16019TIP3   OH269471   6.375   5.624  12.801  0.1293 -0.5780  0.0793
16019TIP3    H169472   6.386   5.712  12.764 -0.0283 -0.6169 -0.0647
16019TIP3    H269473   6.292   5.594  12.765  0.7193 -1.2235 -0.7660
16020TIP3   OH269474   0.502   6.428  13.026  1.2572 -0.2520  0.0939
16020TIP3    H169475   0.577   6.369  13.040  0.8293 -0.3549  2.0493
16020TIP3    H269476   0.511   6.495  13.093 -0.2041 -0.0636  0.1221
16021TIP3   OH269477   3.315   0.729   0.811  0.1050  0.2373  0.7248
16021TIP3    H169478   3.228   0.691   0.824  0.1000  0.4981  1.4475
16021TIP3    H269479   3.348   0.685   0.732  0.1106 -1.3043  1.5648
16022TIP3   OH269480   5.110   5.836  11.938  0.1801 -1.1300  0.6804
16022TIP3    H169481   5.144   5.921  11.964 -1.8179 -0.0022 -0.2187
16022TIP3    H269482   5.149   5.819  11.852 -0.6471 -0.3389  0.1329
16023TIP3   OH269483   5.416   3.746  11.977  0.3962 -0.1327  0.3874
16023TIP3    H169484   5.388   3.762  11.887 -1.4740 -1.4969  0.7010
16023TIP3    H269485   5.511   3.740  11.972  0.3412  0.2064 -1.4296
16024TIP3   OH269486   3.666   2.330   0.478  0.0164  0.3141 -0.0509
16024TIP3    H169487   3.695   2.239   0.482  0.8009  0.5915  0.9064
16024TIP3    H269488   3.626   2.339   0.391  2.0543 -0.3413 -1.1110
16025TIP3   OH269489   5.386   6.552  12.162 -0.3367  0.0133  0.2132
16025TIP3    H169490   5.450   6.594  12.105 -2.6266  1.2327 -1.5322
16025TIP3    H269491   5.413   6.578  12.251  0.5384  1.9602 -0.5891
16026TIP3   OH269492   2.575   0.985   0.646 -0.0380 -0.9280  0.3672
16026TIP3    H169493   2.625   0.925   0.701  1.8610 -1.3519 -1.7708
16026TIP3    H269494   2.486   0.950   0.647  0.3333 -1.8453  1.8623
16027TIP3   OH269495   5.859   3.218   4.907  0.2313  0.3811 -0.4032
16027TIP3    H169496   5.827   3.308   4.901  2.2028  0.9862 -2.9844
16027TIP3    H269497   5.950   3.227   4.937 -0.0952 -0.8854  1.0422
16028TIP3   OH269498   3.162   4.257  15.195  0.0626  0.8186 -0.1669
16028TIP3    H169499   3.192   4.294  15.278  0.1775  0.7764 -0.1891
16028TIP3    H269500   3.110   4.180  15.221  2.2663 -0.7275 -0.2196
16029TIP3   OH269501   2.189   2.244  11.799 -0.0658  0.5368  0.9334
16029TIP3    H169502   2.266   2.214  11.847  1.3733 -0.0607 -1.6741
16029TIP3    H269503   2.218   2.324  11.755 -0.6209 -0.2063 -0.8209
16030TIP3   OH269504   1.002   6.471   3.062 -0.0750  0.4770 -0.0692
16030TIP3    H169505   1.015   6.419   3.142 -1.7133 -0.2167 -0.2309
16030TIP3    H269506   0.914   6.447   3.032 -0.6743  2.9458 -0.4509
16031TIP3   OH269507   3.083   1.712  10.992 -0.0910 -0.2572  0.3681
16031TIP3    H169508   3.021   1.779  11.020 -1.7908 -2.3775  1.8891
16031TIP3    H269509   3.032   1.654  10.935  1.1372 -0.7197 -0.2896
16032TIP3   OH269510   2.254   6.315   4.172  0.4436 -0.0140  0.3317
16032TIP3    H169511   2.247   6.233   4.220 -0.4726  0.0104  0.2366
16032TIP3    H269512   2.171   6.360   4.187  0.7448  0.6741 -0.0234
16033TIP3   OH269513   0.702   4.245   3.210 -0.7231 -0.3228 -0.6209
16033TIP3    H169514   0.737   4.259   3.298 -1.4093 -0.0415 -0.3952
16033TIP3    H269515   0.712   4.330   3.166 -2.9851  0.3432  0.0943
16034TIP3   OH269516   1.835   4.861  16.104 -0.2589 -0.0956  0.1238
16034TIP3    H169517   1.760   4.801  16.112  0.4864 -1.1692 -0.6983
16034TIP3    H269518   1.842   4.876  16.009 -1.4201  2.5881  0.4371
16035TIP3   OH269519   1.433   3.329  13.735  0.0278  0.1233  0.4479
16035TIP3    H169520   1.526   3.343  13.715 -0.1263  1.3051  0.4935
16035TIP3    H269521   1.396   3.417  13.736 -1.3613 -0.4368 -0.8153
16036TIP3   OH269522   1.201   1.886  16.215 -0.1114  0.0635  0.2479
16036TIP3    H169523   1.128   1.836  16.179 -0.5508 -0.7433  2.1970
16036TIP3    H269524   1.175   1.978  16.203 -0.1089 -0.1564 -1.6929
16037TIP3   OH269525   2.879   1.459   1.070 -0.2572  0.0631  0.0856
16037TIP3    H169526   2.785   1.464   1.051 -0.2264  1.0028  0.1883
16037TIP3    H269527   2.921   1.499   0.994  0.0352  0.2343  0.3362
16038TIP3   OH269528   5.619   2.044   3.615  0.4507 -0.0230  0.2194
16038TIP3    H169529   5.573   1.991   3.680  0.4531 -0.6306 -0.2695
16038TIP3    H269530   5.600   2.134   3.640 -3.8347 -0.2047 -1.8929
16039TIP3   OH269531   5.422   4.206   3.775 -0.2078 -0.0929 -0.2124
16039TIP3    H169532   5.450   4.134   3.718 -0.5849  0.3002 -0.8986
16039TIP3    H269533   5.328   4.192   3.788 -0.6266  1.2121 -1.7170
16040TIP3   OH269534   3.056   5.550  15.178  0.1718 -0.8943  0.2610
16040TIP3    H169535   2.979   5.606  15.194  1.6737  0.7497  1.9999
16040TIP3    H269536   3.030   5.496  15.104 -1.0764  2.7070 -2.1052
16041TIP3   OH269537   3.797   1.745  13.689  0.7508 -0.0106 -0.4066
16041TIP3    H169538   3.814   1.821  13.745 -0.0874 -0.4380  0.4488
16041TIP3    H269539   3.730   1.773  13.628 -0.5135 -0.4389  0.7549
16042TIP3   OH269540   3.139   2.339  14.650 -0.0199 -0.2055  0.5645
16042TIP3    H169541   3.213   2.311  14.704  0.5231 -0.1063 -0.1293
16042TIP3    H269542   3.128   2.268  14.587 -1.5479 -0.9868  1.6790
16043TIP3   OH269543   5.160   4.655   3.255 -0.5665 -0.4486  0.1385
16043TIP3    H169544   5.162   4.702   3.338 -0.7999  1.6474 -1.0153
16043TIP3    H269545   5.075   4.611   3.254 -1.6103  1.5015 -0.0315
16044TIP3   OH269546   6.781   0.745  13.414 -0.2469  0.1139 -0.1243
16044TIP3    H169547   6.855   0.705  13.459  0.6909 -0.6193 -2.2201
16044TIP3    H269548   6.721   0.672  13.397  0.2647  0.0117 -1.6435
16045TIP3   OH269549   5.354   2.338  14.698 -0.6353 -0.3989 -0.5301
16045TIP3    H169550   5.373   2.328  14.791 -0.2777 -1.0515 -0.6635
16045TIP3    H269551   5.320   2.427  14.688  1.1236  0.3258 -0.0783
16046TIP3   OH269552   1.580   1.212  11.637  0.6968 -0.0519 -0.5603
16046TIP3    H169553   1.522   1.262  11.579 -0.2696 -0.0253  0.4101
16046TIP3    H269554   1.638   1.279  11.675  0.7001  0.0663 -0.7732
16047TIP3   OH269555   0.484   5.438   3.585  0.2403  0.5345 -0.2636
16047TIP3    H169556   0.520   5.395   3.507  2.6711  0.1894  1.0241
16047TIP3    H269557   0.481   5.531   3.562 -0.4078  0.2834 -1.2598
16048TIP3   OH269558   0.942   1.757   4.154 -0.0578 -0.0823 -0.3144
16048TIP3    H169559   0.865   1.709   4.184 -1.0164  0.5022 -1.7654
16048TIP3    H269560   0.909   1.815   4.086  1.8196 -0.4894 -1.6309
16049TIP3   OH269561   5.698   3.448   5.012  0.2397  0.2845 -0.4397
16049TIP3    H169562   5.658   3.532   4.990 -0.0078  0.3111  0.1155
16049TIP3    H269563   5.628   3.384   5.002  0.0483  0.3334  0.5465
16050TIP3   OH269564   1.327   4.896   4.957  0.0210 -0.3230  0.0428
16050TIP3    H169565   1.364   4.983   4.970  0.5152 -0.7044  1.1825
16050TIP3    H269566   1.396   4.847   4.910  0.3098 -0.5326  0.6841
16051TIP3   OH269567   2.910   3.706  12.593 -0.8322 -0.0605  0.1515
16051TIP3    H169568   2.898   3.795  12.625 -1.6332  0.3435 -1.2744
16051TIP3    H269569   2.945   3.715  12.505 -4.5280 -1.0473 -1.5298
16052TIP3   OH269570   5.722   4.230   5.752  0.1876  0.0549  0.9001
16052TIP3    H169571   5.633   4.243   5.720  0.0635  0.4903  1.4256
16052TIP3    H269572   5.767   4.312   5.732  0.7424 -0.5200 -0.2567
16053TIP3   OH269573   0.120   4.194  12.063 -0.2076  0.4773  0.7847
16053TIP3    H169574   0.072   4.125  12.110 -2.1790 -0.2181 -2.1165
16053TIP3    H269575   0.063   4.270  12.067 -0.0906  0.6056  0.0871
16054TIP3   OH269576   5.766   3.565   2.636 -0.7929  0.0780  0.4170
16054TIP3    H169577   5.708   3.517   2.576 -0.8735 -2.2793  2.3070
16054TIP3    H269578   5.727   3.652   2.641 -0.9914  0.2317 -2.6522
16055TIP3   OH269579   1.225   0.054   2.509  0.1421  0.2288  0.1279
16055TIP3    H169580   1.264   0.079   2.426  1.0657 -1.1235  0.1264
16055TIP3    H269581   1.203  -0.039   2.498  0.5235 -0.0345  1.4671
16056TIP3   OH269582   3.176   1.592  13.377  0.2898 -0.5395 -0.3412
16056TIP3    H169583   3.127   1.511  13.374 -0.1628 -0.2500 -0.9132
16056TIP3    H269584   3.126   1.649  13.435  1.2656 -1.0898  1.0585
16057TIP3   OH269585   5.996   3.603   2.775 -0.2814  0.3666 -0.3709
16057TIP3    H169586   6.038   3.522   2.746  0.5873  1.1167 -1.2435
16057TIP3    H269587   5.911   3.604   2.731 -1.4215 -1.3416  1.6848
16058TIP3   OH269588   2.278   2.706  10.435  0.4364  0.0418 -0.2970
16058TIP3    H169589   2.348   2.691  10.499  0.0545  2.5472  0.7848
16058TIP3    H269590   2.306   2.784  10.388 -1.9424  1.4906  0.6296
16059TIP3   OH269591   1.370   3.906  11.508  0.2781 -0.0328 -0.1570
16059TIP3    H169592   1.367   3.960  11.588  0.3156 -0.2490 -0.0091
16059TIP3    H269593   1.377   3.816  11.540  1.2311 -0.0502 -0.4157
16060TIP3   OH269594   6.546   4.346  11.652  0.3539  0.6214 -0.1850
16060TIP3    H169595   6.507   4.380  11.733 -0.6414  0.7122 -0.6915
16060TIP3    H269596   6.476   4.354  11.587  0.7431 -0.5799 -0.7701
16061TIP3   OH269597   1.675   6.301  13.612  0.4189  0.1436  0.3422
16061TIP3    H169598   1.614   6.334  13.546  0.0556  0.3698  0.7895
16061TIP3    H269599   1.672   6.366  13.682  1.6839  0.5119  0.0755
16062TIP3   OH269600   6.106   5.667   4.651  0.0668  0.0172  0.2895
16062TIP3    H169601   6.126   5.729   4.581 -0.7403  0.2773  0.2830
16062TIP3    H269602   6.163   5.592   4.634  0.9205  0.6793  0.1952
16063TIP3   OH269603   0.525   2.783   2.749  0.3266  0.9729  0.4166
16063TIP3    H169604   0.552   2.722   2.680  1.4738 -2.4481  3.7138
16063TIP3    H269605   0.594   2.849   2.751  1.3004  0.0111 -0.4573
16064TIP3   OH269606   3.465   5.542   5.759  0.0300 -0.6064  0.0292
16064TIP3    H169607   3.534   5.476   5.757  0.0670 -0.5710  0.1563
16064TIP3    H269608   3.414   5.522   5.837 -0.3854 -0.9187 -0.3185
16065TIP3   OH269609   0.631   0.089  14.480  0.0780 -0.0265 -0.2038
16065TIP3    H169610   0.543   0.060  14.457 -0.8210 -0.1044  3.1112
16065TIP3    H269611   0.642   0.171  14.433 -1.8588  0.0921 -0.4940
16066TIP3   OH269612   1.455   1.700  16.537  0.4394 -0.5796 -0.2409
16066TIP3    H169613   1.416   1.702  16.449 -1.4453 -2.0003  0.5429
16066TIP3    H269614   1.409   1.769  16.585  2.3776  1.0850 -0.7052
16067TIP3   OH269615   6.588   0.289   4.269 -0.0960  0.2969  0.4544
16067TIP3    H169616   6.556   0.256   4.353 -0.1640  2.3609  1.2627
16067TIP3    H269617   6.631   0.214   4.228 -0.6603 -0.9001  2.0356
16068TIP3   OH269618   6.194   5.806   4.452 -1.0657 -0.8394  0.3203
16068TIP3    H169619   6.146   5.826   4.371 -0.3518  1.2505  0.3750
16068TIP3    H269620   6.269   5.754   4.423 -0.3235  0.6452 -0.5197
16069TIP3   OH269621   2.214   0.188  15.661  0.0727 -0.1114  0.2787
16069TIP3    H169622   2.200   0.098  15.634 -0.8777  0.2195 -0.3411
16069TIP3    H269623   2.309   0.199  15.658  0.1474 -0.8732 -0.3491
16070TIP3   OH269624   3.153   4.014   0.719  0.0574 -0.5652 -0.7337
16070TIP3    H169625   3.216   4.003   0.791 -0.1722 -1.3685 -0.6465
16070TIP3    H269626   3.189   4.086   0.667 -0.1824  0.5716  0.6236
16071TIP3   OH269627   5.420   5.109   5.065  1.0944 -0.1097 -0.3532
16071TIP3    H169628   5.475   5.158   5.126 -1.0634 -0.0656  1.6512
16071TIP3    H269629   5.436   5.017   5.086  0.9006 -0.1141 -0.2226
16072TIP3   OH269630   0.473   2.714  16.225 -0.0462 -0.0559 -0.2259
16072TIP3    H169631   0.488   2.809  16.227 -0.5051  0.0044  0.3369
16072TIP3    H269632   0.551   2.679  16.181  0.3666  0.5328  0.0191
16073TIP3   OH269633   0.746   5.087  12.351 -0.1725 -0.1897  0.0622
16073TIP3    H169634   0.742   5.136  12.434 -0.1412  1.0781 -0.6717
16073TIP3    H269635   0.808   5.016  12.369 -1.1264 -0.6922  1.5132
16074TIP3   OH269636   1.413   0.449   3.496 -0.2570  0.1252 -0.5020
16074TIP3    H169637   1.501   0.477   3.470 -0.9315  1.6997 -1.1691
16074TIP3    H269638   1.355   0.511   3.453 -1.6612 -0.4351  0.5574
16075TIP3   OH269639   3.345   4.801  14.650  0.7518  0.0826  0.1251
16075TIP3    H169640   3.266   4.747  14.652  1.3929 -0.8906 -0.2434
16075TIP3    H269641   3.347   4.845  14.735 -0.0431 -0.0925  0.2341
16076TIP3   OH269642   1.589   5.469   3.800  0.3855 -0.5324  0.6571
16076TIP3    H169643   1.559   5.435   3.716 -2.3223 -0.3928  1.5302
16076TIP3    H269644   1.602   5.563   3.785  1.9388 -0.8524 -0.1238
16077TIP3   OH269645   5.679   3.043   5.873 -0.6195  0.4751  0.0866
16077TIP3    H169646   5.600   3.096   5.865 -1.5108 -0.9614 -0.8275
16077TIP3    H269647   5.694   3.009   5.785  0.2142 -0.4040  0.5612
16078TIP3   OH269648   6.721   2.387  11.085 -0.7716 -0.0165 -0.0422
16078TIP3    H169649   6.777   2.381  11.007 -0.5848  0.9890  0.0072
16078TIP3    H269650   6.775   2.352  11.156 -1.2917 -1.8532 -0.5240
16079TIP3   OH269651   4.833   4.620   6.309  0.5697  0.0731  0.1822
16079TIP3    H169652   4.849   4.595   6.218  0.7489 -0.0686  0.2525
16079TIP3    H269653   4.800   4.710   6.304 -1.8028 -0.7895 -0.2028
16080TIP3   OH269654   6.768   5.874  13.988  0.0800 -0.2674  0.1855
16080TIP3    H169655   6.743   5.886  14.079 -0.3679 -0.0932  0.0414
16080TIP3    H269656   6.695   5.826  13.949 -0.0353  0.2641 -0.2472
16081TIP3   OH269657   1.419   2.488   6.017 -0.7436 -0.7803 -0.3073
16081TIP3    H169658   1.414   2.547   6.092 -0.2475  0.9790 -1.6064
16081TIP3    H269659   1.510   2.458   6.016  0.5625  2.9474 -2.8977
16082TIP3   OH269660   0.618   3.816   4.771  0.3304 -0.6089 -0.1511
16082TIP3    H169661   0.544   3.755   4.773  0.4595 -0.7519  0.7419
16082TIP3    H269662   0.631   3.841   4.863  1.3408 -0.5315 -0.3014
16083TIP3   OH269663   1.415   1.265   1.559 -0.3282 -0.3575 -0.4279
16083TIP3    H169664   1.353   1.277   1.630 -0.5678 -1.2720 -0.4804
16083TIP3    H269665   1.493   1.228   1.600 -1.7452 -4.3222 -1.1452
16084TIP3   OH269666   5.156   0.844  11.829  0.1678  0.0025 -0.8003
16084TIP3    H169667   5.237   0.839  11.780  0.2290 -0.3402 -0.6725
16084TIP3    H269668   5.088   0.858  11.763  0.3427  0.3988 -0.8946
16085TIP3   OH269669   2.294   5.850   0.109 -0.5300  0.9436 -0.9566
16085TIP3    H169670   2.297   5.945   0.115 -0.7407  0.9283 -0.6138
16085TIP3    H269671   2.233   5.832   0.038 -0.7203  1.0591 -0.8238
16086TIP3   OH269672   5.740   3.573  11.695  0.5672  0.2669  0.5062
16086TIP3    H169673   5.701   3.485  11.692 -1.8141  1.3353 -1.4342
16086TIP3    H269674   5.793   3.578  11.616  0.2353  0.7839  0.3184
16087TIP3   OH269675   3.970   1.932   5.382  0.9268  0.0464 -0.2871
16087TIP3    H169676   3.894   1.914   5.326 -0.3765  2.1178  0.7610
16087TIP3    H269677   4.042   1.944   5.321 -0.2737  1.3112 -1.5084
16088TIP3   OH269678   0.292   3.641  16.263  0.2003 -0.2106 -0.2194
16088TIP3    H169679   0.270   3.550  16.281 -1.4304 -0.2719 -2.3239
16088TIP3    H269680   0.382   3.651  16.295 -0.9509 -1.4230  3.6635
16089TIP3   OH269681   1.810   2.426  15.579  0.4199 -0.1484 -0.1457
16089TIP3    H169682   1.894   2.433  15.533 -0.8382 -2.7955 -3.0030
16089TIP3    H269683   1.781   2.336  15.562 -2.1078  0.1291  2.4071
16090TIP3   OH269684   2.509   3.541  10.878  0.5253  0.1383  0.9210
16090TIP3    H169685   2.529   3.628  10.913  0.9982  0.0463  0.8799
16090TIP3    H269686   2.488   3.488  10.954  0.2991  0.2692  0.9518
16091TIP3   OH269687   0.794   2.106  12.135  0.0442 -0.5372  0.1139
16091TIP3    H169688   0.716   2.119  12.081 -0.2300 -1.0080  0.3984
16091TIP3    H269689   0.775   2.154  12.216 -0.1067 -0.9657  0.3337
16092TIP3   OH269690   1.207   4.315   2.954  0.3054 -0.5220  0.0084
16092TIP3    H169691   1.241   4.402   2.976  0.8807 -0.3151 -1.6070
16092TIP3    H269692   1.113   4.330   2.939  1.0824  0.7074 -4.3745
16093TIP3   OH269693   6.403   2.920  11.187 -0.0558 -0.0968  0.3312
16093TIP3    H169694   6.387   2.853  11.253  0.5988 -1.0919 -0.5093
16093TIP3    H269695   6.316   2.948  11.159 -0.3702  1.1989  2.4452
16094TIP3   OH269696   0.501   0.700   1.491  0.0753 -0.5209  0.5169
16094TIP3    H169697   0.494   0.674   1.400  0.5889 -1.1163  0.6373
16094TIP3    H269698   0.502   0.795   1.490 -0.6245 -0.5230 -0.0402
16095TIP3   OH269699   0.418   2.200   1.208 -0.2430  0.5066  0.0505
16095TIP3    H169700   0.430   2.159   1.293 -0.4206  1.1387  0.3824
16095TIP3    H269701   0.503   2.189   1.164 -0.7667 -1.6058 -0.4877
16096TIP3   OH269702   3.875   2.398   3.197 -0.2277  0.4505 -0.2356
16096TIP3    H169703   3.961   2.438   3.184  0.0160 -0.1640 -0.5500
16096TIP3    H269704   3.870   2.383   3.292  0.4891 -0.5407 -0.3408
16097TIP3   OH269705   5.152   6.604  11.552 -0.1732 -0.1437 -0.0216
16097TIP3    H169706   5.214   6.659  11.504 -0.7808 -0.7820 -1.5658
16097TIP3    H269707   5.107   6.666  11.610 -1.1247  1.1247 -2.0179
16098TIP3   OH269708   3.980   3.150   4.871  0.5469  0.2843 -0.4568
16098TIP3    H169709   3.916   3.099   4.821  1.2813  1.4938 -2.6651
16098TIP3    H269710   4.017   3.087   4.933 -1.0616 -1.0048 -0.7762
16099TIP3   OH269711   4.726   2.589   6.204 -0.0095  0.5067 -0.4853
16099TIP3    H169712   4.741   2.549   6.290 -2.1990 -1.1297 -0.8117
16099TIP3    H269713   4.688   2.675   6.223  0.3858  0.5367  0.1766
16100TIP3   OH269714   3.274   3.762   3.586 -0.5064  0.2841  0.5399
16100TIP3    H169715   3.205   3.826   3.569 -0.6325  0.1246  0.4418
16100TIP3    H269716   3.235   3.678   3.561  0.3484  0.4077 -1.3220
16101TIP3   OH269717   3.484   0.973   3.981 -0.4203 -0.2627 -0.0169
16101TIP3    H169718   3.554   0.941   4.038 -0.7368  0.5215  0.8242
16101TIP3    H269719   3.529   1.014   3.908  0.0321  1.1823  1.0462
16102TIP3   OH269720   1.215   0.147  15.718 -0.0646  0.0843  0.0254
16102TIP3    H169721   1.300   0.131  15.676 -0.9345 -0.1170 -1.6787
16102TIP3    H269722   1.156   0.170  15.647 -1.8169 -1.2399  0.9969
16103TIP3   OH269723   1.086   3.856   2.150 -0.1146 -0.3418 -0.3378
16103TIP3    H169724   1.058   3.904   2.072 -0.3080  0.7480  0.4002
16103TIP3    H269725   1.044   3.901   2.223 -1.3533 -2.4174  0.2763
16104TIP3   OH269726   6.756   2.766  14.891  0.0475  0.0041  0.5532
16104TIP3    H169727   6.792   2.725  14.812 -0.5685 -1.3676  0.9781
16104TIP3    H269728   6.670   2.726  14.901  0.5952 -0.6802  2.5971
16105TIP3   OH269729   3.468   4.721   1.099 -0.3536  0.3442 -0.3879
16105TIP3    H169730   3.497   4.641   1.055 -1.4115  0.0717 -0.6213
16105TIP3    H269731   3.381   4.739   1.061 -0.6262  0.9489  0.5019
16106TIP3   OH269732   0.393   0.997   4.860 -0.4265  0.3703 -0.3628
16106TIP3    H169733   0.475   0.985   4.812 -0.0356 -1.5137  0.7273
16106TIP3    H269734   0.405   1.079   4.908  0.5187  0.4797 -0.7771
16107TIP3   OH269735   2.509   3.985   4.858  0.0758 -0.1198 -0.4218
16107TIP3    H169736   2.427   4.033   4.858 -1.0481 -1.9873 -1.1603
16107TIP3    H269737   2.486   3.897   4.888  2.1083 -0.2064  1.0507
16108TIP3   OH269738   1.957   5.101  16.229  0.0794 -0.0776  0.3028
16108TIP3    H169739   1.939   5.008  16.214  2.0927 -0.7636  2.0020
16108TIP3    H269740   1.950   5.140  16.142 -1.6095 -1.6518 -0.3142
16109TIP3   OH269741   0.091   5.061   0.596  0.4813  0.2587 -0.5591
16109TIP3    H169742   0.163   5.003   0.619  0.6757  0.7634  0.1216
16109TIP3    H269743   0.114   5.095   0.510  1.5511  1.1744  0.0656
16110TIP3   OH269744   4.321   5.407  12.918  0.1101 -0.1367  0.0609
16110TIP3    H169745   4.244   5.357  12.890  0.1936 -0.2612  0.0563
16110TIP3    H269746   4.394   5.347  12.907  0.3457  0.3451 -0.9519
16111TIP3   OH269747   4.955   5.496   3.582 -0.0838  0.2663  0.2919
16111TIP3    H169748   4.983   5.514   3.492 -2.7337  1.9526 -0.2620
16111TIP3    H269749   4.873   5.545   3.592 -0.8253 -1.3976  3.0235
16112TIP3   OH269750   5.381   3.331   2.364  0.0512 -0.0751 -0.1184
16112TIP3    H169751   5.306   3.318   2.422  0.8255 -1.9003  0.5015
16112TIP3    H269752   5.394   3.246   2.321  1.1585  0.4915 -0.9391
16113TIP3   OH269753   1.802   5.841   3.325  0.4256  0.1240  0.6235
16113TIP3    H169754   1.860   5.789   3.270  0.2366 -1.0775  1.5412
16113TIP3    H269755   1.719   5.794   3.323 -0.2555  1.3415  0.0477
16114TIP3   OH269756   5.052   6.304   5.326  0.2734 -0.2389 -0.1504
16114TIP3    H169757   5.026   6.352   5.247 -0.5169 -0.7181 -0.1934
16114TIP3    H269758   5.147   6.305   5.325  0.2670  0.0730 -0.9229
16115TIP3   OH269759   0.985   4.658   1.865  0.1277 -0.7437  0.7571
16115TIP3    H169760   1.055   4.723   1.867 -1.3518  0.8543  1.9628
16115TIP3    H269761   0.981   4.625   1.955 -0.1559 -1.3869  0.5139
16116TIP3   OH269762   0.510   1.354  12.175  0.3318 -0.0709 -0.7892
16116TIP3    H169763   0.537   1.335  12.264 -0.5060  1.0058 -0.2976
16116TIP3    H269764   0.496   1.449  12.174 -3.8110 -0.6003 -0.9071
16117TIP3   OH269765   3.635   2.430  15.648  0.0877  0.4806  0.7976
16117TIP3    H169766   3.598   2.433  15.559 -0.7532  0.3741  1.1398
16117TIP3    H269767   3.572   2.479  15.701  1.1611  1.5329  1.1366
16118TIP3   OH269768   0.638   5.386   2.076  0.0829  0.0050 -0.0288
16118TIP3    H169769   0.687   5.451   2.127 -1.0132  0.5800  0.3022
16118TIP3    H269770   0.608   5.433   1.999 -0.7809 -0.0817  0.2511
16119TIP3   OH269771   3.558   3.898   0.956 -0.1818 -0.6574 -0.0189
16119TIP3    H169772   3.570   3.894   0.861 -2.1690 -0.2375 -0.2990
16119TIP3    H269773   3.565   3.807   0.985  3.0597 -0.5176 -0.2000
16120TIP3   OH269774   4.316   0.285  14.538  0.4777  0.2547  0.0618
16120TIP3    H169775   4.232   0.262  14.499  1.3057 -1.7652 -0.6116
16120TIP3    H269776   4.349   0.355  14.482 -0.7816  1.1100  0.3761
16121TIP3   OH269777   2.527   5.201  17.168 -0.0138 -0.2155 -0.1305
16121TIP3    H169778   2.518   5.250  17.249  3.0685 -0.5454  0.4988
16121TIP3    H269779   2.443   5.157  17.156 -1.5508  2.2601  1.2346
16122TIP3   OH269780   6.228   3.690   2.574 -0.1476 -0.1707  0.0363
16122TIP3    H169781   6.162   3.642   2.624  0.6122 -0.3159  0.9205
16122TIP3    H269782   6.262   3.625   2.512 -0.7358 -0.1281 -0.3403
16123TIP3   OH269783   2.350   3.991   3.505 -0.0753  0.3016  0.1532
16123TIP3    H169784   2.255   3.991   3.492 -0.2162  0.5446  1.1494
16123TIP3    H269785   2.366   4.065   3.564  0.9295  1.3413 -1.3986
16124TIP3   OH269786   1.732   6.093  14.951 -0.6717 -0.2741 -0.2334
16124TIP3    H169787   1.724   6.115  15.043 -2.1900  0.2935 -0.4937
16124TIP3    H269788   1.644   6.069  14.923 -0.3008 -0.1075 -1.6155
16125TIP3   OH269789   6.024   6.294  11.604 -0.0634  0.1251 -0.1171
16125TIP3    H169790   5.959   6.225  11.615  1.3673 -1.3108 -0.3385
16125TIP3    H269791   6.018   6.318  11.511  0.4417 -0.7735 -0.3944
16126TIP3   OH269792   2.648   0.991  15.771  0.3161 -0.0070 -0.2181
16126TIP3    H169793   2.639   0.908  15.723  0.3816  0.0301 -0.2947
16126TIP3    H269794   2.742   1.009  15.769  0.0754  1.2196 -2.1521
16127TIP3   OH269795   2.385   2.813   0.248 -0.4132 -0.1004 -0.4075
16127TIP3    H169796   2.344   2.759   0.315 -2.1101  0.7056 -0.7696
16127TIP3    H269797   2.322   2.812   0.175  0.3047  0.9914 -1.0544
16128TIP3   OH269798   6.678   1.885  14.197 -0.1710 -0.0165  0.2068
16128TIP3    H169799   6.733   1.930  14.134 -0.9597  1.1193  0.3028
16128TIP3    H269800   6.652   1.804  14.154  2.0960 -0.8906  0.4255
16129TIP3   OH269801   5.056   0.752   3.011  0.3062  0.0037 -0.2839
16129TIP3    H169802   4.971   0.738   2.970  0.7233  0.7323 -1.4302
16129TIP3    H269803   5.114   0.776   2.938  1.7728 -1.7009  0.2998
16130TIP3   OH269804   2.669   3.029  12.347 -0.4080  1.0112  0.3115
16130TIP3    H169805   2.621   2.966  12.401  0.8466 -0.6859 -0.5149
16130TIP3    H269806   2.622   3.112  12.359 -2.3592 -0.1800  1.0478
16131TIP3   OH269807   5.415   1.875  15.994  0.2313 -0.2354  0.8189
16131TIP3    H169808   5.494   1.904  16.039  0.1751 -0.4276  1.0412
16131TIP3    H269809   5.438   1.789  15.959 -0.3727 -0.9856  2.2102
16132TIP3   OH269810   3.569   6.409  10.888 -0.0762  0.4044  0.0041
16132TIP3    H169811   3.479   6.442  10.894 -0.3836 -0.7410  2.1987
16132TIP3    H269812   3.572   6.336  10.950  1.3469 -2.0180 -2.8272
16133TIP3   OH269813   6.096   6.678  17.229 -0.0780 -0.4985  0.0748
16133TIP3    H169814   6.022   6.739  17.231 -0.5504 -1.0208 -1.0430
16133TIP3    H269815   6.096   6.643  17.140  0.7333 -1.4762  0.4468
16134TIP3   OH269816   0.419   5.181  14.378 -0.4548 -0.3213  0.5914
16134TIP3    H169817   0.392   5.094  14.347  1.0518  0.0294 -1.7805
16134TIP3    H269818   0.466   5.163  14.459 -1.0927 -1.6241  0.6991
16135TIP3   OH269819   6.675   3.093   4.862 -0.4367  0.0509 -0.0611
16135TIP3    H169820   6.704   3.077   4.772 -2.6943  2.0259 -1.2098
16135TIP3    H269821   6.579   3.091   4.857 -0.5878  0.1640  2.2989
16136TIP3   OH269822   4.703   4.636  12.523 -0.3148 -0.9015  0.0201
16136TIP3    H169823   4.786   4.649  12.568 -0.5681  0.1170  0.2064
16136TIP3    H269824   4.690   4.541  12.524  1.0002 -1.1032 -0.2956
16137TIP3   OH269825   5.908   0.543  15.410  0.9286 -0.5081  0.2980
16137TIP3    H169826   5.819   0.523  15.380  0.6686 -0.1280  0.8070
16137TIP3    H269827   5.964   0.485  15.360  0.1931 -2.4720  1.7071
16138TIP3   OH269828   1.641   0.221  12.777 -0.2273 -0.0631  0.5229
16138TIP3    H169829   1.622   0.167  12.853 -0.8884 -0.2798  0.2147
16138TIP3    H269830   1.555   0.240  12.739  0.1296 -0.5980 -0.6020
16139TIP3   OH269831   2.594   2.108   4.060 -0.2549 -0.1622 -0.0796
16139TIP3    H169832   2.499   2.111   4.055 -0.1594  3.0499 -1.5938
16139TIP3    H269833   2.613   2.080   4.149 -2.6084 -0.5603  0.3183
16140TIP3   OH269834   0.843   6.501  12.096  0.1998 -0.0726 -0.0117
16140TIP3    H169835   0.775   6.504  12.164  2.8550 -0.5430  2.8049
16140TIP3    H269836   0.822   6.423  12.045 -1.2109 -0.3939  1.0112
16141TIP3   OH269837   4.668   0.333  12.560 -0.3012  0.2758  0.1288
16141TIP3    H169838   4.763   0.342  12.555 -0.3937  1.2193 -0.1055
16141TIP3    H269839   4.648   0.258  12.504  0.1607  1.1036 -1.1674
16142TIP3   OH269840   5.108   3.733  14.509 -0.1110 -0.2274 -0.1117
16142TIP3    H169841   5.175   3.677  14.471  0.2514 -0.1662  0.4355
16142TIP3    H269842   5.033   3.723  14.451 -0.0886 -1.3735  0.0432
16143TIP3   OH269843   1.102   0.591  14.516  0.1195 -0.6456  0.0421
16143TIP3    H169844   1.065   0.510  14.553 -2.0178  0.5748  0.6726
16143TIP3    H269845   1.079   0.588  14.423  0.1533 -0.8321  0.0396
16144TIP3   OH269846   2.099   3.473   4.135 -0.5747  0.1342 -0.1441
16144TIP3    H169847   2.147   3.391   4.139 -1.6430 -0.4348  1.8027
16144TIP3    H269848   2.008   3.447   4.126 -0.6561  1.1837 -2.5481
16145TIP3   OH269849   6.679   4.502  12.675  0.2329  0.5134  0.4472
16145TIP3    H169850   6.617   4.458  12.733 -0.0607  0.4273  0.0705
16145TIP3    H269851   6.656   4.471  12.588  1.0549  0.1954  0.3486
16146TIP3   OH269852   5.578   4.015  12.951 -0.1008 -0.1760 -1.0019
16146TIP3    H169853   5.555   4.045  13.039  0.5912  0.3239 -0.9868
16146TIP3    H269854   5.503   4.039  12.897 -0.5798 -0.5944 -0.5219
16147TIP3   OH269855   6.192   1.030  13.900 -0.5918  0.3840 -0.2837
16147TIP3    H169856   6.264   1.039  13.837 -1.2548  0.3285 -1.0642
16147TIP3    H269857   6.177   0.936  13.907 -0.5990  0.3956 -0.1388
16148TIP3   OH269858   0.549   5.363  11.380 -0.1488 -0.6185  0.1514
16148TIP3    H169859   0.544   5.292  11.444  2.1148 -0.3547  0.6783
16148TIP3    H269860   0.600   5.326  11.308 -3.3390 -1.1762 -1.9394
16149TIP3   OH269861   5.409   3.646   2.207  0.1203  0.2324  0.2119
16149TIP3    H169862   5.495   3.686   2.196  0.4928 -0.9944 -1.5765
16149TIP3    H269863   5.427   3.563   2.252 -0.2774  0.5684  0.9935
16150TIP3   OH269864   0.423   3.532   1.638  0.1507  0.1722  0.2357
16150TIP3    H169865   0.386   3.608   1.682  1.9891  2.3883 -1.9530
16150TIP3    H269866   0.359   3.509   1.572  0.6634  1.3240 -0.6788
16151TIP3   OH269867   2.034   0.661  15.947 -0.1322 -0.2804  0.1061
16151TIP3    H169868   2.060   0.590  16.005 -0.5407  0.0112  0.6477
16151TIP3    H269869   2.028   0.620  15.860 -1.2339 -1.1041  0.5565
16152TIP3   OH269870   3.837   6.471   5.036  0.5144  0.7028  0.0879
16152TIP3    H169871   3.820   6.493   5.128 -1.9422 -0.4073 -0.0558
16152TIP3    H269872   3.865   6.379   5.039  2.6682  1.3251 -0.0869
16153TIP3   OH269873   1.801   2.987  16.039 -0.3800 -0.0123  0.3747
16153TIP3    H169874   1.806   3.006  16.132 -0.2125 -1.0543  0.5794
16153TIP3    H269875   1.748   2.907  16.033 -0.0598 -0.1706 -0.3889
16154TIP3   OH269876   2.666   5.610  14.372 -0.1670 -0.0811  0.4209
16154TIP3    H169877   2.600   5.544  14.353  0.7834 -0.9856  0.2292
16154TIP3    H269878   2.628   5.691  14.337 -1.3282 -0.5144  0.6455
16155TIP3   OH269879   2.134   5.539   5.137  0.6582  0.0881 -0.0375
16155TIP3    H169880   2.060   5.494   5.178  0.5855  0.5414  0.3236
16155TIP3    H269881   2.120   5.527   5.043  0.3845 -0.2424  0.0447
16156TIP3   OH269882   3.358   6.460  11.219 -0.3992  0.1239 -0.5965
16156TIP3    H169883   3.379   6.403  11.146 -0.8821  0.1454 -0.7510
16156TIP3    H269884   3.276   6.502  11.195 -0.1709  0.7097 -0.3821
16157TIP3   OH269885   3.372   4.585  13.428 -0.5375 -0.1073 -0.1645
16157TIP3    H169886   3.380   4.585  13.523  0.5158  2.1175 -0.2066
16157TIP3    H269887   3.279   4.598  13.411 -0.5743  0.6567  0.5814
16158TIP3   OH269888   4.527   3.886   3.232  0.2161 -0.1682 -0.3586
16158TIP3    H169889   4.570   3.801   3.236 -0.6196 -0.5938 -0.3481
16158TIP3    H269890   4.433   3.866   3.227  0.1184  0.6834 -2.8342
16159TIP3   OH269891   4.215   3.217  11.614  0.1683  0.0480 -0.2584
16159TIP3    H169892   4.132   3.170  11.616 -0.5146  1.0982 -2.4794
16159TIP3    H269893   4.213   3.275  11.690 -0.7825 -0.5176  0.1476
16160TIP3   OH269894   3.517   4.875  12.029 -0.4262 -0.5122  0.4545
16160TIP3    H169895   3.555   4.821  12.098  0.0962 -0.9441 -0.1594
16160TIP3    H269896   3.488   4.812  11.963 -0.1962 -0.0638 -0.0786
16161TIP3   OH269897   1.037   3.345   0.579 -0.2072 -0.3116 -0.1690
16161TIP3    H169898   1.057   3.438   0.594  2.6656 -0.5335 -2.1932
16161TIP3    H269899   0.963   3.345   0.519  0.1197  0.7014 -0.5830
16162TIP3   OH269900   6.248   3.204   0.545 -0.1830 -0.1203 -0.0255
16162TIP3    H169901   6.152   3.198   0.547 -0.1027 -2.0398 -0.5538
16162TIP3    H269902   6.277   3.145   0.615  0.6275  0.5314  0.2021
16163TIP3   OH269903   3.602   4.748   2.664  0.0176 -0.3535 -0.5379
16163TIP3    H169904   3.646   4.674   2.707 -0.4488 -0.6221 -0.5249
16163TIP3    H269905   3.615   4.821   2.724  0.1930 -0.5007 -0.3938
16164TIP3   OH269906   2.511   5.218  12.689 -0.0745 -0.1194 -0.5283
16164TIP3    H169907   2.565   5.153  12.734 -0.8535  0.8423  1.8839
16164TIP3    H269908   2.421   5.188  12.704 -0.3972  0.9738 -0.2438
16165TIP3   OH269909   5.144   1.543   1.304  0.1364  0.4396 -0.2770
16165TIP3    H169910   5.239   1.533   1.302  0.2123  1.1852 -0.7826
16165TIP3    H269911   5.122   1.575   1.216 -0.6069  0.0585 -0.2308
16166TIP3   OH269912   2.272   1.642  12.622 -0.3348  0.3508 -0.1945
16166TIP3    H169913   2.259   1.548  12.609 -1.1562  0.4282  0.0910
16166TIP3    H269914   2.328   1.648  12.700  0.2451  0.0856 -0.5805
16167TIP3   OH269915   3.599   1.400   2.811  0.3757 -0.3703  0.4500
16167TIP3    H169916   3.609   1.317   2.857  3.0205  0.1558  0.9056
16167TIP3    H269917   3.663   1.458   2.852  0.8994  0.9161 -2.0841
16168TIP3   OH269918   1.120   1.504  14.932 -0.3899 -0.3573  0.3609
16168TIP3    H169919   1.078   1.419  14.918 -0.6483 -0.2333  0.3814
16168TIP3    H269920   1.059   1.567  14.895 -0.1474 -0.1863  0.2475
16169TIP3   OH269921   6.505   0.151   5.783  0.1666 -0.2137 -0.0410
16169TIP3    H169922   6.580   0.185   5.833 -0.5442  0.3382  0.6696
16169TIP3    H269923   6.543   0.119   5.702  0.9902  1.4284 -0.3309
16170TIP3   OH269924   1.000   3.014   2.059  0.1551 -0.1356 -0.0197
16170TIP3    H169925   0.916   3.045   2.025 -0.1304 -1.6798 -0.7878
16170TIP3    H269926   1.024   2.942   2.000  1.8187  0.0269  0.4382
16171TIP3   OH269927   3.868   4.129  15.792  0.1684  0.1988  0.3973
16171TIP3    H169928   3.866   4.039  15.823 -1.8768 -0.0018 -0.2551
16171TIP3    H269929   3.877   4.182  15.871 -0.2948 -0.5088  0.9252
16172TIP3   OH269930   5.436   2.264   3.722 -0.0341 -0.0843  0.5131
16172TIP3    H169931   5.343   2.283   3.713  0.1192  0.3247 -0.1672
16172TIP3    H269932   5.465   2.322   3.793  0.3632  2.0407 -1.3380
16173TIP3   OH269933   1.546   2.568  11.081 -0.2415  0.1005 -0.5662
16173TIP3    H169934   1.539   2.652  11.036 -1.0538  0.6072  0.4642
16173TIP3    H269935   1.455   2.547  11.105  0.1778 -0.0493  0.9774
16174TIP3   OH269936   5.086   5.401  10.870 -1.1734 -0.3236  0.4459
16174TIP3    H169937   5.085   5.390  10.775 -0.1895  0.2578  0.3608
16174TIP3    H269938   5.003   5.443  10.890 -1.3662 -0.4003 -0.1700
16175TIP3   OH269939   3.238   2.785  13.215 -0.0114  0.0933 -0.7420
16175TIP3    H169940   3.228   2.873  13.252  1.7610  0.8249 -1.9243
16175TIP3    H269941   3.152   2.765  13.177  0.2223  2.3248 -2.5720
16176TIP3   OH269942   4.505   5.273   6.419 -0.0754  0.1594  0.1648
16176TIP3    H169943   4.559   5.214   6.366  0.1688 -0.4229  1.0551
16176TIP3    H269944   4.522   5.360   6.382 -0.0499 -0.2589 -0.8327
16177TIP3   OH269945   1.947   3.744  12.849  0.6600  0.0276  0.2264
16177TIP3    H169946   1.998   3.789  12.917  0.0424  0.1798  0.5981
16177TIP3    H269947   2.012   3.715  12.785  1.3050 -0.5542  1.1371
16178TIP3   OH269948   6.430   6.296  15.104  0.1044 -0.0634 -0.1039
16178TIP3    H169949   6.399   6.371  15.155 -0.8012 -0.0794 -0.6139
16178TIP3    H269950   6.351   6.243  15.089  0.8059 -1.2935  0.5493
16179TIP3   OH269951   1.080   3.637   0.297 -0.1326  0.1337 -0.4124
16179TIP3    H169952   1.085   3.729   0.271  0.8803  0.0267 -0.6227
16179TIP3    H269953   1.035   3.639   0.382  0.4727  0.8878 -0.0990
16180TIP3   OH269954   1.217   3.981  13.980  0.4753  0.2986 -0.3669
16180TIP3    H169955   1.222   3.933  13.898  2.1670 -1.0268  0.4773
16180TIP3    H269956   1.285   3.942  14.035  2.0905  3.8424  0.3000
16181TIP3   OH269957   0.268   6.297  14.079  0.5895  0.5160 -0.1446
16181TIP3    H169958   0.254   6.209  14.044 -0.1263  0.0385  1.3142
16181TIP3    H269959   0.330   6.285  14.151 -0.1457  1.0841  0.5900
16182TIP3   OH269960   4.253   2.869  16.117 -0.2576 -0.1538  0.4375
16182TIP3    H169961   4.230   2.878  16.209  1.4287  0.8292  0.7888
16182TIP3    H269962   4.223   2.950  16.076  1.5214  0.6649  0.6942
16183TIP3   OH269963   0.601   0.403  16.085  0.2974  0.2062  0.1307
16183TIP3    H169964   0.634   0.325  16.130  1.1325  1.1538  1.1713
16183TIP3    H269965   0.510   0.381  16.065  1.0328 -1.7682 -1.2592
16184TIP3   OH269966   5.849   0.569  13.874  0.1889 -0.0400 -0.1122
16184TIP3    H169967   5.922   0.560  13.936  0.2932  0.3006 -0.1822
16184TIP3    H269968   5.865   0.653  13.832 -0.5595  0.2965  0.2766
16185TIP3   OH269969   1.385   1.455  15.629 -0.7729 -0.5257  0.1933
16185TIP3    H169970   1.381   1.451  15.725  0.0521 -1.1688  0.2010
16185TIP3    H269971   1.424   1.372  15.603  1.4095  0.7020 -0.5442
16186TIP3   OH269972   4.611   0.279  16.150 -0.3606 -0.3889  0.0120
16186TIP3    H169973   4.594   0.226  16.227 -0.3836 -0.2664  0.0911
16186TIP3    H269974   4.555   0.356  16.160 -0.5415 -0.4852 -0.2441
16187TIP3   OH269975   4.654   4.123  16.900 -0.1740  0.3105 -0.0621
16187TIP3    H169976   4.578   4.134  16.843  0.4005  0.9781 -0.7043
16187TIP3    H269977   4.688   4.211  16.912 -0.2641  0.1702  1.2947
16188TIP3   OH269978   2.687   1.527  15.428  0.0573  0.1834  0.2748
16188TIP3    H169979   2.765   1.580  15.447 -0.1858  0.1249  1.4584
16188TIP3    H269980   2.655   1.499  15.513 -0.1757 -1.3890 -0.3096
16189TIP3   OH269981   5.159   1.711  10.662  0.4953 -0.8171 -0.4756
16189TIP3    H169982   5.077   1.726  10.615 -0.4693 -1.2144  1.0191
16189TIP3    H269983   5.192   1.799  10.682 -1.0936 -0.6196  1.4500
16190TIP3   OH269984   4.284   4.229   1.701  0.0375 -0.0457 -0.2708
16190TIP3    H169985   4.259   4.317   1.727 -0.4638 -0.4037  0.4905
16190TIP3    H269986   4.353   4.241   1.636 -1.3492  0.9237 -1.5738
16191TIP3   OH269987   2.402   4.590  13.427  0.1157 -0.3089  0.5180
16191TIP3    H169988   2.462   4.640  13.483 -0.6832  0.2760  0.8631
16191TIP3    H269989   2.425   4.617  13.338 -0.8633  1.3392  0.7347
16192TIP3   OH269990   5.932   0.551   4.078 -0.7962 -0.3692 -0.1998
16192TIP3    H169991   5.844   0.588   4.075 -0.8752 -0.4735  0.8190
16192TIP3    H269992   5.958   0.557   4.170  0.5817  0.4028 -0.6224
16193TIP3   OH269993   1.600   2.001   5.306 -0.0409  1.0152  0.2635
16193TIP3    H169994   1.692   1.974   5.293 -0.6842 -1.4701  0.5029
16193TIP3    H269995   1.550   1.935   5.258 -1.7163  2.1877  0.4013
16194TIP3   OH269996   2.795   3.242  12.660  0.1368 -0.3832 -0.3077
16194TIP3    H169997   2.872   3.198  12.622  0.8907  0.2649  0.4496
16194TIP3    H269998   2.807   3.233  12.755 -0.8669 -0.5179 -0.1907
16195TIP3   OH269999   4.733   3.883   0.669  0.2911 -0.2698  0.3182
16195TIP3    H170000   4.693   3.928   0.744  0.0953 -0.4806  0.3378
16195TIP3    H270001   4.707   3.792   0.679  2.7231 -0.8762  1.6768
16196TIP3   OH270002   0.531   1.329   5.205 -0.1966  0.1109  0.5335
16196TIP3    H170003   0.553   1.280   5.126  1.0099  0.3977  0.6793
16196TIP3    H270004   0.571   1.278   5.276  1.6991  1.6677  0.6247
16197TIP3   OH270005   6.750   6.706  14.720  0.4498  0.3269 -0.4190
16197TIP3    H170006   6.682   6.766  14.750 -0.0627 -0.9713  1.1002
16197TIP3    H270007   6.784   6.665  14.801  0.8714 -1.3065 -1.3935
16198TIP3   OH270008   6.378   4.766  15.734  0.1500  0.1347 -0.0365
16198TIP3    H170009   6.346   4.839  15.682  0.1433  0.9153  1.0551
16198TIP3    H270010   6.433   4.805  15.802  0.6800 -0.9167  0.1615
16199TIP3   OH270011   4.624   1.186   5.321 -0.3011 -0.1691  0.1811
16199TIP3    H170012   4.540   1.168   5.364  0.8965 -1.7101  1.9478
16199TIP3    H270013   4.654   1.102   5.290  1.0429  0.2132  0.4178
16200TIP3   OH270014   2.120   3.970  10.518 -0.3314 -0.3007 -0.2407
16200TIP3    H170015   2.176   4.031  10.470 -0.6754 -0.0439 -0.3185
16200TIP3    H270016   2.033   4.009  10.514 -0.6163 -0.9624 -0.5653
16201TIP3   OH270017   5.660   1.602  14.207  0.9147 -0.0911 -0.3355
16201TIP3    H170018   5.738   1.567  14.163  1.4656  0.6625  0.0397
16201TIP3    H270019   5.587   1.573  14.151  1.5326  0.0565 -1.2415
16202TIP3   OH270020   2.119   1.176   4.641  0.2405 -0.2176 -0.4381
16202TIP3    H170021   2.140   1.227   4.719  2.6827  0.6780 -1.6270
16202TIP3    H270022   2.072   1.237   4.584 -2.1425 -1.0677  0.5912
16203TIP3   OH270023   4.476   3.238   5.434 -0.4920  0.0825  0.5565
16203TIP3    H170024   4.394   3.196   5.458 -1.3194  1.8137  0.7900
16203TIP3    H270025   4.495   3.299   5.505  0.0655  0.9845 -0.3375
16204TIP3   OH270026   3.562   6.111   6.028  0.0084  0.0436  0.4610
16204TIP3    H170027   3.646   6.076   6.056  0.4392  0.5714 -0.1665
16204TIP3    H270028   3.578   6.144   5.940 -1.6955 -3.1007 -1.1377
16205TIP3   OH270029   2.746   4.628   5.961 -0.5990  0.2913  0.0559
16205TIP3    H170030   2.672   4.688   5.971 -0.3218  0.5484  0.5800
16205TIP3    H270031   2.708   4.549   5.921 -1.3621 -0.0059  1.3489
16206TIP3   OH270032   2.642   5.690  15.613 -0.1252  0.5115 -0.0798
16206TIP3    H170033   2.614   5.627  15.679 -0.7283  1.6594  0.7749
16206TIP3    H270034   2.587   5.766  15.628  2.7771  2.5010  1.0483
16207TIP3   OH270035   1.810   3.984  12.836  0.4500 -0.1546 -0.2516
16207TIP3    H170036   1.861   3.908  12.809  0.9575  0.4128 -0.9102
16207TIP3    H270037   1.760   4.009  12.758 -1.1070 -0.9032  0.4720
16208TIP3   OH270038   5.796   2.780  12.038  0.5684  0.1176  0.3343
16208TIP3    H170039   5.818   2.843  11.969 -0.8081  0.4391  0.1646
16208TIP3    H270040   5.701   2.770  12.031  0.7366 -1.8719  0.4500
16209TIP3   OH270041   0.053   1.368   3.096  0.1572 -0.1638  0.3002
16209TIP3    H170042  -0.015   1.348   3.032  0.5551 -1.6432  0.3323
16209TIP3    H270043   0.119   1.300   3.084  2.0473  1.7016 -0.3126
16210TIP3   OH270044   4.791   1.664   4.852 -0.1728 -0.2549 -0.1195
16210TIP3    H170045   4.705   1.681   4.891 -0.1948  0.4815 -0.4742
16210TIP3    H270046   4.800   1.569   4.852 -1.2535 -0.3604 -0.6423
16211TIP3   OH270047   6.094   3.852  11.427 -0.3268  0.4026 -0.4335
16211TIP3    H170048   6.188   3.848  11.410 -0.3720 -0.1960 -0.5340
16211TIP3    H270049   6.083   3.928  11.484 -0.0647  2.0333 -2.4684
16212TIP3   OH270050   0.523   6.478   5.413  0.5767  0.2253  0.1926
16212TIP3    H170051   0.449   6.439   5.458  0.2095  0.1209 -0.4921
16212TIP3    H270052   0.589   6.408   5.412  0.1255 -0.1958 -0.5367
16213TIP3   OH270053   6.405   4.730  16.224 -0.4325  0.2595  0.2734
16213TIP3    H170054   6.477   4.724  16.286  1.7330 -0.5144 -2.1891
16213TIP3    H270055   6.347   4.797  16.260  0.9057  0.0564  2.9100
16214TIP3   OH270056   0.344   3.123  13.712  0.6362 -0.1191 -0.3142
16214TIP3    H170057   0.324   3.032  13.735  0.2293  0.0945  0.2014
16214TIP3    H270058   0.273   3.173  13.752  1.6775  0.5698  0.6920
16215TIP3   OH270059   0.144   2.757   0.484 -0.1383  0.0451  0.2168
16215TIP3    H170060   0.161   2.748   0.578 -1.0192 -2.3554  0.1929
16215TIP3    H270061   0.049   2.748   0.477  0.0499 -1.1373 -1.0212
16216TIP3   OH270062   3.797   4.358   1.487  0.2256 -0.0951  0.3883
16216TIP3    H170063   3.881   4.404   1.490  0.7117 -1.0391  1.8111
16216TIP3    H270064   3.753   4.394   1.410  1.5903  1.0005  0.0909
16217TIP3   OH270065   3.826   4.679  15.496 -0.6523  0.7389  0.1028
16217TIP3    H170066   3.791   4.590  15.493 -2.0128  1.2778 -0.3007
16217TIP3    H270067   3.760   4.728  15.545  0.2505  1.4644  0.6073
16218TIP3   OH270068   6.579   2.028   0.763 -0.5682  0.0843 -0.8961
16218TIP3    H170069   6.634   2.029   0.842 -0.8233  0.6508 -0.7235
16218TIP3    H270070   6.493   2.058   0.794 -0.9273 -0.6182 -1.2000
16219TIP3   OH270071   3.915   3.406   3.996  0.3099 -0.6172  0.4045
16219TIP3    H170072   3.844   3.470   4.008  1.1427  0.6045 -1.0244
16219TIP3    H270073   3.989   3.445   4.043  0.6528 -0.8359  0.0396
16220TIP3   OH270074   4.410   0.777   3.840 -0.0320  0.2698 -0.2659
16220TIP3    H170075   4.335   0.723   3.866 -0.1192 -0.1455 -1.3678
16220TIP3    H270076   4.378   0.867   3.846 -0.0746  0.1820  0.9726
16221TIP3   OH270077   1.474   4.014  16.697  0.3915 -0.1840 -0.4287
16221TIP3    H170078   1.408   4.061  16.647  0.0061  0.3117  0.5260
16221TIP3    H270079   1.557   4.052  16.670 -0.0415  2.3585  1.6740
16222TIP3   OH270080   5.690   4.700  11.315 -0.0444  0.0950  0.1896
16222TIP3    H170081   5.688   4.636  11.386 -2.5439  0.6570  0.6723
16222TIP3    H270082   5.685   4.648  11.235 -4.2401 -0.3469  0.6128
16223TIP3   OH270083   4.256   5.211   2.504  0.5673  0.1589 -0.1114
16223TIP3    H170084   4.248   5.306   2.509  0.0740  0.1464 -0.6682
16223TIP3    H270085   4.342   5.193   2.542  1.0116  0.8975 -0.7418
16224TIP3   OH270086   0.641   3.094  12.254  0.7383  0.1814  0.5550
16224TIP3    H170087   0.656   3.138  12.170  0.9476 -0.1603  0.4123
16224TIP3    H270088   0.556   3.052  12.245  0.7719  0.1247  0.5073
16225TIP3   OH270089   3.144   3.224   3.842  0.2726  0.1079 -0.3353
16225TIP3    H170090   3.210   3.253   3.779 -1.0783  0.9637 -1.3918
16225TIP3    H270091   3.091   3.161   3.793  0.0338 -0.2489  0.3760
16226TIP3   OH270092   3.688   0.282  10.847  1.2531 -0.9183 -0.6259
16226TIP3    H170093   3.728   0.341  10.783  0.3608 -0.1437 -0.4693
16226TIP3    H270094   3.612   0.245  10.803  0.0800  0.3424  0.2914
16227TIP3   OH270095   2.162   4.606   5.630  0.6943  0.1353  0.4204
16227TIP3    H170096   2.164   4.694   5.593 -1.9746 -1.4028 -3.7149
16227TIP3    H270097   2.249   4.570   5.611 -0.0998 -0.0617 -3.2472
16228TIP3   OH270098   1.962   2.512   0.953  0.1300 -0.5504  0.5158
16228TIP3    H170099   1.898   2.545   1.016  0.6765 -1.4288  1.5394
16228TIP3    H270100   2.013   2.447   1.002  1.4042 -0.3039 -0.4576
16229TIP3   OH270101   6.527   0.180   0.017  0.1104 -0.0238  0.5041
16229TIP3    H170102   6.465   0.108   0.022 -0.2260  0.2020 -0.3600
16229TIP3    H270103   6.473   0.259   0.023  0.4703  0.1625  1.3918
16230TIP3   OH270104   1.703   2.953   3.280  0.2024  0.2786 -0.3368
16230TIP3    H170105   1.748   2.960   3.364  1.4046 -1.4660 -0.8122
16230TIP3    H270106   1.672   2.862   3.277 -0.5251  0.5580 -1.4244
16231TIP3   OH270107   1.216   0.764  12.307  0.4569  0.0538 -0.1200
16231TIP3    H170108   1.260   0.746  12.224  0.4746 -0.5754  0.0196
16231TIP3    H270109   1.287   0.788  12.367  0.3752  1.1510 -0.4496
16232TIP3   OH270110   6.157   4.997   0.176 -0.1278 -0.0335  0.4787
16232TIP3    H170111   6.084   5.040   0.221  0.1865 -1.1531  2.0888
16232TIP3    H270112   6.196   4.940   0.242  1.1539 -0.7343 -0.8550
16233TIP3   OH270113   5.429   1.091   4.948  0.9386 -0.6540 -0.3967
16233TIP3    H170114   5.492   1.067   5.016  1.4837 -1.2596 -1.1094
16233TIP3    H270115   5.467   1.170   4.908  1.3759 -1.1616 -0.9916
16234TIP3   OH270116   5.574   0.279   2.009 -0.0669  0.0911 -0.0425
16234TIP3    H170117   5.647   0.309   1.955 -0.1021  1.0059  0.4046
16234TIP3    H270118   5.615   0.239   2.085 -0.0299 -0.0076 -0.1138
16235TIP3   OH270119   3.462   1.903  12.534 -0.3972 -0.5125  0.2069
16235TIP3    H170120   3.398   1.835  12.510 -0.5229 -0.4661  0.4057
16235TIP3    H270121   3.447   1.973  12.471 -1.1955 -0.1050  0.8414
16236TIP3   OH270122   6.149   1.358   0.128  0.5339 -0.3202  0.0890
16236TIP3    H170123   6.132   1.325   0.217  0.3290  0.4988  0.3594
16236TIP3    H270124   6.225   1.415   0.138  0.2744  0.0770 -0.1916
16237TIP3   OH270125   2.061   3.116  16.057  0.3794 -0.1062  0.4385
16237TIP3    H170126   1.983   3.087  16.009  0.3284  2.1785 -0.9200
16237TIP3    H270127   2.033   3.118  16.148 -0.1760 -2.3673  0.3535
16238TIP3   OH270128   2.613   0.893   1.699  0.3659  0.0436 -0.2672
16238TIP3    H170129   2.552   0.824   1.673 -0.1930 -0.6018  2.5370
16238TIP3    H270130   2.696   0.848   1.712  1.0892  0.6607 -2.5571
16239TIP3   OH270131   6.293   1.762   5.027 -0.2859  0.2238 -0.7894
16239TIP3    H170132   6.328   1.678   4.999 -0.6445  0.0320 -0.6537
16239TIP3    H270133   6.234   1.741   5.099 -0.4793  0.5777 -0.8448
16240TIP3   OH270134   3.193   4.522  12.472 -0.2162  0.1684 -0.2348
16240TIP3    H170135   3.214   4.550  12.382 -3.3817  1.1870 -0.7108
16240TIP3    H270136   3.120   4.461  12.462 -1.1790  0.9685  1.6997
16241TIP3   OH270137   6.451   5.381  17.138 -0.0891 -0.1118 -0.4494
16241TIP3    H170138   6.375   5.351  17.188 -0.0465  0.9334  0.2652
16241TIP3    H270139   6.415   5.406  17.053 -0.5875  0.6278 -0.0238
16242TIP3   OH270140   0.205   6.323   4.828  0.2185  0.1535  0.6541
16242TIP3    H170141   0.205   6.415   4.804 -0.5400 -0.1412 -0.5089
16242TIP3    H270142   0.141   6.282   4.770  0.4638 -1.0899  1.2238
16243TIP3   OH270143   1.003   3.463   2.911 -0.0772 -0.3316  0.5794
16243TIP3    H170144   0.921   3.444   2.957 -0.5856 -1.1008 -0.6414
16243TIP3    H270145   0.980   3.530   2.847  0.4789  0.2261  0.9608
16244TIP3   OH270146   5.575   3.025  15.259 -0.7013  0.1305  0.5990
16244TIP3    H170147   5.482   3.007  15.273 -0.3456 -1.4775  1.0511
16244TIP3    H270148   5.576   3.096  15.196 -2.2435 -0.5525 -0.2388
16245TIP3   OH270149   0.565   2.522  13.194 -0.0952  0.4368  0.4840
16245TIP3    H170150   0.547   2.428  13.184 -1.1752  0.6596  0.2968
16245TIP3    H270151   0.661   2.527  13.197 -0.0150 -0.6469  0.2513
16246TIP3   OH270152   5.272   1.451   3.296 -0.7916 -0.5546 -0.2143
16246TIP3    H170153   5.268   1.543   3.269 -0.5840  0.2103  2.2937
16246TIP3    H270154   5.181   1.428   3.317 -0.6319 -0.5175  0.5086
16247TIP3   OH270155   2.239   1.462   3.539 -0.3835 -0.2240  0.3758
16247TIP3    H170156   2.243   1.527   3.469  0.1354 -0.5961  0.0559
16247TIP3    H270157   2.329   1.458   3.573 -0.2852 -1.2113 -0.0064
16248TIP3   OH270158   2.013   2.007   5.918  0.0025 -0.1758  0.7615
16248TIP3    H170159   1.980   1.917   5.919  0.4832 -0.3483  1.0674
16248TIP3    H270160   1.957   2.053   5.981 -2.0305  0.3837 -1.3714
16249TIP3   OH270161   0.048   3.507   6.433  0.1466 -0.1523 -0.0022
16249TIP3    H170162   0.066   3.566   6.507 -0.3108 -0.5303  0.4155
16249TIP3    H270163  -0.047   3.512   6.422  0.1567 -0.5008 -0.2312
16250TIP3   OH270164   0.860   0.703  16.424  0.3360 -0.0264  0.2671
16250TIP3    H170165   0.933   0.664  16.375  0.2058 -1.7170  1.3490
16250TIP3    H270166   0.902   0.763  16.486  0.5897  1.1735 -1.0492
16251TIP3   OH270167   1.251   1.787  12.049 -0.3811  0.3475 -0.2316
16251TIP3    H170168   1.229   1.859  11.990 -0.2751  0.0256 -0.6658
16251TIP3    H270169   1.166   1.752  12.076 -0.4231 -0.1768 -1.0224
16252TIP3   OH270170   4.800   1.558  17.095  0.2113 -0.1568 -0.2815
16252TIP3    H170171   4.819   1.483  17.038  0.7772 -0.3508  0.1602
16252TIP3    H270172   4.877   1.565  17.151 -0.3239  0.0705  0.4259
16253TIP3   OH270173   3.792   6.081  14.619  0.9164 -0.0611 -0.0502
16253TIP3    H170174   3.799   6.004  14.676  0.2528  0.1957  0.3903
16253TIP3    H270175   3.842   6.149  14.665 -0.8364  0.5663  0.9872
16254TIP3   OH270176   1.347   2.399  16.601 -0.3197 -0.2169 -0.0732
16254TIP3    H170177   1.277   2.435  16.547 -0.1421 -0.6095 -0.5649
16254TIP3    H270178   1.339   2.304  16.590  1.1150 -0.2245 -1.1825
16255TIP3   OH270179   2.506   2.042   1.685 -0.3662  0.2542  0.2341
16255TIP3    H170180   2.556   2.050   1.604 -3.2594  1.8371 -1.5076
16255TIP3    H270181   2.566   2.070   1.754  2.1149 -1.0394 -1.3505
16256TIP3   OH270182   4.104   5.011   4.618 -0.1068  0.1344 -0.0545
16256TIP3    H170183   4.172   5.048   4.562 -0.1159 -0.9830 -0.8256
16256TIP3    H270184   4.147   4.938   4.662 -0.9439 -0.9758 -1.0193
16257TIP3   OH270185   2.145   4.779   4.270 -0.7574 -0.2211  0.2769
16257TIP3    H170186   2.158   4.721   4.345  1.0289  0.8210  0.8097
16257TIP3    H270187   2.084   4.845   4.301 -0.2083  0.0697  0.7623
16258TIP3   OH270188   3.289   4.180  16.372  0.4829 -0.7092  0.3078
16258TIP3    H170189   3.210   4.219  16.336  1.5595 -0.1129 -1.4647
16258TIP3    H270190   3.258   4.114  16.434 -1.3769  0.0926  0.2396
16259TIP3   OH270191   2.175   5.144   5.274 -0.3584 -0.3035  0.0938
16259TIP3    H170192   2.108   5.164   5.340 -2.4223  0.7677 -2.2519
16259TIP3    H270193   2.218   5.227   5.257  0.7739 -0.7540  0.7080
16260TIP3   OH270194   2.100   0.495  11.981 -0.6972 -0.4054 -0.0155
16260TIP3    H170195   2.180   0.452  11.951 -1.5824 -1.9503 -0.2313
16260TIP3    H270196   2.100   0.482  12.075  0.4034  1.5369  0.2776
16261TIP3   OH270197   1.751   1.824   3.504  0.2442  0.2692 -0.0820
16261TIP3    H170198   1.665   1.864   3.499  0.8653  1.8868  1.6608
16261TIP3    H270199   1.773   1.804   3.413 -1.6759  0.4360 -0.6006
16262TIP3   OH270200   6.697   2.428  17.039  0.3562 -0.1934  0.1065
16262TIP3    H170201   6.706   2.471  17.124 -0.7051 -0.9518  0.6040
16262TIP3    H270202   6.620   2.470  16.999  0.1153 -0.7094  0.0325
16263TIP3   OH270203   6.153   0.500   4.508 -0.1643 -0.0254 -0.1716
16263TIP3    H170204   6.127   0.468   4.594  0.4113  0.3476  0.1407
16263TIP3    H270205   6.115   0.588   4.503  0.9683  0.4912  0.2530
16264TIP3   OH270206   6.751   1.407   1.564  0.0589 -0.2912 -0.1709
16264TIP3    H170207   6.656   1.408   1.574  0.0244  0.7334 -0.5007
16264TIP3    H270208   6.777   1.320   1.592 -1.0484 -0.8305 -0.7714
16265TIP3   OH270209   2.812   4.564  11.036 -0.5755  0.5799 -0.1692
16265TIP3    H170210   2.845   4.647  11.002 -1.7773  0.7779 -0.8597
16265TIP3    H270211   2.780   4.517  10.959  1.5309 -1.2092 -0.0091
16266TIP3   OH270212   0.427   1.904   4.838  0.0500  0.0227 -0.1047
16266TIP3    H170213   0.462   1.857   4.763  1.6128 -2.0331  1.8608
16266TIP3    H270214   0.356   1.957   4.802  0.5934 -1.1110 -2.9656
16267TIP3   OH270215   1.787   3.153   3.121  1.0774 -0.4281 -0.8713
16267TIP3    H170216   1.816   3.193   3.203  0.1562 -0.5931 -0.4546
16267TIP3    H270217   1.746   3.070   3.148 -1.1456  0.4973 -1.2612
16268TIP3   OH270218   3.741   6.505  13.510  0.2176  1.0599 -0.9986
16268TIP3    H170219   3.791   6.516  13.429  0.8650  2.9701 -0.3721
16268TIP3    H270220   3.654   6.538  13.489  0.2834  1.2245 -1.0140
16269TIP3   OH270221   0.164   5.793   2.976 -0.4762 -0.0261 -0.2141
16269TIP3    H170222   0.101   5.823   3.042  0.5316 -0.4502  0.9713
16269TIP3    H270223   0.243   5.773   3.027  0.4370  0.0012 -1.6120
16270TIP3   OH270224   6.043   1.459  11.219  0.5494 -0.0064 -0.0421
16270TIP3    H170225   5.959   1.506  11.226  1.3107  1.6901 -1.8498
16270TIP3    H270226   6.090   1.504  11.149  2.5107 -1.6912  0.1454
16271TIP3   OH270227   4.806   3.302   0.761 -0.0064 -0.1107 -0.0532
16271TIP3    H170228   4.755   3.331   0.837  0.9394  0.6843  0.2872
16271TIP3    H270229   4.763   3.344   0.687  0.4181  0.9367  0.2819
16272TIP3   OH270230   5.849   1.098  15.210 -0.0019  0.7397  0.7629
16272TIP3    H170231   5.765   1.114  15.166 -0.4736 -0.8882  1.0037
16272TIP3    H270232   5.843   1.006  15.238  1.7910  0.6679  0.9457
16273TIP3   OH270233   4.455   2.019   6.487  0.5374  0.1140 -0.4258
16273TIP3    H170234   4.468   2.079   6.413  0.0923  0.4446 -0.2396
16273TIP3    H270235   4.363   2.031   6.511  0.4078 -0.7690 -0.4927
16274TIP3   OH270236   4.482   3.152  14.594 -0.3790  0.6502 -0.0731
16274TIP3    H170237   4.519   3.110  14.671 -1.2529 -1.0707 -0.5728
16274TIP3    H270238   4.531   3.115  14.520 -0.3770  1.3773 -0.4470
16275TIP3   OH270239   5.753   6.476  16.291  0.1521  0.4730 -0.1419
16275TIP3    H170240   5.743   6.419  16.367 -2.3700  0.7538 -0.2211
16275TIP3    H270241   5.794   6.555  16.325  0.1895  0.1054  0.6729
16276TIP3   OH270242   0.121   3.614  17.193 -0.0943 -0.1326  0.1414
16276TIP3    H170243   0.047   3.560  17.164  0.1028 -0.7613  0.7854
16276TIP3    H270244   0.081   3.694  17.226 -0.9077 -2.2502  4.6652
16277TIP3   OH270245   2.999   2.653   1.620  0.5386  0.0354 -0.0454
16277TIP3    H170246   3.075   2.641   1.676 -0.2872 -0.8627  0.9188
16277TIP3    H270247   3.004   2.581   1.557 -0.0197 -0.5937  0.6206
16278TIP3   OH270248   6.333   0.837   4.943  0.3182 -0.1339  0.4275
16278TIP3    H170249   6.299   0.886   5.018 -0.4252  0.8554 -0.5421
16278TIP3    H270250   6.417   0.802   4.973  0.4370  0.9783  1.4311
16279TIP3   OH270251   5.694   0.204  12.728  0.4324 -0.2580  0.0521
16279TIP3    H170252   5.684   0.117  12.688  1.6551  0.7963 -2.6933
16279TIP3    H270253   5.785   0.204  12.760 -0.2933 -0.8039  2.1762
16280TIP3   OH270254   2.402   4.699  14.619 -0.0097 -0.2471  0.8244
16280TIP3    H170255   2.392   4.604  14.611  1.6581 -0.5406  1.9860
16280TIP3    H270256   2.334   4.735  14.562 -0.5778 -2.1353  0.2701
16281TIP3   OH270257   5.300   4.483   3.921 -0.0486 -0.5949  0.1364
16281TIP3    H170258   5.250   4.411   3.884  0.9249 -1.7937  1.0798
16281TIP3    H270259   5.311   4.459   4.013  2.8448 -0.7655 -0.1813
16282TIP3   OH270260   3.925   6.066   0.842  0.2662  0.0656  0.3068
16282TIP3    H170261   3.834   6.088   0.821  0.2947  0.0675  0.1864
16282TIP3    H270262   3.959   6.027   0.761  0.0784 -0.8551  0.6591
16283TIP3   OH270263   1.753   3.832   0.640  0.1001 -0.3846  0.5404
16283TIP3    H170264   1.777   3.877   0.559 -1.7729 -1.5215 -0.6619
16283TIP3    H270265   1.792   3.745   0.632  0.0020 -0.4677  0.9326
16284TIP3   OH270266   4.038   2.132  11.827 -0.1738  0.2360 -0.0861
16284TIP3    H170267   4.090   2.182  11.889 -0.0264 -0.6314  0.5024
16284TIP3    H270268   4.033   2.044  11.865 -0.4695 -0.1825 -1.0689
16285TIP3   OH270269   6.671   6.328   3.592 -0.8205 -0.3723 -0.0683
16285TIP3    H170270   6.671   6.394   3.661 -0.8363  0.1501 -0.5643
16285TIP3    H270271   6.598   6.270   3.614 -0.7218 -0.3021  0.4427
16286TIP3   OH270272   6.057   6.134   0.751  0.2989 -0.8943  0.0702
16286TIP3    H170273   6.055   6.187   0.671 -0.1783  0.2500  0.8348
16286TIP3    H270274   5.974   6.086   0.750 -1.3564  1.8491  1.6921
16287TIP3   OH270275   5.459   4.624   2.211  0.5348 -0.0176 -0.6136
16287TIP3    H170276   5.449   4.545   2.265  1.7360  0.1557 -0.1304
16287TIP3    H270277   5.374   4.635   2.169  0.3587 -1.5781 -0.6844
16288TIP3   OH270278   1.566   6.565   1.041 -0.0059  0.1107  0.5044
16288TIP3    H170279   1.601   6.639   1.091 -0.7431  0.4139  0.5834
16288TIP3    H270280   1.489   6.537   1.090  0.7639 -1.2703  0.9285
16289TIP3   OH270281   4.538   4.100   2.577 -0.2979 -0.0352 -0.1796
16289TIP3    H170282   4.477   4.174   2.586 -0.2925 -0.1031  0.4723
16289TIP3    H270283   4.532   4.074   2.485 -1.2035  0.0015 -0.1297
16290TIP3   OH270284   4.325   2.377   2.143  0.6640 -0.3942 -0.7232
16290TIP3    H170285   4.417   2.372   2.169  0.5660 -0.4637 -0.3845
16290TIP3    H270286   4.290   2.290   2.162 -0.0478  0.3240  1.3616
16291TIP3   OH270287   6.538   2.258   1.315  0.2361 -0.1304 -0.0877
16291TIP3    H170288   6.552   2.326   1.380 -0.0131 -2.9853  3.0833
16291TIP3    H270289   6.444   2.263   1.294 -0.1415 -0.5486  1.4215
16292TIP3   OH270290   5.947   6.150  12.324 -0.1704  0.4782 -0.6349
16292TIP3    H170291   5.910   6.212  12.261 -0.6930  0.4368 -0.3689
16292TIP3    H270292   6.012   6.202  12.372  2.2873 -0.2149 -3.1019
16293TIP3   OH270293   4.969   0.300   2.675 -0.2473 -0.1134  0.3507
16293TIP3    H170294   4.896   0.239   2.687 -0.1602 -0.2975 -0.0257
16293TIP3    H270295   5.026   0.256   2.612  0.2592 -0.0336  0.7505
16294TIP3   OH270296   5.074   2.215   2.127  0.5732 -0.6573 -0.0914
16294TIP3    H170297   5.055   2.215   2.221  0.3455 -1.8931 -0.1242
16294TIP3    H270298   4.994   2.182   2.087  1.9108 -3.7459 -0.4030
16295TIP3   OH270299   2.898   2.955  12.612 -0.7649  0.1011  0.3394
16295TIP3    H170300   2.838   2.882  12.620 -1.3490  0.6263  0.8251
16295TIP3    H270301   2.911   2.967  12.518 -0.3032 -0.9145  0.2695
16296TIP3   OH270302   2.307   5.663  12.814  0.1274 -0.3405  0.3955
16296TIP3    H170303   2.225   5.650  12.765  0.9705  1.1784 -1.4849
16296TIP3    H270304   2.316   5.758  12.820  1.4082 -0.5079  1.1928
16297TIP3   OH270305   5.897   4.129  11.595  0.4990  0.1686  0.6733
16297TIP3    H170306   5.824   4.076  11.562  0.7027  1.6646 -2.4349
16297TIP3    H270307   5.882   4.135  11.689  0.1513 -4.8174  1.0494
16298TIP3   OH270308   4.495   2.313  14.272 -1.0469  0.1645 -0.5037
16298TIP3    H170309   4.546   2.366  14.334 -1.3224  0.3233 -0.4102
16298TIP3    H270310   4.423   2.278  14.325 -2.3284  1.7922 -1.1354
16299TIP3   OH270311   3.373   1.352  14.806  0.7548  0.4056  0.1867
16299TIP3    H170312   3.283   1.343  14.837  0.5986 -2.2131 -0.8975
16299TIP3    H270313   3.365   1.406  14.727 -0.2413 -2.0072 -1.4036
16300TIP3   OH270314   3.202   0.706   4.052 -0.6893 -0.2083  0.1680
16300TIP3    H170315   3.183   0.616   4.024  0.6101 -1.2270  2.4285
16300TIP3    H270316   3.227   0.751   3.971 -0.1435 -2.2134 -0.8159
16301TIP3   OH270317   6.055   6.526  16.507  0.3558 -0.0544 -0.2215
16301TIP3    H170318   6.016   6.441  16.526  2.5771 -0.7189  1.6444
16301TIP3    H270319   6.004   6.588  16.559 -0.2531 -0.4607 -0.3262
16302TIP3   OH270320   3.366   1.342  16.848 -0.3951 -0.1942 -0.4048
16302TIP3    H170321   3.437   1.309  16.904 -0.9444  1.5697  1.3927
16302TIP3    H270322   3.291   1.286  16.869 -0.4584  0.1356  0.2663
16303TIP3   OH270323   3.519   4.482   6.610 -0.6551  0.3574  0.3671
16303TIP3    H170324   3.545   4.546   6.677 -1.6836  0.7771  0.3685
16303TIP3    H270325   3.455   4.528   6.557 -0.6308 -0.3357 -0.2670
16304TIP3   OH270326   3.480   2.182  11.585 -0.0122 -0.5072  0.0061
16304TIP3    H170327   3.575   2.177  11.577  0.3594  1.6606  2.6868
16304TIP3    H270328   3.456   2.106  11.638  0.1428 -1.2391 -0.9454
16305TIP3   OH270329   4.840   0.092  13.777 -0.2725 -0.0514 -0.3750
16305TIP3    H170330   4.796   0.137  13.849  1.8918  1.2933  0.1479
16305TIP3    H270331   4.819   0.144  13.700  0.2070  0.4687 -0.1593
16306TIP3   OH270332   0.690   5.827   3.738 -0.2266 -0.0100  0.0480
16306TIP3    H170333   0.748   5.888   3.692  0.7630 -0.3854  0.7786
16306TIP3    H270334   0.749   5.760   3.772 -0.8123  0.7606  2.6969
16307TIP3   OH270335   5.272   3.734   5.115  0.1635 -0.2050  0.3076
16307TIP3    H170336   5.340   3.683   5.159 -1.7728 -2.6800  0.5697
16307TIP3    H270337   5.270   3.817   5.162  0.3751 -1.5567  2.7952
16308TIP3   OH270338   1.228   1.448  17.060  0.3083 -0.1578  0.0412
16308TIP3    H170339   1.205   1.372  17.114  1.1128 -0.3327  0.1471
16308TIP3    H270340   1.237   1.413  16.972 -0.9219  0.1138 -0.2074
16309TIP3   OH270341   2.139   0.370   5.840 -0.1148  0.3038  0.1302
16309TIP3    H170342   2.139   0.426   5.918  0.8844  0.5750 -0.0606
16309TIP3    H270343   2.142   0.431   5.767 -0.6089  0.0331 -0.1172
16310TIP3   OH270344   4.533   2.429   0.029  0.1343  0.2511  0.1156
16310TIP3    H170345   4.566   2.345   0.060  1.4863  0.6329 -0.2150
16310TIP3    H270346   4.532   2.485   0.107 -1.4202 -0.2660  0.4677
16311TIP3   OH270347   6.406   3.276  13.218  0.6005 -0.2041  0.0258
16311TIP3    H170348   6.431   3.184  13.218  0.9818 -0.1077 -1.3754
16311TIP3    H270349   6.346   3.285  13.292  1.0955 -1.4281  0.5834
16312TIP3   OH270350   1.898   6.360   0.016 -0.0965 -0.2196  0.6569
16312TIP3    H170351   1.988   6.381  -0.010  0.2597 -1.6402  0.7156
16312TIP3    H270352   1.894   6.265   0.016 -1.0766 -0.2091  2.4593
16313TIP3   OH270353   4.205   2.466   5.829 -0.2817 -0.5101 -0.0655
16313TIP3    H170354   4.112   2.486   5.838 -0.1071  0.1513  0.3595
16313TIP3    H270355   4.213   2.422   5.744 -1.0561 -1.0656  0.1497
16314TIP3   OH270356   5.851   6.446   2.239  0.3730  0.2189  0.1875
16314TIP3    H170357   5.941   6.461   2.210  0.5075 -1.2033 -0.1359
16314TIP3    H270358   5.797   6.478   2.167  0.6704 -1.0239 -0.6055
16315TIP3   OH270359   1.449   3.370  15.917 -0.2849  0.3236  0.1208
16315TIP3    H170360   1.381   3.351  15.852 -0.0418  0.7688 -0.2672
16315TIP3    H270361   1.410   3.345  16.000 -0.8523  0.3795 -0.1224
16316TIP3   OH270362   0.237   6.497  15.644  0.6218  0.3314 -0.1240
16316TIP3    H170363   0.292   6.537  15.577 -0.0965 -0.5437 -1.2484
16316TIP3    H270364   0.298   6.470  15.713  1.5734 -0.3035 -1.2057
16317TIP3   OH270365   3.019   2.558   3.654 -0.1058 -0.1137  0.1799
16317TIP3    H170366   3.026   2.491   3.586  1.5121  1.0550 -0.8429
16317TIP3    H270367   3.091   2.539   3.715 -0.9294 -0.5470  1.0340
16318TIP3   OH270368   3.869   5.967  15.480 -0.1120  0.2962 -0.5036
16318TIP3    H170369   3.778   5.973  15.509  0.7324  1.8568  1.9604
16318TIP3    H270370   3.893   5.875  15.496 -0.5394  0.4542  1.1099
16319TIP3   OH270371   2.298   3.774   6.120 -0.2832 -0.0823  0.5815
16319TIP3    H170372   2.240   3.755   6.047  0.1888  0.4569  0.0554
16319TIP3    H270373   2.355   3.698   6.127  1.6114  1.0751 -1.5172
16320TIP3   OH270374   2.017   5.092   5.803 -0.2891  0.0093 -0.3686
16320TIP3    H170375   1.981   5.091   5.892 -3.1236 -3.1883 -1.4497
16320TIP3    H270376   2.085   5.025   5.804  0.7773  1.0713 -0.2399
16321TIP3   OH270377   0.244   6.327  12.964  0.0069  0.1452 -0.1896
16321TIP3    H170378   0.221   6.330  12.872  1.2686 -1.4915 -0.5793
16321TIP3    H270379   0.325   6.377  12.971 -0.3183  0.6412  0.1203
16322TIP3   OH270380   1.778   1.300  15.089  0.0344  0.3641  0.2194
16322TIP3    H170381   1.689   1.264  15.082  0.2135 -0.1140  0.3968
16322TIP3    H270382   1.816   1.285  15.002  0.0420  0.3084  0.2317
16323TIP3   OH270383   5.233   0.604   1.172 -0.7775  0.1464 -0.8071
16323TIP3    H170384   5.175   0.613   1.096 -1.2997 -0.2894 -0.4677
16323TIP3    H270385   5.274   0.518   1.160  1.4980  1.3950 -2.2044
16324TIP3   OH270386   0.470   5.514   2.675  0.2589  0.0252  0.3354
16324TIP3    H170387   0.422   5.595   2.689  0.2641  0.3573 -1.4562
16324TIP3    H270388   0.501   5.489   2.762  0.0318  1.7942  0.9380
16325TIP3   OH270389   2.133   0.948  12.961 -0.1785 -0.2250  0.1226
16325TIP3    H170390   2.062   0.992  13.006 -0.5228 -1.5404  0.9058
16325TIP3    H270391   2.213   0.986  12.998 -0.4736  0.9527 -0.4598
16326TIP3   OH270392   6.657   3.841   3.347 -0.5208 -0.1878  0.2785
16326TIP3    H170393   6.611   3.815   3.268 -1.0295 -0.0511  0.5241
16326TIP3    H270394   6.704   3.921   3.323  1.9181 -1.8838 -0.7804
16327TIP3   OH270395   1.654   4.097  13.405  0.0269 -0.5548  0.4885
16327TIP3    H170396   1.689   4.127  13.321 -0.3988  1.4082  0.9828
16327TIP3    H270397   1.564   4.070  13.386 -1.1092  2.7534  0.8148
16328TIP3   OH270398   6.342   3.258  11.125  0.3333 -0.7156  0.3702
16328TIP3    H170399   6.343   3.196  11.052 -1.6145  1.4184 -1.5839
16328TIP3    H270400   6.428   3.300  11.123  0.4870 -1.0655 -0.3890
16329TIP3   OH270401   2.078   4.641   0.915  0.0908 -0.2000 -0.6995
16329TIP3    H170402   2.167   4.667   0.941  0.1299 -0.9975 -0.0163
16329TIP3    H270403   2.021   4.705   0.957  0.2000 -1.0605  0.8173
16330TIP3   OH270404   0.377   6.638   4.930  0.1530  0.1104  0.1164
16330TIP3    H170405   0.294   6.628   4.884 -0.6222  1.5212  1.1675
16330TIP3    H270406   0.376   6.569   4.997 -0.0643 -0.0138 -0.0152
16331TIP3   OH270407   4.329   5.332   4.642 -0.3401 -0.0489  0.1369
16331TIP3    H170408   4.406   5.386   4.621 -1.2092  1.1480 -0.0087
16331TIP3    H270409   4.325   5.334   4.737 -1.1845  1.3221  0.0865
16332TIP3   OH270410   4.000   5.951   1.107 -0.2661 -0.4721  0.2933
16332TIP3    H170411   3.913   5.923   1.138 -0.6362  2.2047  1.7708
16332TIP3    H270412   3.982   6.002   1.029 -0.1114  0.8703  1.1249
16333TIP3   OH270413   6.042   5.423  16.032 -0.6368  0.1443 -0.5106
16333TIP3    H170414   6.032   5.516  16.052 -0.8645  0.0715 -0.2904
16333TIP3    H270415   5.953   5.389  16.031 -0.5419 -0.1050 -0.4384
16334TIP3   OH270416   2.196   3.150   2.930  0.1504 -0.5681  0.3533
16334TIP3    H170417   2.149   3.220   2.974 -0.8803  0.3138 -2.0659
16334TIP3    H270418   2.146   3.071   2.950 -0.6613 -0.0852  0.2209
16335TIP3   OH270419   2.758   0.691  14.128 -0.2771  0.2388 -0.4326
16335TIP3    H170420   2.752   0.782  14.155  1.3400  0.4853 -0.8438
16335TIP3    H270421   2.731   0.691  14.036  0.9397  0.5317 -0.8080
16336TIP3   OH270422   2.573   3.880  14.218  0.0398  0.2710 -0.0338
16336TIP3    H170423   2.606   3.926  14.140 -0.3982 -0.6084 -0.7505
16336TIP3    H270424   2.495   3.835  14.188 -0.5167  0.4674  1.0996
16337TIP3   OH270425   2.593   0.040   5.331  0.0140 -0.6993 -0.9095
16337TIP3    H170426   2.681   0.079   5.327  0.0577 -0.2547  2.6284
16337TIP3    H270427   2.606  -0.053   5.312  1.5044 -0.9077  1.0110
16338TIP3   OH270428   4.971   3.852  11.495 -0.5501  0.0456  0.1819
16338TIP3    H170429   4.939   3.845  11.405 -0.4782 -0.7904  0.2239
16338TIP3    H270430   4.922   3.925  11.532 -2.3488 -1.1547  0.2121
16339TIP3   OH270431   1.193   0.048   3.548 -0.1854  0.2277  0.0009
16339TIP3    H170432   1.165   0.010   3.632  1.7758  0.2205  0.6728
16339TIP3    H270433   1.150  -0.006   3.482 -1.1031 -0.2841  0.9959
16340TIP3   OH270434   4.452   1.335   2.751  0.0759  0.1326 -0.0385
16340TIP3    H170435   4.388   1.267   2.769  0.9039 -0.7681 -0.4081
16340TIP3    H270436   4.514   1.294   2.691 -0.3367  1.7434 -1.6206
16341TIP3   OH270437   3.818   5.710  15.117  0.6606 -0.6167 -0.7960
16341TIP3    H170438   3.818   5.744  15.027  0.5211  0.5691 -0.3659
16341TIP3    H270439   3.882   5.765  15.162 -0.1014 -0.4481  0.0931
16342TIP3   OH270440   0.266   3.546   3.945  0.1228  0.0605 -0.5776
16342TIP3    H170441   0.323   3.470   3.931 -2.2595 -1.7927 -0.6781
16342TIP3    H270442   0.226   3.529   4.031 -0.4716  1.1711 -0.6347
16343TIP3   OH270443   3.809   3.829   4.979 -0.0161 -0.3149 -0.2736
16343TIP3    H170444   3.771   3.892   5.041 -2.9191 -1.5161 -0.7518
16343TIP3    H270445   3.824   3.750   5.031 -0.0804 -0.5035 -0.5416
16344TIP3   OH270446   4.759   0.538   3.814 -0.1059 -0.1073 -0.2198
16344TIP3    H170447   4.785   0.604   3.877  2.1057  0.0734 -1.2604
16344TIP3    H270448   4.802   0.458   3.843  1.1810  0.0439 -1.6172
16345TIP3   OH270449   1.783   5.355  13.648  0.2937  0.7680 -0.1477
16345TIP3    H170450   1.856   5.337  13.707  0.6214 -0.4445 -0.9083
16345TIP3    H270451   1.735   5.426  13.690  2.5999  2.4174 -0.2456
16346TIP3   OH270452   5.945   6.405   3.564 -0.2904  0.1593  0.2899
16346TIP3    H170453   5.954   6.493   3.526 -0.3772 -0.7737 -1.9613
16346TIP3    H270454   5.939   6.421   3.658  1.8644  2.4245  0.1051
16347TIP3   OH270455   4.867   4.428  11.996  0.1083 -0.0587  0.1385
16347TIP3    H170456   4.794   4.382  12.037  0.6582  0.3202  1.5705
16347TIP3    H270457   4.827   4.484  11.930 -0.7290 -1.2135 -0.3496
16348TIP3   OH270458   3.637   5.229  13.077  0.3945 -0.2615 -0.0109
16348TIP3    H170459   3.610   5.210  13.167  0.0512 -1.5284 -0.3619
16348TIP3    H270460   3.557   5.258  13.033  0.4788 -0.0254 -0.0099
16349TIP3   OH270461   6.076   3.130   0.228 -0.0422  0.5614  0.2105
16349TIP3    H170462   6.008   3.177   0.275 -0.0552  1.0295 -0.2672
16349TIP3    H270463   6.083   3.176   0.144  0.0079 -0.2339 -0.2240
16350TIP3   OH270464   2.840   1.909   3.927  0.4626 -0.0629  0.0024
16350TIP3    H170465   2.928   1.923   3.964  0.4233  1.2061 -0.3616
16350TIP3    H270466   2.784   1.967   3.978  0.1932  0.7507 -1.2252
16351TIP3   OH270467   5.038   1.025   4.624 -0.0725  0.1313  0.3128
16351TIP3    H170468   5.122   1.061   4.598 -0.2551  0.7951  0.6290
16351TIP3    H270469   5.037   1.033   4.720 -0.6408  0.4728  0.2823
16352TIP3   OH270470   3.543   3.836  14.771 -0.2402 -0.1130  0.9435
16352TIP3    H170471   3.575   3.850  14.860  0.5837  2.0461  0.3370
16352TIP3    H270472   3.598   3.892  14.717 -3.1964  1.4846 -0.4827
16353TIP3   OH270473   5.167   5.320  15.509  0.2204 -0.3103  0.2190
16353TIP3    H170474   5.075   5.312  15.485 -0.8129  2.2353  2.9451
16353TIP3    H270475   5.215   5.288  15.433 -2.9023 -2.2162 -1.0424
16354TIP3   OH270476   1.687   4.861  17.099  0.3008  0.7224  0.6279
16354TIP3    H170477   1.702   4.801  17.172 -2.5909  1.1790  1.6796
16354TIP3    H270478   1.678   4.947  17.141 -1.5752  0.9648 -0.2496
16355TIP3   OH270479   5.692   2.627   5.253  0.1913 -0.0559 -0.1330
16355TIP3    H170480   5.691   2.653   5.160  0.9836 -0.8555 -0.3714
16355TIP3    H270481   5.773   2.576   5.262 -0.4177 -0.8624  0.7612
16356TIP3   OH270482   4.616   0.772   5.098 -0.1506 -0.3478 -0.6970
16356TIP3    H170483   4.660   0.849   5.133 -0.6234  0.4398 -1.8020
16356TIP3    H270484   4.666   0.749   5.019 -1.5271  0.4023 -1.8168
16357TIP3   OH270485   1.941   2.714  15.076  0.6135 -0.6283  0.7630
16357TIP3    H170486   1.971   2.623  15.079  0.5637 -0.7022 -0.4951
16357TIP3    H270487   1.846   2.707  15.070  0.6377 -0.5056  0.2343
16358TIP3   OH270488   4.569   6.564   0.140  0.4415 -0.0016 -0.3302
16358TIP3    H170489   4.612   6.481   0.119 -0.5596 -0.6335  0.0779
16358TIP3    H270490   4.501   6.540   0.203 -0.4226  1.0039 -0.8711
16359TIP3   OH270491   3.646   4.714  12.197  0.0035  0.0457  0.1440
16359TIP3    H170492   3.714   4.652  12.171  1.6096  1.3317  1.1883
16359TIP3    H270493   3.693   4.783  12.243 -1.8801  1.5362 -0.1086
16360TIP3   OH270494   4.666   2.229   2.735 -0.1410  0.6003  0.0445
16360TIP3    H170495   4.753   2.264   2.715  0.3035  0.6305  1.9863
16360TIP3    H270496   4.651   2.253   2.826 -0.2624 -3.3589  1.1312
16361TIP3   OH270497   5.407   1.583   1.709  0.0673 -0.5745 -0.3026
16361TIP3    H170498   5.333   1.635   1.737 -0.8825 -2.7207  1.2927
16361TIP3    H270499   5.481   1.618   1.758  0.0529  1.2337 -1.5217
16362TIP3   OH270500   2.815   1.322   1.828  0.1497  0.2092 -0.2180
16362TIP3    H170501   2.756   1.302   1.901  0.5116  0.0142  0.0258
16362TIP3    H270502   2.785   1.267   1.756  0.8200 -0.8270  0.2908
16363TIP3   OH270503   2.501   2.727   5.914  0.1374  0.0243  0.0648
16363TIP3    H170504   2.558   2.793   5.873 -0.7223  1.1291  0.6304
16363TIP3    H270505   2.537   2.716   6.002 -0.7586  1.0228  0.5615
16364TIP3   OH270506   0.646   1.078  15.592 -0.2310  0.3075 -0.0671
16364TIP3    H170507   0.634   0.983  15.582 -1.6074  0.2073  2.2716
16364TIP3    H270508   0.575   1.105  15.650 -0.1986  2.8883 -1.1838
16365TIP3   OH270509   4.931   0.125  14.370  0.4096  0.3042 -0.1240
16365TIP3    H170510   4.943   0.134  14.465  1.6354  1.3109 -0.3695
16365TIP3    H270511   4.865   0.056  14.361  1.3731 -0.8416  1.4226
16366TIP3   OH270512   3.250   4.392   5.128 -0.0468 -0.0488 -0.3791
16366TIP3    H170513   3.334   4.434   5.144 -1.1617  1.8104  0.7662
16366TIP3    H270514   3.253   4.367   5.036  2.0114 -0.6186 -0.1923
16367TIP3   OH270515   1.618   0.662  16.310 -0.0538  0.7267 -0.5592
16367TIP3    H170516   1.665   0.647  16.392 -0.4496  2.1674 -0.0537
16367TIP3    H270517   1.686   0.693  16.249  0.4367 -1.3411 -1.0988
16368TIP3   OH270518   2.512   4.360   5.292  0.2958  0.0053  0.3844
16368TIP3    H170519   2.560   4.405   5.222  1.8101 -1.7644  0.2425
16368TIP3    H270520   2.442   4.421   5.316  0.1211  0.9192 -2.2285
16369TIP3   OH270521   3.646   4.922   4.353  0.0234 -0.1425 -0.8737
16369TIP3    H170522   3.721   4.866   4.374  0.7398  0.2655 -2.2875
16369TIP3    H270523   3.569   4.867   4.371  0.6724 -0.8280 -0.1609
16370TIP3   OH270524   6.635   3.966  15.851 -0.6304 -0.7689 -0.3362
16370TIP3    H170525   6.576   4.029  15.810  0.7592  0.9470  0.1835
16370TIP3    H270526   6.693   3.938  15.781 -1.5841 -1.8826 -0.6847
16371TIP3   OH270527   5.030   4.476  14.052  0.2316 -0.4287  0.4859
16371TIP3    H170528   5.015   4.465  14.146  1.6987  0.0922  0.8050
16371TIP3    H270529   4.947   4.452  14.011 -0.5528 -0.2644  1.9415
16372TIP3   OH270530   5.069   6.305  16.076  0.3215 -0.6648  0.3745
16372TIP3    H170531   4.984   6.317  16.034  1.1177 -0.1634 -1.1471
16372TIP3    H270532   5.073   6.373  16.143 -0.9029 -1.3691  1.1773
16373TIP3   OH270533   6.092   0.014   6.266 -0.2340 -0.1663  0.2036
16373TIP3    H170534   6.097   0.095   6.215 -0.8463 -0.3799 -0.2090
16373TIP3    H270535   6.183  -0.013   6.278  0.0623  1.4139  1.6992
16374TIP3   OH270536   6.522   4.100   3.390 -0.0674 -0.3891  0.1168
16374TIP3    H170537   6.606   4.094   3.344  0.1481 -1.6969  0.6629
16374TIP3    H270538   6.458   4.115   3.321  0.5309 -0.0336 -0.3718
16375TIP3   OH270539   5.945   3.571  12.391  0.0830 -0.2991 -0.5715
16375TIP3    H170540   5.989   3.497  12.349  0.1246 -0.2968 -0.5323
16375TIP3    H270541   5.888   3.607  12.323 -2.2923 -2.2680  0.3149
16376TIP3   OH270542   5.992   4.017  16.624  0.5994 -0.4871 -0.7281
16376TIP3    H170543   5.932   4.057  16.561  0.9025  0.0029 -0.7071
16376TIP3    H270544   6.075   4.062  16.610  0.1630  1.0730  1.3797
16377TIP3   OH270545   0.207   0.753  14.922  0.7367 -0.5447  0.5144
16377TIP3    H170546   0.185   0.833  14.969 -0.4241 -0.4867 -0.1354
16377TIP3    H270547   0.302   0.745  14.932  0.5818 -0.2768  2.4568
16378TIP3   OH270548   2.813   5.813  12.154 -0.4770  0.2370  0.4012
16378TIP3    H170549   2.814   5.901  12.119 -1.0445  0.3255  0.6054
16378TIP3    H270550   2.726   5.803  12.194  0.7009  0.7212  3.2324
16379TIP3   OH270551   1.479   5.023  16.779  0.2660  0.1392  0.4233
16379TIP3    H170552   1.421   5.021  16.703 -0.0945  1.4040  0.6562
16379TIP3    H270553   1.420   5.008  16.853  0.4803 -0.1464  0.5360
16380TIP3   OH270554   4.955   3.231   1.450  0.2282 -0.4032 -0.5002
16380TIP3    H170555   4.937   3.138   1.442  3.0111 -1.0892  0.4820
16380TIP3    H270556   4.970   3.244   1.544  1.6994  0.6357 -0.8549
16381TIP3   OH270557   5.538   0.745  16.731 -0.2210  0.0365 -0.1739
16381TIP3    H170558   5.538   0.811  16.801 -2.2367  0.0517 -0.1754
16381TIP3    H270559   5.571   0.792  16.654  2.1056 -0.0021  0.7477
16382TIP3   OH270560   0.957   0.954   0.617  0.5665 -0.0216  0.1998
16382TIP3    H170561   0.994   0.868   0.598  0.7101  0.0762  0.0294
16382TIP3    H270562   0.908   0.977   0.537 -1.4278 -0.9682  1.1169
16383TIP3   OH270563   5.959   2.168  16.724 -1.3810  0.2146  0.2449
16383TIP3    H170564   6.055   2.171  16.720 -1.3705 -0.9210 -0.6658
16383TIP3    H270565   5.940   2.106  16.794 -1.4333 -0.5485 -0.4364
16384TIP3   OH270566   0.539   5.957   3.950 -0.1464  0.7435 -0.5512
16384TIP3    H170567   0.490   6.013   3.889  0.0120  0.5029 -0.9005
16384TIP3    H270568   0.587   5.897   3.894  1.6507  1.8772 -0.2625
16385TIP3   OH270569   0.151   0.766  15.325 -0.0207 -0.8390  0.9214
16385TIP3    H170570   0.110   0.720  15.252  1.3038 -2.8520  1.4114
16385TIP3    H270571   0.103   0.849  15.331  0.3504 -0.2971 -2.6799
16386TIP3   OH270572   1.679   5.478  17.094 -0.2326 -0.0027 -0.2959
16386TIP3    H170573   1.730   5.464  17.174 -1.0355 -2.2612 -0.1430
16386TIP3    H270574   1.694   5.570  17.072  0.7128  0.4142  1.9487
16387TIP3   OH270575   0.778   1.815  13.414  0.3882  0.1940 -0.0774
16387TIP3    H170576   0.805   1.815  13.322  1.0522  0.6017  0.1114
16387TIP3    H270577   0.687   1.845  13.412  1.7177  4.5822 -0.2576
16388TIP3   OH270578   5.539   0.947  16.927  0.1887  0.0012  0.1443
16388TIP3    H170579   5.633   0.938  16.943  0.4449  0.6052 -0.9623
16388TIP3    H270580   5.518   1.037  16.952  0.1889  0.3026 -0.9178
16389TIP3   OH270581   3.950   3.614   4.233  0.1680  0.3711  0.4726
16389TIP3    H170582   4.022   3.552   4.245 -0.3096 -0.3380 -0.2510
16389TIP3    H270583   3.889   3.593   4.304 -0.2434 -0.3560 -0.0885
16390TIP3   OH270584   5.958   5.384  15.514 -0.3620 -0.4394  0.2308
16390TIP3    H170585   5.975   5.461  15.568  1.0581 -0.6877  0.1435
16390TIP3    H270586   6.031   5.380  15.453 -0.3845 -1.8911  0.2693
16391TIP3   OH270587   6.087   4.914  13.953  0.5821  0.6115 -0.5657
16391TIP3    H170588   6.080   4.930  14.048 -1.4322  0.8750 -0.7323
16391TIP3    H270589   6.041   4.831  13.940  1.8149  0.0137 -1.1743
16392TIP3   OH270590   1.655   2.693   3.163 -0.1258 -0.6224 -0.1672
16392TIP3    H170591   1.709   2.722   3.089  0.7872 -0.4183  0.5832
16392TIP3    H270592   1.571   2.736   3.149  1.0647  2.0159  0.6928
16393TIP3   OH270593   1.878   2.771  15.809 -0.2556  0.1777  0.0206
16393TIP3    H170594   1.962   2.810  15.834 -0.7952  0.7541  0.9959
16393TIP3    H270595   1.830   2.764  15.892 -1.0304 -0.4832 -0.4774
16394TIP3   OH270596   6.380   2.179   2.010  0.4250  0.1662  0.1628
16394TIP3    H170597   6.287   2.161   2.026  0.2526 -1.4318 -2.3149
16394TIP3    H270598   6.383   2.270   1.981 -0.4500  0.0479 -0.3020
16395TIP3   OH270599   2.766   4.680   5.453  0.2423  0.0734  0.3738
16395TIP3    H170600   2.825   4.616   5.492  0.3662  0.6159  1.0816
16395TIP3    H270601   2.758   4.653   5.361 -0.6188 -1.6299  0.9366
16396TIP3   OH270602   5.310   3.502  13.903 -0.0543  0.5248  0.1114
16396TIP3    H170603   5.361   3.494  13.823 -1.6024  2.2908 -1.1061
16396TIP3    H270604   5.344   3.582  13.945  0.6155 -0.2831  1.1240
16397TIP3   OH270605   1.318   3.711  13.334  0.2112  0.1737 -0.2695
16397TIP3    H170606   1.342   3.766  13.259 -1.1543  1.0347 -0.0763
16397TIP3    H270607   1.400   3.700  13.383  0.5214  1.9277 -0.3816
16398TIP3   OH270608   6.638   5.593   1.568  0.4442  0.4846 -0.6313
16398TIP3    H170609   6.710   5.654   1.556 -0.2658  1.5377  0.3581
16398TIP3    H270610   6.582   5.606   1.491  0.0394  1.4546 -0.1802
16399TIP3   OH270611   5.111   4.741   0.742 -0.1012 -0.2984 -0.1286
16399TIP3    H170612   5.069   4.791   0.672  1.6800 -0.3654 -1.3005
16399TIP3    H270613   5.138   4.806   0.806  0.6091  0.0644 -0.7862
16400TIP3   OH270614   0.077   5.269  13.469 -0.9315 -0.0331 -0.7295
16400TIP3    H170615   0.002   5.311  13.509 -0.4222 -0.8037  1.0669
16400TIP3    H270616   0.040   5.194  13.422 -1.3259 -0.1134 -0.2887
16401TIP3   OH270617   0.200   3.150   4.003 -0.2877 -1.0612 -0.4326
16401TIP3    H170618   0.139   3.220   4.025  2.9890  1.5692  0.6776
16401TIP3    H270619   0.251   3.185   3.930  0.4346 -2.8744 -0.8288
16402TIP3   OH270620   1.599   4.539  15.612 -0.0342 -0.5960 -0.2757
16402TIP3    H170621   1.564   4.460  15.654  0.1983  0.5076  2.0808
16402TIP3    H270622   1.674   4.507  15.561  0.1470 -1.8975  0.7593
16403TIP3   OH270623   4.681   0.295  16.875 -0.3676  0.7003 -0.1139
16403TIP3    H170624   4.732   0.248  16.941  0.3326  0.3511 -0.8895
16403TIP3    H270625   4.699   0.388  16.892  2.0095  0.5423 -1.5039
16404TIP3   OH270626   6.214   2.886  17.239 -0.0633 -0.0860 -0.0324
16404TIP3    H170627   6.303   2.919  17.251 -0.2689  0.0662  1.1559
16404TIP3    H270628   6.172   2.951  17.182 -0.1660  1.2235  1.4842
16405TIP3   OH270629   1.852   5.179  12.467 -0.2323  0.0460 -0.2308
16405TIP3    H170630   1.800   5.102  12.444  1.1601 -0.8880 -0.3193
16405TIP3    H270631   1.851   5.232  12.388 -1.2999  0.1905 -0.1314
16406TIP3   OH270632   6.124   0.920   0.242  0.1927  0.2495 -0.3073
16406TIP3    H170633   6.189   0.990   0.244  0.2129  0.2006  0.8912
16406TIP3    H270634   6.076   0.928   0.324  0.8340 -1.7512  0.2820
16407TIP3   OH270635   5.509   3.818  15.807  0.0306  0.7274 -0.6431
16407TIP3    H170636   5.422   3.808  15.769  0.1569  1.7890 -1.2160
16407TIP3    H270637   5.556   3.740  15.778 -1.4361 -1.1286  1.7031
16408TIP3   OH270638   6.357   4.480   3.176  0.4959  0.3097  0.3744
16408TIP3    H170639   6.421   4.515   3.238 -0.7863  0.6193  1.5389
16408TIP3    H270640   6.408   4.423   3.118  1.9938  1.3442  0.6602
16409TIP3   OH270641   5.677   3.244   4.653 -0.3143  0.6894  0.3454
16409TIP3    H170642   5.693   3.224   4.745  2.5299  1.9888  0.2057
16409TIP3    H270643   5.763   3.235   4.612 -1.7263 -0.7567 -2.3786
16410TIP3   OH270644   5.661   4.828  12.082  0.6530  0.8973 -0.2075
16410TIP3    H170645   5.581   4.785  12.113  0.8006  1.7931  1.4712
16410TIP3    H270646   5.665   4.807  11.989 -0.4023 -0.9402  0.1468
16411TIP3   OH270647   1.230   3.679   1.014  0.2419 -0.7775 -0.4671
16411TIP3    H170648   1.141   3.676   1.049 -0.2149  0.5404 -1.4689
16411TIP3    H270649   1.287   3.685   1.091 -0.6613  0.5524  0.1057
16412TIP3   OH270650   0.901   5.086  17.150  0.1360  0.0202  0.0239
16412TIP3    H170651   0.811   5.090  17.119 -0.3112  0.9656  1.4051
16412TIP3    H270652   0.911   4.996  17.182 -0.2726 -0.1247 -0.2475
16413TIP3   OH270653   5.565   0.319  16.960  0.0384 -0.0553  0.7041
16413TIP3    H170654   5.521   0.403  16.955 -0.6896 -0.4015  1.1278
16413TIP3    H270655   5.532   0.280  17.041  0.1983 -0.8319  0.4017
16414TIP3   OH270656   1.397   3.477   1.453 -0.1124 -0.3957 -0.1248
16414TIP3    H170657   1.482   3.436   1.468 -0.8893 -1.3495  1.7479
16414TIP3    H270658   1.339   3.404   1.429 -0.9124 -0.0472  0.7449
16415TIP3   OH270659   6.521   3.705  10.606 -0.7182  0.4477 -1.0618
16415TIP3    H170660   6.600   3.652  10.595 -0.7809 -0.2762  1.4925
16415TIP3    H270661   6.553   3.789  10.637 -0.8835  0.4115 -0.7876
16416TIP3   OH270662   4.194   4.333   0.078  0.6538  0.7253  0.5955
16416TIP3    H170663   4.186   4.295   0.166  1.2636 -1.1019 -0.1055
16416TIP3    H270664   4.116   4.304   0.032 -0.0169  2.2815  0.7364
16417TIP3   OH270665   3.503   2.117   6.326  0.2341 -0.0416 -0.0685
16417TIP3    H170666   3.431   2.148   6.381 -0.5256 -1.7783 -0.0315
16417TIP3    H270667   3.564   2.191   6.322 -0.8662  0.9615  1.0780
16418TIP3   OH270668   4.623   3.147  15.029  0.2321  0.4595 -0.9046
16418TIP3    H170669   4.682   3.140  15.103 -0.5934  0.2106 -0.2546
16418TIP3    H270670   4.659   3.087  14.963  0.9167  0.6125 -0.6654
16419TIP3   OH270671   4.781   5.942  13.141 -0.3103 -0.1103 -0.0517
16419TIP3    H170672   4.793   5.942  13.046 -0.8253  0.8228 -0.1182
16419TIP3    H270673   4.745   5.855  13.160 -0.8800 -0.0425 -0.7991
16420TIP3   OH270674   6.537   5.437  14.382  0.1188  0.1136 -0.4481
16420TIP3    H170675   6.570   5.506  14.440  1.6234  1.2814 -2.5819
16420TIP3    H270676   6.524   5.361  14.438  1.7107  1.1511  1.3746
16421TIP3   OH270677   4.317   2.523  13.302  0.6373 -0.2174  0.4688
16421TIP3    H170678   4.365   2.479  13.231  1.1640 -2.0597  1.9411
16421TIP3    H270679   4.231   2.483  13.302  1.0554 -1.1377  1.6946
16422TIP3   OH270680   5.251   5.809   2.658 -0.2095 -0.3574  0.0175
16422TIP3    H170681   5.189   5.738   2.673 -1.7869  0.6327 -1.5676
16422TIP3    H270682   5.203   5.872   2.605  1.3244  1.6772  0.9680
16423TIP3   OH270683   2.567   3.549   0.765  0.7666 -0.0475 -0.2062
16423TIP3    H170684   2.478   3.517   0.779  0.2274  1.7115  0.5712
16423TIP3    H270685   2.595   3.506   0.684 -1.9365  1.7022 -2.1653
16424TIP3   OH270686   3.065   2.307  15.544  0.0783  0.6745 -0.4655
16424TIP3    H170687   3.017   2.233  15.506 -1.2524  1.5005 -0.4264
16424TIP3    H270688   3.014   2.331  15.621  2.1172 -0.2493  1.2293
16425TIP3   OH270689   2.429   5.563   3.117  0.6946 -0.8975  0.2741
16425TIP3    H170690   2.487   5.542   3.044  1.0975  0.9375  0.0264
16425TIP3    H270691   2.342   5.566   3.078  0.7024 -1.5737  0.2086
16426TIP3   OH270692   0.057   2.648   5.518  0.3126  0.2329 -1.0019
16426TIP3    H170693   0.128   2.683   5.571 -1.2458  0.3137  1.0974
16426TIP3    H270694  -0.022   2.665   5.570 -0.9373 -2.5035 -1.9339
16427TIP3   OH270695   6.685   0.496   5.651  0.1537  1.1125 -0.1030
16427TIP3    H170696   6.761   0.442   5.634 -1.7336 -1.7517  0.2895
16427TIP3    H270697   6.662   0.533   5.565 -0.8502 -1.8840 -1.1683
16428TIP3   OH270698   4.959   5.578   5.318  0.4778 -0.2608  0.0810
16428TIP3    H170699   4.994   5.646   5.260  1.1866 -0.8435 -0.1843
16428TIP3    H270700   4.864   5.590   5.315  0.5328 -0.0330 -0.8935
16429TIP3   OH270701   4.618   6.272  12.740 -0.2963 -0.3720  0.8942
16429TIP3    H170702   4.616   6.314  12.826 -1.5370 -0.0506  0.7186
16429TIP3    H270703   4.600   6.343  12.679 -0.9416 -0.8855  0.4847
16430TIP3   OH270704   0.581   3.073   3.408 -0.1090 -0.5806 -0.3865
16430TIP3    H170705   0.634   2.998   3.382  0.4782 -0.3077 -0.0008
16430TIP3    H270706   0.531   3.096   3.329  0.8716 -0.4081 -0.9752
16431TIP3   OH270707   2.851   3.595   2.428  0.3295 -0.2985  0.0042
16431TIP3    H170708   2.825   3.675   2.383 -0.4661  0.6657  2.1102
16431TIP3    H270709   2.802   3.525   2.384  0.2609  0.4887 -1.1932
16432TIP3   OH270710   0.317   1.810  12.543  0.0435  0.1808 -0.0319
16432TIP3    H170711   0.304   1.836  12.452 -1.3826  0.6648  0.2970
16432TIP3    H270712   0.383   1.870  12.576  0.9440 -0.3234 -0.8853
16433TIP3   OH270713   0.132   6.518  15.909  0.1132  0.3199 -0.3861
16433TIP3    H170714   0.173   6.602  15.927 -0.2290  0.4044  0.0216
16433TIP3    H270715   0.122   6.515  15.814  1.9652 -0.1298 -0.5970
16434TIP3   OH270716   4.756   0.043  11.399 -1.2959 -0.7342  0.0479
16434TIP3    H170717   4.687   0.103  11.430 -1.6512 -1.0331 -0.1575
16434TIP3    H270718   4.822   0.101  11.361 -1.5133 -0.4506  0.0939
16435TIP3   OH270719   3.688   0.889  13.673 -0.5799  0.0257  0.2311
16435TIP3    H170720   3.653   0.864  13.758  0.4925  0.5265  0.8273
16435TIP3    H270721   3.764   0.943  13.693 -0.0031 -0.2887 -1.0487
16436TIP3   OH270722   0.579   5.302  15.930 -0.5777  0.3282  0.6094
16436TIP3    H170723   0.614   5.365  15.993  1.0502  1.5031 -1.3786
16436TIP3    H270724   0.638   5.227  15.936 -0.7106  0.2435  0.8384
16437TIP3   OH270725   0.023   3.334   5.079  0.2001  0.1974  0.1170
16437TIP3    H170726   0.053   3.423   5.097  0.6311  0.2988 -1.0535
16437TIP3    H270727   0.087   3.278   5.125 -0.8141  0.4926  1.9365
16438TIP3   OH270728   6.319   2.475  15.704  0.8081  0.3117  0.2356
16438TIP3    H170729   6.281   2.406  15.758 -1.0730  0.9043 -0.2950
16438TIP3    H270730   6.406   2.489  15.741  1.1662 -2.2185  0.4369
16439TIP3   OH270731   1.889   2.123   5.607  0.1637  0.3246  0.5339
16439TIP3    H170732   1.961   2.063   5.586  0.3020 -0.3554  2.8226
16439TIP3    H270733   1.814   2.066   5.622 -0.8848  1.0299 -1.7617
16440TIP3   OH270734   0.773   4.162  12.050 -0.1759 -0.4148 -0.1770
16440TIP3    H170735   0.826   4.086  12.072  0.9643  0.4626  0.1178
16440TIP3    H270736   0.683   4.128  12.049  0.1574 -1.4347  1.4710
16441TIP3   OH270737   6.062   1.324  12.995  0.4058  0.8459 -0.1002
16441TIP3    H170738   6.007   1.358  12.924 -0.8319  0.6971  0.7677
16441TIP3    H270739   6.021   1.358  13.075 -0.1136 -1.6118  0.7259
16442TIP3   OH270740   3.879   5.622  13.007  0.4248  0.2760  0.1010
16442TIP3    H170741   3.897   5.528  13.006  0.4090  0.2695  0.5533
16442TIP3    H270742   3.921   5.654  13.087 -1.0311  0.3673  0.8504
16443TIP3   OH270743   6.486   6.480   1.249 -0.1686 -0.0162 -0.7711
16443TIP3    H170744   6.419   6.419   1.221 -0.5576  0.0467  0.0072
16443TIP3    H270745   6.537   6.498   1.170 -0.3639 -0.9431 -1.1141
16444TIP3   OH270746   4.110   0.352  12.713  0.0132  0.1389  0.2060
16444TIP3    H170747   4.192   0.397  12.735  0.1168 -1.1348  2.4978
16444TIP3    H270748   4.055   0.421  12.676  1.1774  1.5717  1.0798
16445TIP3   OH270749   6.618   1.622  11.972 -0.0408 -0.1471  0.4449
16445TIP3    H170750   6.529   1.656  11.963  0.5635  1.4202  0.1913
16445TIP3    H270751   6.639   1.586  11.886 -0.3678 -0.3472  0.4493
16446TIP3   OH270752   1.531   2.254   5.179  0.4943 -0.1642 -0.0644
16446TIP3    H170753   1.570   2.184   5.232  1.0061  0.2852  0.1614
16446TIP3    H270754   1.605   2.309   5.154  0.2775 -0.4749 -1.4088
16447TIP3   OH270755   5.854   0.556   2.543  0.2453  0.4124  0.2372
16447TIP3    H170756   5.764   0.562   2.575 -0.0467 -0.1046 -0.5003
16447TIP3    H270757   5.856   0.479   2.487  0.8099  1.2048 -0.8636
16448TIP3   OH270758   6.462   0.158   1.832  0.1142  0.2808 -0.5294
16448TIP3    H170759   6.550   0.147   1.868 -0.6885  1.1518  1.8111
16448TIP3    H270760   6.411   0.087   1.872 -0.6871  0.9669 -0.3270
16449TIP3   OH270761   1.096   4.672  15.856 -0.1638  0.5140 -0.9036
16449TIP3    H170762   1.153   4.595  15.848 -1.2404 -0.3206 -0.5937
16449TIP3    H270763   1.012   4.644  15.820 -1.2174  0.8362  1.2236
16450TIP3   OH270764   4.730   1.435  16.298 -0.4398  0.1793 -0.3374
16450TIP3    H170765   4.651   1.414  16.248  0.6932 -0.8533 -1.7515
16450TIP3    H270766   4.782   1.355  16.296  1.6095  1.4783 -1.2970
16451TIP3   OH270767   4.328   6.489  14.465 -0.1479 -0.1184 -0.6373
16451TIP3    H170768   4.372   6.407  14.487 -0.1867 -0.4184 -1.6833
16451TIP3    H270769   4.399   6.551  14.448 -0.1110  0.2347  0.7287
16452TIP3   OH270770   4.346   1.388  10.833 -0.4384 -0.1140  0.0603
16452TIP3    H170771   4.386   1.353  10.753  1.8821  1.8547  0.3081
16452TIP3    H270772   4.278   1.448  10.802 -0.0261  0.0998 -0.4349
16453TIP3   OH270773   5.341   5.279  12.441  0.1244  0.2888 -0.2047
16453TIP3    H170774   5.424   5.238  12.419  0.0429  0.6861 -1.2886
16453TIP3    H270775   5.296   5.215  12.497 -0.0387 -1.1221 -1.9259
16454TIP3   OH270776   3.242   4.096  16.937  0.0010 -0.2459  0.0537
16454TIP3    H170777   3.320   4.093  16.883  0.3726  0.3519  0.5466
16454TIP3    H270778   3.275   4.100  17.027 -0.6032 -0.9741  0.3187
16455TIP3   OH270779   3.061   1.636   0.460 -0.1285 -0.3191 -0.1291
16455TIP3    H170780   3.066   1.710   0.400  0.9727 -0.6988 -0.5224
16455TIP3    H270781   3.033   1.562   0.405 -1.6466 -0.1063  0.3471
16456TIP3   OH270782   5.204   2.595  16.830  0.2104 -0.2446 -0.2330
16456TIP3    H170783   5.165   2.643  16.903 -1.3152  0.2661 -1.3569
16456TIP3    H270784   5.185   2.503  16.848 -1.1655 -0.0292 -0.5688
16457TIP3   OH270785   6.367   4.759  17.225 -0.5956  0.1184 -0.3170
16457TIP3    H170786   6.277   4.743  17.255 -0.9310  0.4128 -1.1769
16457TIP3    H270787   6.416   4.682  17.255 -0.8173  0.6406  1.4436
16458TIP3   OH270788   2.017   5.785   2.077  0.3482 -0.1980  0.4856
16458TIP3    H170789   2.077   5.853   2.048  1.6933 -0.7257  1.9661
16458TIP3    H270790   1.938   5.799   2.025  0.6233  2.4431  0.7119
16459TIP3   OH270791   2.333   2.191   0.529 -0.2534  0.2797  0.3016
16459TIP3    H170792   2.256   2.229   0.486 -1.3239 -0.7652  1.2762
16459TIP3    H270793   2.297   2.143   0.604  1.4614  0.8083  1.4722
16460TIP3   OH270794   2.063   4.801   3.635 -0.2444  0.0289 -0.3877
16460TIP3    H170795   2.067   4.893   3.610  0.1692 -0.4891 -2.3087
16460TIP3    H270796   2.154   4.774   3.645 -0.3355 -0.4161 -0.7469
16461TIP3   OH270797   6.228   0.703   1.785  0.0181 -0.1579  0.4660
16461TIP3    H170798   6.238   0.794   1.756 -1.9484 -0.1666 -0.2950
16461TIP3    H270799   6.233   0.708   1.881 -2.1460  1.0445  0.5442
16462TIP3   OH270800   1.036   5.092  15.725 -0.3591 -0.3641  0.2067
16462TIP3    H170801   1.101   5.026  15.701  0.9489  0.5964  1.0765
16462TIP3    H270802   1.080   5.147  15.790 -2.3938 -0.3456  1.6087
16463TIP3   OH270803   3.278   3.689  13.396  0.4515  0.0309  0.5611
16463TIP3    H170804   3.191   3.648  13.395  1.2232 -1.5961 -0.1612
16463TIP3    H270805   3.293   3.716  13.306 -0.9715  3.9702  1.3808
16464TIP3   OH270806   4.921   2.429  15.350 -0.2670  0.6408 -0.2177
16464TIP3    H170807   4.863   2.427  15.426  0.7323  0.6927  0.5530
16464TIP3    H270808   4.865   2.404  15.276 -1.3094  0.8912  0.4861
16465TIP3   OH270809   1.272   6.148  14.190 -0.3202  0.3918 -0.4668
16465TIP3    H170810   1.362   6.168  14.217 -0.6272  2.9831 -1.2437
16465TIP3    H270811   1.217   6.189  14.256 -0.9611  1.0251 -1.3753
16466TIP3   OH270812   5.865   6.758   5.896  0.1828  0.6395 -0.1190
16466TIP3    H170813   5.959   6.756   5.913  0.2733  0.9025 -0.5783
16466TIP3    H270814   5.834   6.838   5.939 -0.1069 -0.2828  1.4131
16467TIP3   OH270815   6.674   1.465   4.717 -0.2456  0.4669  0.5346
16467TIP3    H170816   6.669   1.541   4.659  1.5505  0.3390  0.1829
16467TIP3    H270817   6.711   1.395   4.662  0.4522  0.0411  1.5247
16468TIP3   OH270818   0.558   3.969  15.183  0.1927 -0.0266  0.2604
16468TIP3    H170819   0.632   3.910  15.165  0.2856 -0.4188  1.8641
16468TIP3    H270820   0.502   3.961  15.106  1.0937 -0.8557 -0.3241
16469TIP3   OH270821   0.593   3.382  15.421  0.1150  0.4422  0.1877
16469TIP3    H170822   0.519   3.335  15.382 -0.0555 -0.3812  1.4684
16469TIP3    H270823   0.568   3.475  15.416  0.4861  0.4236 -2.4160
16470TIP3   OH270824   1.364   4.692  12.291 -0.2813  0.4957 -0.4760
16470TIP3    H170825   1.277   4.726  12.269 -0.7999 -0.9164 -0.6706
16470TIP3    H270826   1.389   4.641  12.214  0.6035  0.6714 -0.3030
16471TIP3   OH270827   4.004   3.058  17.169 -0.5030  0.2436 -0.1010
16471TIP3    H170828   4.060   3.101  17.104 -0.8382 -0.6949 -1.0267
16471TIP3    H270829   4.001   2.967  17.141  1.0539 -0.6300  2.4432
16472TIP3   OH270830   2.519   5.934  15.663 -0.0511  0.4002  0.2727
16472TIP3    H170831   2.476   5.883  15.732  0.1439 -1.6715 -1.0905
16472TIP3    H270832   2.449   5.988  15.626  0.0931  2.5292  2.8838
16473TIP3   OH270833   2.543   2.139   0.149  0.2052 -0.8398  0.7551
16473TIP3    H170834   2.625   2.096   0.123  0.5638 -0.3201  1.0266
16473TIP3    H270835   2.482   2.067   0.164 -0.8124 -1.1503 -4.0225
16474TIP3   OH270836   5.873   5.701  12.937 -0.0931 -0.4359  0.2537
16474TIP3    H170837   5.916   5.665  12.860  0.1766 -0.4132  0.3942
16474TIP3    H270838   5.779   5.693  12.918 -0.0501 -1.9438  0.6086
16475TIP3   OH270839   1.022   2.355   0.719 -0.0101 -0.2881  0.1702
16475TIP3    H170840   1.048   2.446   0.722  0.8285 -0.5311  0.3071
16475TIP3    H270841   0.967   2.348   0.641  1.9819 -0.1982 -1.2860
16476TIP3   OH270842   6.698   0.529   5.189  0.7343  0.1078 -0.0672
16476TIP3    H170843   6.662   0.554   5.104 -0.9876  2.3314  1.2713
16476TIP3    H270844   6.648   0.452   5.215  0.4233  0.1568 -0.5240
16477TIP3   OH270845   5.484   1.785   2.076  0.5076 -0.1367 -0.3990
16477TIP3    H170846   5.406   1.746   2.036 -0.0251 -0.7008  1.1475
16477TIP3    H270847   5.519   1.844   2.009 -0.7637 -0.5183 -1.4125
16478TIP3   OH270848   1.635   1.071  12.155 -0.3023  0.4410 -0.1355
16478TIP3    H170849   1.610   1.163  12.170 -0.5280  0.2099  0.9229
16478TIP3    H270850   1.621   1.028  12.239  0.1638 -0.4925 -0.5276
16479TIP3   OH270851   2.312   2.126  15.300  0.1457 -0.3267 -0.2788
16479TIP3    H170852   2.373   2.146  15.228  0.5633  0.3884  0.2664
16479TIP3    H270853   2.230   2.103  15.256  0.0277  1.3258 -0.9635
16480TIP3   OH270854   5.636   6.301   4.487 -0.3576  0.1549  0.2800
16480TIP3    H170855   5.552   6.263   4.463  0.2195 -0.8190 -0.2358
16480TIP3    H270856   5.698   6.264   4.425  0.2328  1.9594 -0.2343
16481TIP3   OH270857   5.851   4.232   1.358  0.2389  0.4871  0.3070
16481TIP3    H170858   5.913   4.295   1.322  1.4755 -0.5781  0.5521
16481TIP3    H270859   5.790   4.285   1.409  0.2902  1.6608 -0.8272
16482TIP3   OH270860   2.760   6.013   2.383  0.5586 -0.1233  0.3921
16482TIP3    H170861   2.767   5.940   2.320 -4.0047 -1.1335  0.8683
16482TIP3    H270862   2.740   5.971   2.466  0.0896  1.5599  1.1531
16483TIP3   OH270863   3.984   2.798   0.387 -0.1058 -0.4112  0.1323
16483TIP3    H170864   3.920   2.791   0.457 -0.9529 -0.1994 -0.6091
16483TIP3    H270865   3.942   2.757   0.311  0.9897 -1.0826 -0.1244
16484TIP3   OH270866   4.032   0.527  12.264  0.1503  0.2217 -0.2446
16484TIP3    H170867   3.982   0.455  12.225  0.7369  1.1195 -2.7862
16484TIP3    H270868   4.117   0.489  12.285  0.6739  0.2852 -2.1583
16485TIP3   OH270869   4.416   6.060  11.882 -0.1955  0.0688 -0.3368
16485TIP3    H170870   4.455   6.011  11.810  0.6318  1.0359 -0.5593
16485TIP3    H270871   4.490   6.088  11.935 -0.7867 -0.5612  0.8608
16486TIP3   OH270872   0.510   1.493  14.666  0.3983 -0.1166  0.0861
16486TIP3    H170873   0.577   1.561  14.675  0.0078  0.2765  0.0294
16486TIP3    H270874   0.501   1.456  14.754  0.4791  0.0296  0.1558
16487TIP3   OH270875   2.632   1.399   3.330 -0.5610 -0.6588  0.1540
16487TIP3    H170876   2.541   1.372   3.322 -1.2104  1.6359 -0.6728
16487TIP3    H270877   2.639   1.433   3.420 -0.7001 -0.2092 -0.0046
16488TIP3   OH270878   1.437   5.901   5.348  0.8850 -0.1053 -0.0415
16488TIP3    H170879   1.430   5.822   5.401  1.1929 -1.3118 -1.7655
16488TIP3    H270880   1.384   5.966   5.394 -0.7041 -1.7929  0.5456
16489TIP3   OH270881   6.078   3.807  15.700  0.0522 -0.6543  0.2196
16489TIP3    H170882   6.005   3.859  15.666  0.3757 -1.2180 -1.4225
16489TIP3    H270883   6.127   3.867  15.756 -0.0761  0.5670 -0.9344
16490TIP3   OH270884   3.798   6.428  15.681 -0.1236  0.8860  0.1432
16490TIP3    H170885   3.888   6.395  15.681 -0.2821  0.4209 -1.0546
16490TIP3    H270886   3.807   6.523  15.669  0.2254  0.8782  0.3433
16491TIP3   OH270887   5.234   5.990  16.277  0.0346 -0.7800  0.0910
16491TIP3    H170888   5.197   5.982  16.189 -1.3033  0.9951  0.4560
16491TIP3    H270889   5.323   6.022  16.263 -1.1849  2.4779 -0.5413
16492TIP3   OH270890   6.175   0.736  10.969  0.4542 -0.1161  0.1984
16492TIP3    H170891   6.256   0.779  10.996 -0.4458  0.8638  1.3669
16492TIP3    H270892   6.129   0.716  11.050  0.1488 -1.9443 -0.3931
16493TIP3   OH270893   3.047   3.121  12.359 -0.7095  0.2877  0.0027
16493TIP3    H170894   3.086   3.047  12.407 -2.0523 -0.4882 -0.0639
16493TIP3    H270895   3.084   3.115  12.271  2.6949  2.4223  1.2046
16494TIP3   OH270896   6.736   3.192  14.159  0.0142  0.7979  0.4047
16494TIP3    H170897   6.762   3.276  14.120  0.3002  0.3620 -0.3578
16494TIP3    H270898   6.803   3.175  14.226 -0.2061  1.3108  0.7578
16495TIP3   OH270899   6.207   5.270   2.280  0.4518 -0.3810 -0.1969
16495TIP3    H170900   6.155   5.297   2.356 -1.1268 -1.6870 -0.7965
16495TIP3    H270901   6.223   5.352   2.233 -0.6690  0.1006  0.2360
16496TIP3   OH270902   3.867   4.561  12.096 -0.1416 -0.1334  0.1724
16496TIP3    H170903   3.933   4.630  12.090  0.1381 -0.4259 -0.0998
16496TIP3    H270904   3.889   4.500  12.027 -1.4763  0.4391 -0.7878
16497TIP3   OH270905   6.156   1.223  13.373  0.5655 -0.2406  0.0102
16497TIP3    H170906   6.161   1.239  13.467  0.4931 -0.5582  0.0690
16497TIP3    H270907   6.223   1.280  13.335  0.6066 -0.1257  0.2559
16498TIP3   OH270908   5.945   1.322   5.936  0.0055 -0.4003 -0.3906
16498TIP3    H170909   5.975   1.319   5.845  1.3400  0.6745  0.0025
16498TIP3    H270910   5.992   1.251   5.980 -0.6814 -0.9561 -0.5312
16499TIP3   OH270911   4.616   6.195   1.784  0.0970 -0.4184 -0.3849
16499TIP3    H170912   4.643   6.197   1.876 -0.6333 -0.8917 -0.1526
16499TIP3    H270913   4.696   6.209   1.735  0.3743  0.6380  0.3466
16500TIP3   OH270914   3.907   3.170  15.999  0.6276 -0.4105  0.1835
16500TIP3    H170915   3.815   3.143  16.003  1.0974 -2.4210 -1.6145
16500TIP3    H270916   3.913   3.222  15.918  0.7057  1.2906  1.2578
16501TIP3   OH270917   5.924   5.590  15.255  0.1081  0.9893  0.1127
16501TIP3    H170918   5.879   5.640  15.323  1.0482  0.3414  1.2291
16501TIP3    H270919   5.918   5.645  15.177  0.8235  2.6899  1.2265
16502TIP3   OH270920   4.780   1.687  15.593  0.3766  0.2476 -0.1742
16502TIP3    H170921   4.799   1.613  15.536  3.5784 -0.1433  1.2608
16502TIP3    H270922   4.729   1.747  15.539 -1.6289 -2.6281 -1.5750
16503TIP3   OH270923   0.634   0.687   1.741 -0.4465  0.6095  0.2676
16503TIP3    H170924   0.586   0.719   1.665  0.0386  1.4239  0.2959
16503TIP3    H270925   0.725   0.711   1.723 -0.2717  0.4455  0.9194
16504TIP3   OH270926   4.763   2.557  13.525 -0.4651  0.0871 -0.3942
16504TIP3    H170927   4.740   2.649  13.523 -0.7988  0.0433  0.8608
16504TIP3    H270928   4.687   2.511  13.490 -0.6452  0.2296 -0.1871
16505TIP3   OH270929   1.102   2.284  11.858 -0.0040  0.0188  0.2864
16505TIP3    H170930   1.180   2.339  11.868  0.1890 -0.2580  0.2885
16505TIP3    H270931   1.061   2.315  11.777  0.5252 -0.3626 -0.1283
16506TIP3   OH270932   6.496   0.597  12.625  0.0993 -0.6482 -0.6229
16506TIP3    H170933   6.418   0.647  12.648  0.2939 -0.3076 -0.6953
16506TIP3    H270934   6.562   0.625  12.689  0.2948 -0.5792 -0.8518
16507TIP3   OH270935   0.628   4.693  12.393  0.1753 -0.5059 -0.0058
16507TIP3    H170936   0.716   4.707  12.429  0.0705  0.3236 -0.0625
16507TIP3    H270937   0.642   4.682  12.299  0.1268  0.5692 -0.1420
16508TIP3   OH270938   4.866   6.278   1.648 -0.0724 -0.1380  0.2649
16508TIP3    H170939   4.960   6.275   1.665  0.0070 -3.1402 -0.3985
16508TIP3    H270940   4.859   6.304   1.556  0.0412  1.0605  0.5820
16509TIP3   OH270941   1.345   0.337   4.086 -0.3378  0.0444 -0.3535
16509TIP3    H170942   1.276   0.273   4.102 -0.3958  0.0574 -0.5618
16509TIP3    H270943   1.377   0.359   4.174 -0.4396 -0.1338 -0.2713
16510TIP3   OH270944   4.187   4.013   3.581 -0.0439 -0.1501 -0.5369
16510TIP3    H170945   4.187   4.062   3.663 -1.1531  1.5078 -1.4966
16510TIP3    H270946   4.207   3.923   3.607 -1.7481  0.0791  1.7200
16511TIP3   OH270947   4.917   5.971  13.782  0.0688  0.4015  0.3713
16511TIP3    H170948   4.904   5.911  13.856 -0.6475 -0.3346 -0.3451
16511TIP3    H270949   4.931   5.914  13.707  0.4219  1.1496 -0.1335
16512TIP3   OH270950   2.296   5.218   2.574 -0.0070 -0.2475  0.4048
16512TIP3    H170951   2.301   5.306   2.611 -1.7117 -0.4168  1.1084
16512TIP3    H270952   2.314   5.160   2.648 -1.1255 -0.5265  0.4714
16513TIP3   OH270953   1.824   5.896   6.201 -0.0473  0.2434 -0.5906
16513TIP3    H170954   1.883   5.903   6.276  1.9579 -2.9550 -1.7468
16513TIP3    H270955   1.760   5.829   6.227 -1.4133  1.5374 -0.5093
16514TIP3   OH270956   6.045   6.456   2.902 -0.9194  0.3432  0.0313
16514TIP3    H170957   6.133   6.421   2.913 -0.8341  0.6787  0.4426
16514TIP3    H270958   6.019   6.431   2.814 -0.9891 -1.0617  0.4439
16515TIP3   OH270959   0.909   2.381   3.622 -0.0839  0.2730 -0.1949
16515TIP3    H170960   0.899   2.379   3.527  1.0411 -0.0733 -0.3171
16515TIP3    H270961   0.822   2.403   3.656 -0.7586 -0.7825 -1.2501
16516TIP3   OH270962   1.219   1.538   3.822 -0.1927  0.4509  0.3106
16516TIP3    H170963   1.268   1.536   3.740 -0.1444 -0.1556  0.3513
16516TIP3    H270964   1.259   1.470   3.875 -1.2159 -0.1872  0.2662
16517TIP3   OH270965   4.222   0.163   4.237 -0.4360  0.5212 -0.0281
16517TIP3    H170966   4.261   0.085   4.197 -2.2871 -1.4132  1.7881
16517TIP3    H270967   4.140   0.176   4.188 -0.3003  1.1090 -0.0965
16518TIP3   OH270968   3.285   6.675  15.689  0.4038 -0.0008 -0.3728
16518TIP3    H170969   3.380   6.673  15.677  0.3141 -0.2322 -1.0749
16518TIP3    H270970   3.259   6.762  15.657  0.5337  0.5808  1.0590
16519TIP3   OH270971   2.874   0.000  15.428  0.3516 -0.1279  0.0562
16519TIP3    H170972   2.895   0.093  15.437  0.3754 -0.0791 -0.4629
16519TIP3    H270973   2.959  -0.042  15.414  0.3059 -0.1796 -0.0691
16520TIP3   OH270974   2.234   1.806   4.791  0.3458 -0.2792 -0.4111
16520TIP3    H170975   2.324   1.813   4.759  0.7254 -2.3890  0.1588
16520TIP3    H270976   2.233   1.860   4.870  0.5260  1.4803 -1.5790
16521TIP3   OH270977   6.008   3.300  10.683  0.2439  0.1586  0.0108
16521TIP3    H170978   6.011   3.205  10.673  1.3110  0.1949 -0.0953
16521TIP3    H270979   5.995   3.315  10.776 -2.5109 -0.1092 -0.2925
16522TIP3   OH270980   1.770   3.179  13.688  0.3773  0.2912 -0.5027
16522TIP3    H170981   1.717   3.117  13.737  1.0880 -0.3977 -0.5903
16522TIP3    H270982   1.734   3.177  13.599 -1.6797  2.4198  0.2096
16523TIP3   OH270983   5.690   5.319   4.456 -0.2615  0.0510 -0.2119
16523TIP3    H170984   5.613   5.287   4.503 -0.4734 -1.9727 -1.8508
16523TIP3    H270985   5.657   5.390   4.401  0.0085  2.5159  2.6742
16524TIP3   OH270986   4.486   4.483  15.377  0.2814  0.1194 -0.0958
16524TIP3    H170987   4.544   4.553  15.408  1.5714 -0.7244 -0.5339
16524TIP3    H270988   4.418   4.528  15.327  0.1023  1.1971  1.0818
16525TIP3   OH270989   3.550   2.938   3.281  0.3040 -0.8578 -0.1137
16525TIP3    H170990   3.624   2.943   3.342 -0.2013 -1.8540  0.5855
16525TIP3    H270991   3.572   2.866   3.222  0.1867 -0.7297 -0.3158
16526TIP3   OH270992   0.139   2.367   3.239  0.0226  0.1002 -0.1921
16526TIP3    H170993   0.104   2.455   3.221 -0.8239 -0.5013 -1.5515
16526TIP3    H270994   0.083   2.334   3.310 -0.1413  0.3763 -0.1889
16527TIP3   OH270995   1.797   2.516   4.214  0.6632 -0.5294 -0.0274
16527TIP3    H170996   1.791   2.424   4.188 -1.1333 -0.0444 -1.4738
16527TIP3    H270997   1.847   2.515   4.296  1.2168 -2.7157 -0.3598
16528TIP3   OH270998   2.588   6.719   1.848  0.1941 -0.2793 -0.4945
16528TIP3    H170999   2.593   6.770   1.767 -0.5432  1.0114  0.2354
16528TIP3    H271000   2.517   6.761   1.897 -0.6377 -2.2293  0.0074
16529TIP3   OH271001   1.445   1.890  14.136  0.3212 -0.3083 -0.3188
16529TIP3    H171002   1.530   1.929  14.159 -0.5524  0.7708  1.1952
16529TIP3    H271003   1.459   1.850  14.050  2.9527 -2.0516  0.8679
16530TIP3   OH271004   6.581   1.655  16.840  0.2269  0.1934  0.4304
16530TIP3    H171005   6.496   1.626  16.875 -0.8182  1.2553 -1.1543
16530TIP3    H271006   6.580   1.625  16.749  1.3872  0.5868  0.2911
16531TIP3   OH271007   5.397   5.525   5.579  0.0307  0.1132  0.0277
16531TIP3    H171008   5.486   5.558   5.586  0.0727 -0.3269  1.9392
16531TIP3    H271009   5.348   5.573   5.646 -1.0956  0.1019 -0.7664
16532TIP3   OH271010   2.349   1.137   4.497  0.8623 -0.6991  0.2339
16532TIP3    H171011   2.329   1.067   4.434  0.1806 -0.3002  0.0046
16532TIP3    H271012   2.270   1.143   4.551  0.4505  0.7334 -0.5241
16533TIP3   OH271013   2.692   3.236  14.550 -0.1829  0.2491  0.2595
16533TIP3    H171014   2.648   3.167  14.500 -1.0332  0.9618  0.0057
16533TIP3    H271015   2.628   3.261  14.618  0.8119 -0.4425  1.4577
16534TIP3   OH271016   5.848   4.730   0.990  0.3606 -0.0389 -0.2608
16534TIP3    H171017   5.795   4.659   1.025 -0.4710  0.7196  0.0396
16534TIP3    H271018   5.901   4.759   1.065 -1.8137  1.9489  0.5847
16535TIP3   OH271019   4.079   4.810   5.064 -0.0903 -0.1010 -0.2041
16535TIP3    H171020   4.046   4.897   5.045  2.2050  0.4035 -2.1690
16535TIP3    H271021   4.100   4.812   5.158  0.2659  1.5678 -0.3060
16536TIP3   OH271022   0.332   4.144  16.011  0.1430  0.0578  0.2326
16536TIP3    H171023   0.361   4.182  15.928 -0.1842 -1.0040 -0.3886
16536TIP3    H271024   0.237   4.132  16.000 -0.4215  2.6009  1.8843
16537TIP3   OH271025   0.062   2.386  14.282 -0.3371 -0.1950 -0.3154
16537TIP3    H171026  -0.001   2.320  14.312 -0.6464  0.8181  1.3737
16537TIP3    H271027   0.144   2.361  14.324 -0.4807  0.5428  0.4169
16538TIP3   OH271028   4.318   4.811   2.547 -0.2295 -0.0686 -0.2106
16538TIP3    H171029   4.281   4.866   2.478  0.9479 -0.3493 -1.0831
16538TIP3    H271030   4.392   4.862   2.581  0.3523 -0.7365 -0.4579
16539TIP3   OH271031   6.175   3.857   4.409  0.1948  0.4880  0.1778
16539TIP3    H171032   6.101   3.827   4.462 -0.0905  1.0082  0.0750
16539TIP3    H271033   6.204   3.778   4.362 -0.6996  0.4115 -0.2620
16540TIP3   OH271034   3.672   3.022  13.445 -0.2965  0.4789 -0.4714
16540TIP3    H171035   3.637   2.980  13.366 -0.3672 -0.3308 -0.0073
16540TIP3    H271036   3.670   3.116  13.425  0.2584  0.2468 -1.6765
16541TIP3   OH271037   5.048   5.109  13.481  0.1623 -0.5743 -0.4412
16541TIP3    H171038   4.966   5.082  13.438  0.2543 -1.3852 -0.1167
16541TIP3    H271039   5.094   5.027  13.498  0.5443 -0.1905  0.3887
16542TIP3   OH271040   0.505   4.263   0.099 -0.3350 -0.0174  0.0069
16542TIP3    H171041   0.540   4.352   0.102 -0.7527  0.1905 -0.9618
16542TIP3    H271042   0.566   4.215   0.043  0.1116 -0.4453  0.8551
16543TIP3   OH271043   0.389   4.416   2.349 -0.1558 -0.5392 -0.1697
16543TIP3    H171044   0.393   4.333   2.301  1.9975  0.1556 -1.2700
16543TIP3    H271045   0.354   4.479   2.286 -2.1006 -0.6728  0.7686
16544TIP3   OH271046   5.847   2.969  10.963 -0.0362  0.4440 -0.0692
16544TIP3    H171047   5.859   3.056  10.923  0.9607  0.4492  0.2368
16544TIP3    H271048   5.930   2.924  10.948 -0.6145 -0.5344 -0.3879
16545TIP3   OH271049   1.949   2.301   0.749 -0.2011  0.0919 -0.1216
16545TIP3    H171050   1.960   2.379   0.695 -1.3207 -0.0990 -0.6487
16545TIP3    H271051   1.869   2.318   0.799 -1.0929 -1.1971 -1.0926
16546TIP3   OH271052   4.481   4.189   0.671 -0.8439 -0.5677  0.5579
16546TIP3    H171053   4.392   4.220   0.688  0.2160  2.1092  1.4567
16546TIP3    H271054   4.498   4.126   0.741 -1.8885 -0.7945  0.6145
16547TIP3   OH271055   3.057   5.379  14.812 -0.2750  0.2166 -0.2116
16547TIP3    H171056   2.971   5.387  14.854 -0.6243  0.9107 -1.0397
16547TIP3    H271057   3.120   5.400  14.881 -0.6853 -1.9000  0.8443
16548TIP3   OH271058   2.872   6.160  15.369  0.3017 -0.1141  0.4994
16548TIP3    H171059   2.911   6.247  15.365  0.4705 -0.2039  0.1760
16548TIP3    H271060   2.829   6.156  15.454 -1.5232  1.0760 -0.3390
16549TIP3   OH271061   2.743   0.764   5.092  0.1404 -0.8124 -0.3981
16549TIP3    H171062   2.708   0.684   5.053 -0.1322 -0.8301 -0.1151
16549TIP3    H271063   2.692   0.776   5.172 -0.4743  0.1764 -0.9299
16550TIP3   OH271064   3.602   0.507   1.154  0.0444  0.1972 -0.3165
16550TIP3    H171065   3.682   0.476   1.111 -0.2711 -1.2874  0.1122
16550TIP3    H271066   3.630   0.529   1.243 -0.1417 -1.0418  0.0653
16551TIP3   OH271067   2.898   1.188  10.279  0.3778 -0.5489  0.4101
16551TIP3    H171068   2.949   1.143  10.211  1.6890  0.8977  0.4083
16551TIP3    H271069   2.808   1.185  10.247  0.8899 -0.4794 -1.0766
16552TIP3   OH271070   2.032   2.033  14.140 -0.2027  0.1838  0.5771
16552TIP3    H171071   2.065   1.948  14.167 -1.2813 -0.6985 -0.7544
16552TIP3    H271072   1.975   2.061  14.212  0.0381 -0.2938  0.9548
16553TIP3   OH271073   3.468   1.394  15.778 -0.4153 -0.3560 -0.6608
16553TIP3    H171074   3.518   1.398  15.859 -1.5811  1.0492  0.0183
16553TIP3    H271075   3.484   1.306  15.744 -0.3052 -1.1389  1.3498
16554TIP3   OH271076   3.658   2.290  15.215  0.0289 -0.2901  0.0920
16554TIP3    H171077   3.744   2.332  15.223 -0.1114  0.2133 -0.9504
16554TIP3    H271078   3.675   2.211  15.164 -0.7391  1.8862 -3.7560
16555TIP3   OH271079   5.702   4.974  16.587  0.1630  0.0346  0.2078
16555TIP3    H171080   5.787   4.992  16.548  1.4459 -2.6136  1.5991
16555TIP3    H271081   5.721   4.959  16.680 -1.9752  0.5456  0.7442
16556TIP3   OH271082   3.154   5.854   0.994  0.1588  0.7635 -0.2976
16556TIP3    H171083   3.243   5.842   0.962  0.0824  0.6409 -0.4691
16556TIP3    H271084   3.116   5.766   0.994  0.1794  0.7567  0.2009
16557TIP3   OH271085   3.482   3.267  16.763  0.3094  0.1986 -0.2382
16557TIP3    H171086   3.419   3.332  16.793  0.0630 -0.3052  0.3479
16557TIP3    H271087   3.510   3.222  16.843 -0.1908 -1.0171 -0.7407
16558TIP3   OH271088   1.173   5.506   0.888 -0.0306 -0.1064  0.2867
16558TIP3    H171089   1.081   5.530   0.882  0.2234  0.4288 -1.5666
16558TIP3    H271090   1.217   5.559   0.821  1.5481 -0.7263  0.7985
16559TIP3   OH271091   5.634   5.254   5.167 -0.0393  0.0272  0.2905
16559TIP3    H171092   5.622   5.333   5.220 -0.2750  1.1405 -1.3856
16559TIP3    H271093   5.726   5.230   5.180  0.0146  0.5369  0.8596
16560TIP3   OH271094   3.468   2.623   1.138  0.2831 -0.0405  0.1582
16560TIP3    H171095   3.425   2.685   1.080  1.2038 -0.4100 -0.9449
16560TIP3    H271096   3.448   2.655   1.226  1.2458  2.1824 -0.3792
16561TIP3   OH271097   3.028   5.600   1.046  0.7573  0.0142  0.0125
16561TIP3    H171098   3.025   5.505   1.050 -1.4362  0.0115 -1.1578
16561TIP3    H271099   2.940   5.628   1.072  1.2356  1.6955 -0.1122
16562TIP3   OH271100   4.616   5.055   5.268  0.5954 -0.1632  0.4122
16562TIP3    H171101   4.683   5.100   5.319  1.2504 -0.6242 -0.0353
16562TIP3    H271102   4.593   5.116   5.198 -0.8689  0.7947  1.6804
16563TIP3   OH271103   0.320   1.649   3.416  0.2653 -0.3943  0.2846
16563TIP3    H171104   0.364   1.594   3.480  0.0614 -0.9601 -0.0533
16563TIP3    H271105   0.370   1.730   3.415  0.8622 -0.7597  0.4327
16564TIP3   OH271106   2.474   4.586   4.827  0.5305  0.0190  0.3765
16564TIP3    H171107   2.441   4.644   4.758  2.2940  0.9852  0.3330
16564TIP3    H271108   2.496   4.505   4.781 -2.2143 -0.8591  0.4809
16565TIP3   OH271109   1.289   5.375  13.488 -0.4285 -0.1239 -0.5375
16565TIP3    H171110   1.352   5.368  13.560 -1.3273  1.4581  0.4320
16565TIP3    H271111   1.343   5.400  13.412  0.0659  1.9165  0.4382
16566TIP3   OH271112   0.375   4.373  14.223 -0.0773 -0.3515  0.4184
16566TIP3    H171113   0.463   4.344  14.200 -0.1914  0.0021 -0.4595
16566TIP3    H271114   0.389   4.454  14.272  0.2502 -1.9197  3.0166
16567TIP3   OH271115   6.501   2.744  13.703 -0.0520  0.4992 -0.0903
16567TIP3    H171116   6.498   2.726  13.797  0.3470  1.7385  0.1639
16567TIP3    H271117   6.522   2.837  13.696 -1.3677  0.7335 -1.3918
16568TIP3   OH271118   1.880   5.829  15.113 -0.7489 -0.2223 -0.0984
16568TIP3    H171119   1.892   5.893  15.184 -1.1215 -0.3560  0.0860
16568TIP3    H271120   1.963   5.831  15.066 -1.3974  1.7492 -1.2274
16569TIP3   OH271121   2.437   6.403  10.744  0.1934 -0.1070  0.1856
16569TIP3    H171122   2.499   6.430  10.811  0.2183 -1.3431  0.6753
16569TIP3    H271123   2.469   6.318  10.714  0.8709  0.9871 -2.2874
16570TIP3   OH271124   5.719   3.660  15.672  0.0357  0.1910 -0.1581
16570TIP3    H171125   5.726   3.574  15.713  0.2940  0.2095 -0.1623
16570TIP3    H271126   5.767   3.719  15.730  1.9012 -0.0991 -1.3706
16571TIP3   OH271127   1.214   3.021  11.743  0.1069 -0.2580  0.0573
16571TIP3    H171128   1.185   3.005  11.653  0.3070 -0.2579 -0.0059
16571TIP3    H271129   1.293   3.075  11.734 -0.2669  0.3273  0.2503
16572TIP3   OH271130   2.956   1.366   5.512 -0.2726  0.1847  0.4921
16572TIP3    H171131   3.042   1.341   5.544 -0.4389 -1.6334 -0.4285
16572TIP3    H271132   2.961   1.353   5.417 -1.2395  1.0400  0.3109
16573TIP3   OH271133   4.283   4.317   6.075  0.2390 -0.0862  0.1756
16573TIP3    H171134   4.307   4.265   5.998  1.7495 -0.7467  1.0822
16573TIP3    H271135   4.292   4.257   6.149  0.4421  1.0079  1.0501
16574TIP3   OH271136   6.513   1.409  11.494 -0.0440  0.3061  0.3366
16574TIP3    H171137   6.571   1.377  11.424  0.1505 -1.5634  1.3017
16574TIP3    H271138   6.427   1.416  11.452  0.7535  2.6196 -0.9858
16575TIP3   OH271139   3.069   2.071   3.219  0.3661 -0.0923 -0.2445
16575TIP3    H171140   3.129   2.062   3.293  1.3580  0.1638 -1.0049
16575TIP3    H271141   3.098   2.005   3.156  2.4438  2.6796 -2.3313
16576TIP3   OH271142   2.805   2.635  14.683  0.1433 -0.1431 -0.3458
16576TIP3    H171143   2.787   2.714  14.632  1.2362  0.1213 -0.3255
16576TIP3    H271144   2.731   2.630  14.744 -0.4009  0.3625 -0.9439
16577TIP3   OH271145   6.184   0.616   2.964  0.3355  0.1292  0.0588
16577TIP3    H171146   6.216   0.687   3.020  0.0749  1.2912 -1.2302
16577TIP3    H271147   6.094   0.641   2.944  0.2572 -0.5487 -0.4260
16578TIP3   OH271148   6.230   1.171   0.328 -0.0256  0.5071 -0.1293
16578TIP3    H171149   6.182   1.230   0.386  1.5022 -1.1199  2.8909
16578TIP3    H271150   6.322   1.195   0.338  0.5176 -1.5922  0.2941
16579TIP3   OH271151   5.030   1.179   5.858 -0.0303 -1.1634  0.0129
16579TIP3    H171152   5.045   1.270   5.883  0.3133 -0.4160 -2.7642
16579TIP3    H271153   4.937   1.164   5.878 -1.1028  1.0211 -3.0015
16580TIP3   OH271154   3.176   0.007   2.246 -0.9571 -0.0540  0.4777
16580TIP3    H171155   3.106   0.062   2.283 -0.7765 -0.1036  0.8973
16580TIP3    H271156   3.246   0.012   2.311 -1.1615 -1.2438  0.7976
16581TIP3   OH271157   6.232   3.165  10.322 -0.4015  0.1264  1.1918
16581TIP3    H171158   6.210   3.076  10.346  1.1909 -0.9477 -1.1535
16581TIP3    H271159   6.149   3.205  10.296 -0.6960 -1.6310 -0.6591
16582TIP3   OH271160   3.147   2.669   5.709 -0.3974  0.1232  0.0568
16582TIP3    H171161   3.123   2.647   5.619 -0.2133  0.1348  0.0043
16582TIP3    H271162   3.126   2.590   5.760  1.9826 -0.9013 -0.4321
16583TIP3   OH271163   2.913   4.088  10.898  0.1559  0.6551 -0.0982
16583TIP3    H171164   2.854   4.014  10.882 -0.3347  0.9854  0.1637
16583TIP3    H271165   2.999   4.047  10.911  0.3147  0.2908 -2.1529
16584TIP3   OH271166   3.291   2.001   2.305  0.0493  0.3732  0.5173
16584TIP3    H171167   3.324   1.914   2.330 -0.8656 -0.5296 -1.3409
16584TIP3    H271168   3.197   1.989   2.294 -0.1700  1.7532  0.8177
16585TIP3   OH271169   4.111   6.199   3.771  0.1698  0.1582 -0.0472
16585TIP3    H171170   4.018   6.205   3.790  0.1884 -0.6906  0.3491
16585TIP3    H271171   4.153   6.204   3.857  0.3738 -1.4292 -0.0307
16586TIP3   OH271172   2.745   0.841   0.867  0.3957 -0.1256 -0.3928
16586TIP3    H171173   2.776   0.821   0.955 -1.3266  0.4296  0.3609
16586TIP3    H271174   2.815   0.893   0.828  2.0767 -2.0961 -0.1040
16587TIP3   OH271175   6.419   3.364  14.934 -0.0465  0.1456  0.1488
16587TIP3    H171176   6.480   3.318  14.992 -1.3702 -0.2045  1.2846
16587TIP3    H271177   6.356   3.297  14.908  0.3020  0.3979 -1.3894
16588TIP3   OH271178   0.413   6.346   6.750 -0.3708  0.2088 -0.3550
16588TIP3    H171179   0.467   6.424   6.735 -0.4058  0.1574 -0.7534
16588TIP3    H271180   0.463   6.274   6.711 -1.1134  0.2901 -1.4988
16589TIP3   OH271181   2.175   3.000   3.671 -0.8489 -0.0842  0.2256
16589TIP3    H171182   2.236   3.073   3.684 -1.4420  0.3768  0.4679
16589TIP3    H271183   2.228   2.930   3.635  0.3813 -0.6035  2.9083
16590TIP3   OH271184   1.234   6.551  15.658 -0.2326 -0.3020  0.1642
16590TIP3    H171185   1.221   6.456  15.649  0.1250 -0.2140 -1.4498
16590TIP3    H271186   1.320   6.567  15.619 -0.1550  0.6495  0.7161
16591TIP3   OH271187   4.447   4.374   2.413  0.7312  0.6401  0.2484
16591TIP3    H171188   4.465   4.454   2.464  0.2422  1.0887 -0.2753
16591TIP3    H271189   4.384   4.325   2.466  2.9826 -0.6576  1.8166
16592TIP3   OH271190   2.271   5.895   6.152  0.6035 -0.2277 -0.9688
16592TIP3    H171191   2.198   5.843   6.117  1.1996 -1.4728 -0.3576
16592TIP3    H271192   2.279   5.868   6.243  0.4402  1.4882 -0.4121
16593TIP3   OH271193   2.273   4.525   5.293 -0.1083 -0.0273  0.3119
16593TIP3    H171194   2.316   4.609   5.306  0.5984 -0.7177  2.6914
16593TIP3    H271195   2.181   4.540   5.314 -0.3363  0.5418 -1.0185
16594TIP3   OH271196   2.733   6.255  10.960 -0.1970  0.3088 -0.0184
16594TIP3    H171197   2.677   6.236  10.885  0.9494  1.3860 -1.1939
16594TIP3    H271198   2.732   6.175  11.012 -3.7563  0.6813  0.6434
16595TIP3   OH271199   4.808   6.486   4.236 -0.0100  0.5239 -0.0482
16595TIP3    H171200   4.739   6.531   4.187 -1.6475 -1.4678  0.3992
16595TIP3    H271201   4.823   6.541   4.312 -0.1713  1.6374 -0.8065
16596TIP3   OH271202   1.215   3.284   5.482 -0.4467 -0.0742 -0.2090
16596TIP3    H171203   1.202   3.264   5.575 -1.2406  1.3733  0.0096
16596TIP3    H271204   1.147   3.234   5.437  0.8281 -1.8799 -0.1436
16597TIP3   OH271205   1.396   1.404  14.311  0.1689 -0.1118 -0.1526
16597TIP3    H171206   1.397   1.461  14.234  0.4145  0.7429  0.4704
16597TIP3    H271207   1.471   1.345  14.299  1.0961  0.9820  0.1275
16598TIP3   OH271208   2.846   0.240  12.631  0.2147 -0.3529 -0.3013
16598TIP3    H171209   2.907   0.292  12.683  1.9664 -1.0174 -1.6114
16598TIP3    H271210   2.902   0.177  12.586 -1.5046 -1.2059 -1.2914
16599TIP3   OH271211   3.950   1.473  15.687 -0.4537 -0.5039 -0.0470
16599TIP3    H171212   4.004   1.537  15.641 -1.1316  0.6807  0.7904
16599TIP3    H271213   3.971   1.390  15.645  2.3602 -0.1449  0.5488
16600TIP3   OH271214   0.048   1.489   1.104 -0.3299  0.2187  0.0896
16600TIP3    H171215   0.032   1.449   1.018  0.9761 -1.9850  0.8118
16600TIP3    H271216  -0.015   1.447   1.162 -1.6646  2.2047  0.0922
16601TIP3   OH271217   4.049   4.915   3.080 -0.2953 -0.2612 -0.0814
16601TIP3    H171218   4.141   4.936   3.062 -0.3460 -0.9495 -1.2343
16601TIP3    H271219   4.000   4.985   3.037 -0.3089  0.0957  0.5167
16602TIP3   OH271220   5.269   1.792  13.015  0.8289 -0.5897 -0.1620
16602TIP3    H171221   5.212   1.760  12.945  1.2036  0.3548 -0.9103
16602TIP3    H271222   5.276   1.886  12.999  1.7299 -0.5274  0.5588
16603TIP3   OH271223   1.635   0.784  16.723 -0.1855  0.5003 -0.6781
16603TIP3    H171224   1.609   0.852  16.785 -1.6828 -1.0598  0.4485
16603TIP3    H271225   1.559   0.726  16.719  1.5795 -1.8368 -0.5925
16604TIP3   OH271226   2.155   3.098   1.331 -0.5732 -0.2598  0.0365
16604TIP3    H171227   2.106   3.073   1.410 -1.9910  0.6018 -0.5608
16604TIP3    H271228   2.097   3.159   1.285  0.1028 -1.0021 -1.8335
16605TIP3   OH271229   3.638   6.199  13.480 -0.2538 -0.8909 -0.7329
16605TIP3    H171230   3.584   6.242  13.546  2.6407  2.6218 -0.5522
16605TIP3    H271231   3.593   6.217  13.397  1.4509  3.5036 -0.7797
16606TIP3   OH271232   4.580   0.044   4.572 -0.0549 -0.0903  0.4887
16606TIP3    H171233   4.584  -0.030   4.513  0.0123 -0.9556  1.5590
16606TIP3    H271234   4.489   0.048   4.601 -0.6691  1.8707 -1.5814
16607TIP3   OH271235   3.807   6.113   5.366  0.1932 -0.5975  0.5757
16607TIP3    H171236   3.713   6.118   5.384  0.4431  0.0209  1.7579
16607TIP3    H271237   3.840   6.200   5.386  0.7201 -0.2542 -1.7037
16608TIP3   OH271238   5.282   5.135   3.201 -0.0943 -0.5586  0.2133
16608TIP3    H171239   5.189   5.120   3.217 -0.4233 -0.5827 -1.6720
16608TIP3    H271240   5.324   5.116   3.285 -1.9692  1.1462  1.5808
16609TIP3   OH271241   0.754   4.681  16.997 -0.0074 -0.1927 -0.2570
16609TIP3    H171242   0.679   4.738  17.013 -0.1370 -0.5007  0.2468
16609TIP3    H271243   0.718   4.592  17.002  0.5137 -0.3635  0.6602
16610TIP3   OH271244   2.556   1.936  14.917  0.0852  0.1927 -0.6188
16610TIP3    H171245   2.480   1.985  14.884  0.6837  2.3020  1.0469
16610TIP3    H271246   2.531   1.911  15.006 -0.2882 -2.7813 -1.5113
16611TIP3   OH271247   2.482   4.205  17.006 -0.3207 -0.1503 -0.2675
16611TIP3    H171248   2.413   4.219  16.941  1.2582 -0.2199 -2.0135
16611TIP3    H271249   2.555   4.259  16.976  1.5898 -2.6967 -0.4314
16612TIP3   OH271250   3.289   2.423  13.405  0.0097  0.1772 -0.1566
16612TIP3    H171251   3.362   2.436  13.345 -0.3260 -0.2990 -0.6805
16612TIP3    H271252   3.239   2.505  13.400 -0.4874 -0.1785 -1.1936
16613TIP3   OH271253   5.610   6.596   4.708  0.1002 -0.6530 -0.3935
16613TIP3    H171254   5.630   6.560   4.795 -0.6110  3.3226  1.5839
16613TIP3    H271255   5.521   6.566   4.690 -0.0823 -0.8101  0.6852
16614TIP3   OH271256   3.066   2.434  15.046 -0.1095  0.1463 -0.3039
16614TIP3    H171257   3.128   2.502  15.072 -1.5437  0.9490  1.1427
16614TIP3    H271258   3.059   2.443  14.951  1.8662  0.1252 -0.4748
16615TIP3   OH271259   5.308   0.706   3.631  0.1279 -0.0054  0.1897
16615TIP3    H171260   5.240   0.649   3.667  1.0747 -0.5193  1.1967
16615TIP3    H271261   5.386   0.685   3.682  0.7009  1.5742  0.0048
16616TIP3   OH271262   3.048   1.871   0.974  0.3128  0.1499 -0.7677
16616TIP3    H171263   3.034   1.966   0.978  0.2780  0.1151  0.0988
16616TIP3    H271264   3.139   1.862   0.948  0.8562  0.4562  0.9253
16617TIP3   OH271265   4.983   2.827  12.394  0.0198 -0.2080  0.0120
16617TIP3    H171266   5.031   2.775  12.459  1.7835  2.2952  0.8127
16617TIP3    H271267   4.892   2.798  12.401  0.8256 -2.6242  0.9173
16618TIP3   OH271268   2.657   0.158  11.063  0.7564 -0.0475 -0.7989
16618TIP3    H171269   2.590   0.126  11.123 -1.1781  1.0796 -2.3123
16618TIP3    H271270   2.634   0.122  10.978  1.6266  0.9579 -1.4902
16619TIP3   OH271271   5.795   1.761   2.900  0.0615 -0.2519 -0.8371
16619TIP3    H171272   5.854   1.809   2.842 -0.9561 -1.0727 -2.5860
16619TIP3    H271273   5.709   1.797   2.882 -0.3833 -1.1125 -0.4506
16620TIP3   OH271274   5.980   5.749  10.444 -0.3708  0.5374  0.0882
16620TIP3    H171275   5.944   5.816  10.386 -0.4270  1.5384  1.2662
16620TIP3    H271276   5.931   5.758  10.525 -0.2099 -0.7760  0.3436
16621TIP3   OH271277   2.198   1.879  10.833  0.3138 -0.3509  0.5702
16621TIP3    H171278   2.273   1.907  10.886  1.2490 -1.6675 -0.0377
16621TIP3    H271279   2.131   1.855  10.897  1.2853 -1.5169  1.1596
16622TIP3   OH271280   2.462   0.923  14.352  0.4517 -0.4691 -0.5527
16622TIP3    H171281   2.411   1.003  14.351  1.4845  0.1920 -1.1242
16622TIP3    H271282   2.398   0.853  14.367 -0.2081  0.6151  1.7667
16623TIP3   OH271283   5.378   0.900  12.830 -0.2405  0.1416 -0.1042
16623TIP3    H171284   5.411   0.831  12.772 -1.5874  0.6521 -1.5141
16623TIP3    H271285   5.422   0.980  12.801  0.7077  0.0306  0.9996
16624TIP3   OH271286   4.227   4.984   4.069  0.3810  0.5440 -0.0093
16624TIP3    H171287   4.187   5.037   4.000  1.2962  0.8242 -0.3369
16624TIP3    H271288   4.210   5.033   4.149  3.4485  2.7584 -0.5888
16625TIP3   OH271289   0.781   0.832  11.276  0.2247  0.4136 -0.2298
16625TIP3    H171290   0.729   0.756  11.301  0.9715  0.0771  0.3220
16625TIP3    H271291   0.856   0.795  11.229  1.0094  0.7535  0.7541
16626TIP3   OH271292   0.547   6.163  12.452 -0.2157  0.1673  0.2800
16626TIP3    H171293   0.488   6.090  12.471 -0.9227  0.6066 -0.2053
16626TIP3    H271294   0.567   6.201  12.537 -0.5455 -0.0548  0.4571
16627TIP3   OH271295   3.414   2.281  12.283 -0.1357 -0.2601 -0.2603
16627TIP3    H171296   3.365   2.317  12.210  1.0670  0.1148 -0.8804
16627TIP3    H271297   3.505   2.307  12.268 -0.1185  1.3713  2.2854
16628TIP3   OH271298   4.426   0.373  17.046  0.3166  0.0737  0.6282
16628TIP3    H171299   4.402   0.466  17.045 -0.4499 -0.1155 -0.5124
16628TIP3    H271300   4.512   0.370  17.086  0.1690  1.2431  1.0319
16629TIP3   OH271301   6.114   5.954  16.082 -0.2870 -0.2072  0.0665
16629TIP3    H171302   6.192   5.948  16.027  0.7449 -0.0413  1.4711
16629TIP3    H271303   6.045   5.985  16.024  0.6840 -0.4115 -1.2107
16630TIP3   OH271304   3.616   1.673  15.169  0.0987 -0.3712 -0.3712
16630TIP3    H171305   3.700   1.695  15.210 -0.1757  1.8174 -0.8898
16630TIP3    H271306   3.635   1.597  15.114  1.6392 -0.2056 -0.0862
16631TIP3   OH271307   1.863   6.734   0.425  0.1811  0.0362 -0.2215
16631TIP3    H171308   1.821   6.817   0.401 -0.4357  0.2597  1.5477
16631TIP3    H271309   1.792   6.671   0.430  0.3947 -0.1683  0.2843
16632TIP3   OH271310   3.522   2.346   4.351  0.3706  0.8155  0.0003
16632TIP3    H171311   3.532   2.368   4.444 -0.6932  1.4950 -0.0404
16632TIP3    H271312   3.534   2.251   4.348  1.0294  0.8646  0.7381
16633TIP3   OH271313   5.070   2.187  11.377 -0.5897 -0.0818 -0.2229
16633TIP3    H171314   5.018   2.242  11.435  1.3942 -0.3439  1.9184
16633TIP3    H271315   5.143   2.243  11.349 -0.0968 -0.7453 -0.2948
16634TIP3   OH271316   0.170   6.159   0.163  0.3487 -0.0474 -0.7455
16634TIP3    H171317   0.233   6.124   0.100 -0.0187 -1.8064 -0.1861
16634TIP3    H271318   0.155   6.086   0.223  2.5590  2.3317  2.8569
16635TIP3   OH271319   2.862   5.475   3.683  0.2306 -0.4432 -0.3656
16635TIP3    H171320   2.828   5.489   3.771  2.8881  1.3754  0.4379
16635TIP3    H271321   2.862   5.562   3.643  3.7012 -0.3397 -0.3443
16636TIP3   OH271322   1.526   4.515   3.967 -0.2599 -0.1217  0.0940
16636TIP3    H171323   1.440   4.480   3.943  0.1119 -0.1723 -1.1592
16636TIP3    H271324   1.506   4.600   4.008 -0.9834 -0.6928  0.9523
16637TIP3   OH271325   0.083   1.650   1.572  0.1733  0.0168 -0.0444
16637TIP3    H171326   0.028   1.664   1.649 -1.4160  1.6850 -1.4227
16637TIP3    H271327   0.062   1.561   1.544  0.1956 -0.3244  1.0163
16638TIP3   OH271328   1.200   5.061  15.955  0.4425  0.5038  0.4885
16638TIP3    H171329   1.247   5.078  16.037  2.1802  0.0395 -0.3678
16638TIP3    H271330   1.268   5.066  15.888 -0.9312  0.7299 -0.9096
16639TIP3   OH271331   1.876   5.674   0.286 -0.1708 -0.2160  0.2638
16639TIP3    H171332   1.924   5.649   0.366  0.3551 -0.3711 -0.0962
16639TIP3    H271333   1.925   5.748   0.251 -1.1864  0.7216  0.8107
16640TIP3   OH271334   0.187   1.195   0.620 -0.8282  0.1792  1.2833
16640TIP3    H171335   0.213   1.214   0.530  0.2298 -2.1831  1.0515
16640TIP3    H271336   0.185   1.281   0.663 -1.4713  1.3411 -0.9974
16641TIP3   OH271337   1.899   0.087  17.143 -0.1385 -0.1626 -0.4122
16641TIP3    H171338   1.969   0.133  17.095  1.2689 -1.2711  0.5439
16641TIP3    H271339   1.864   0.025  17.079 -0.0980  0.2282 -0.8240
16642TIP3   OH271340   1.512   4.417   5.459 -0.5737 -0.5600 -0.1953
16642TIP3    H171341   1.458   4.441   5.534 -1.2568 -2.4348 -0.0588
16642TIP3    H271342   1.456   4.434   5.383 -0.9861 -1.5067 -0.1095
16643TIP3   OH271343   3.733   1.743   1.045 -0.1515 -0.0672  0.5185
16643TIP3    H171344   3.756   1.685   1.118 -0.7795 -1.4051 -0.3369
16643TIP3    H271345   3.704   1.684   0.976 -0.2323  1.2420 -0.5749
16644TIP3   OH271346   4.629   6.712  15.706  0.0058  0.3491 -0.5358
16644TIP3    H171347   4.616   6.806  15.706 -1.0357  0.2224 -1.1540
16644TIP3    H271348   4.724   6.700  15.708  0.1096  1.3838  0.7595
16645TIP3   OH271349   4.558   0.660  15.079  0.5785 -0.1903 -0.6328
16645TIP3    H171350   4.528   0.748  15.104 -0.3970 -0.8311  0.4720
16645TIP3    H271351   4.526   0.603  15.149 -0.1259 -1.6598 -2.1368
16646TIP3   OH271352   0.014   0.760   3.813 -0.0080 -0.0286 -0.3912
16646TIP3    H171353   0.042   0.721   3.896  2.2891  0.8309 -0.7051
16646TIP3    H271354  -0.071   0.721   3.795  1.1919 -3.1719  0.4358
16647TIP3   OH271355   4.044   1.193   2.277  0.2271 -0.1932 -0.7429
16647TIP3    H171356   3.993   1.236   2.208  0.0638 -1.1444 -1.2287
16647TIP3    H271357   4.085   1.264   2.325  0.9118  0.4534 -2.2593
16648TIP3   OH271358   3.752   3.301  11.507  0.7337 -0.0950  0.2778
16648TIP3    H171359   3.725   3.315  11.597  0.2935 -0.6056  0.2231
16648TIP3    H271360   3.770   3.389  11.473 -1.0625  0.2803  0.2458
16649TIP3   OH271361   3.516   0.752  14.398  0.0949  0.2579 -0.7391
16649TIP3    H171362   3.611   0.750  14.384  0.6161  1.7085  2.2356
16649TIP3    H271363   3.488   0.835  14.359  0.3526  0.7168  0.0469
16650TIP3   OH271364   4.498   1.757  13.993  0.0459  0.1180 -0.4561
16650TIP3    H171365   4.592   1.746  13.984  0.0163 -0.1387 -0.4570
16650TIP3    H271366   4.462   1.669  13.980 -0.2240  0.2842 -0.8518
16651TIP3   OH271367   4.355   4.416  14.395 -0.0407 -0.7290 -0.1812
16651TIP3    H171368   4.432   4.473  14.400  0.2203 -1.1572  0.7909
16651TIP3    H271369   4.290   4.468  14.346  0.9393 -0.4680 -1.2221
16652TIP3   OH271370   6.016   4.387   1.168 -0.3683 -0.1716  0.3739
16652TIP3    H171371   6.028   4.482   1.168 -0.5857 -0.1368 -2.1675
16652TIP3    H271372   6.004   4.363   1.076 -1.4943 -2.5244  1.0833
16653TIP3   OH271373   3.080   3.854   2.689 -0.7007  0.5050 -0.3736
16653TIP3    H171374   3.122   3.821   2.610  0.5823 -1.3335  1.0083
16653TIP3    H271375   3.140   3.828   2.760 -2.2815  1.2723  1.2737
16654TIP3   OH271376   2.807   3.787  12.206  0.6506 -0.3278  0.0328
16654TIP3    H171377   2.778   3.813  12.118 -0.8298  0.9517  0.8531
16654TIP3    H271378   2.818   3.871  12.252 -0.4128 -1.0294  1.6040
16655TIP3   OH271379   2.903   1.142   3.671 -0.1888 -0.2581  0.4926
16655TIP3    H171380   2.923   1.215   3.730 -3.2854  2.6249 -1.8670
16655TIP3    H271381   2.959   1.157   3.594 -1.6636  0.3320 -0.4827
16656TIP3   OH271382   0.050   6.061   2.874  0.8242  0.1424  0.4108
16656TIP3    H171383   0.066   6.092   2.785 -1.3186  0.3893  0.0827
16656TIP3    H271384   0.135   6.029   2.904  1.0943 -2.1081 -2.5550
16657TIP3   OH271385   5.914   1.486  14.580  0.6137  0.3096  0.9028
16657TIP3    H171386   5.831   1.532  14.576  0.9378  0.8024 -0.3727
16657TIP3    H271387   5.938   1.488  14.673 -0.4110  0.8270  1.1663
16658TIP3   OH271388   3.675   4.021  14.470  0.5668  0.1081  0.5593
16658TIP3    H171389   3.707   4.037  14.559 -2.0214  2.1859  1.1648
16658TIP3    H271390   3.597   3.967  14.482 -0.3226  1.1705 -0.3742
16659TIP3   OH271391   1.236   1.759  14.266  0.2021  0.3416 -0.4565
16659TIP3    H171392   1.233   1.816  14.343 -1.3074  1.9059 -1.6540
16659TIP3    H271393   1.304   1.796  14.210 -0.6174  0.8223 -1.1318
16660TIP3   OH271394   0.958   0.947   0.900 -0.5892 -0.7401  0.1459
16660TIP3    H171395   0.990   0.949   0.809 -2.2547  1.8029 -0.4267
16660TIP3    H271396   0.874   0.992   0.897 -1.0879 -1.4312  2.8152
16661TIP3   OH271397   2.716   2.663  12.657 -0.0345  0.1146  0.1225
16661TIP3    H171398   2.759   2.649  12.573  2.6739 -0.1692  1.5086
16661TIP3    H271399   2.735   2.584  12.707 -1.5825  0.2991  1.0470
16662TIP3   OH271400   4.888   6.785   1.547  0.7857 -0.5816 -0.4998
16662TIP3    H171401   4.934   6.855   1.593  0.1285 -1.5942  1.7619
16662TIP3    H271402   4.800   6.820   1.533  0.8412 -0.4656 -0.5676
16663TIP3   OH271403   2.447   1.275  10.556  0.3627  0.3149  0.0504
16663TIP3    H171404   2.361   1.240  10.533  1.2671 -0.8017 -1.7576
16663TIP3    H271405   2.474   1.226  10.634 -1.0005  1.2910  1.1544
16664TIP3   OH271406   3.250   5.858   6.129  1.2966 -0.1690  0.5867
16664TIP3    H171407   3.281   5.887   6.043 -0.4162 -3.4710 -1.2590
16664TIP3    H271408   3.288   5.770   6.139 -0.6031 -0.8422  2.0304
16665TIP3   OH271409   4.073   4.176  16.440  0.1736  0.3153  0.4612
16665TIP3    H171410   4.164   4.163  16.467  0.3207 -0.0009 -0.1843
16665TIP3    H271411   4.041   4.088  16.420  0.2240  0.5987 -0.8945
16666TIP3   OH271412   2.911   6.209  12.366  0.0627  0.2150  0.0824
16666TIP3    H171413   2.821   6.209  12.332  0.7050 -0.2638 -1.6882
16666TIP3    H271414   2.951   6.132  12.326  2.3247  2.4368 -2.0519
16667TIP3   OH271415   1.398   1.505  11.748  0.2436  0.2132  0.2343
16667TIP3    H171416   1.457   1.445  11.794 -0.3906  0.8002  1.8794
16667TIP3    H271417   1.397   1.583  11.804 -1.4785  0.5017 -0.1894
16668TIP3   OH271418   3.395   2.206   2.492 -0.1634  0.8772  0.2977
16668TIP3    H171419   3.335   2.250   2.552 -1.4920  0.2124 -0.5055
16668TIP3    H271420   3.341   2.139   2.450  1.2908 -0.0771 -0.0596
16669TIP3   OH271421   1.628   6.036   5.202 -0.3664 -0.1846 -0.0762
16669TIP3    H171422   1.560   5.982   5.242  0.8121 -1.7883 -0.1901
16669TIP3    H271423   1.647   5.993   5.119 -1.3714  1.9909 -1.4925
16670TIP3   OH271424   3.156   4.330  11.331 -0.1521  0.1852  0.6926
16670TIP3    H171425   3.093   4.400  11.314  1.2274  1.3034  0.0186
16670TIP3    H271426   3.127   4.258  11.276  0.1143  1.2922 -0.9646
16671TIP3   OH271427   5.141   3.212   1.983 -0.7720  0.6658 -0.0589
16671TIP3    H171428   5.227   3.192   1.947 -0.8569 -0.4542  0.3275
16671TIP3    H271429   5.138   3.308   1.989  0.0120  0.7578 -1.1147
16672TIP3   OH271430   5.930   2.473  12.739  0.2030  0.4726 -0.5649
16672TIP3    H171431   5.865   2.471  12.670  0.7257  0.8783 -1.0702
16672TIP3    H271432   5.928   2.384  12.776 -0.3225  0.3578 -0.8615
16673TIP3   OH271433   0.445   2.483   4.457  0.1615  0.2977 -1.2308
16673TIP3    H171434   0.363   2.517   4.422  0.0047  0.3489 -0.8232
16673TIP3    H271435   0.455   2.397   4.417 -0.9944 -0.4596  0.0577
16674TIP3   OH271436   5.968   5.171  15.703 -0.2648 -0.1189 -0.1792
16674TIP3    H171437   5.975   5.235  15.633  0.2710  0.2799  0.2345
16674TIP3    H271438   6.055   5.130  15.707 -0.1051  0.2979  0.6642
16675TIP3   OH271439   0.720   4.275   6.212  0.2461  0.5728  0.1856
16675TIP3    H171440   0.635   4.272   6.168 -1.0364 -1.3319  2.6653
16675TIP3    H271441   0.784   4.256   6.144 -1.5335 -0.4067 -1.2389
16676TIP3   OH271442   6.456   3.678  15.488 -0.2856  0.0745  0.6914
16676TIP3    H171443   6.478   3.650  15.577  0.6366 -2.2336 -0.2364
16676TIP3    H271444   6.472   3.601  15.433 -0.3174  1.6167 -1.5669
16677TIP3   OH271445   4.188   1.058  13.662 -0.0098 -0.0127  0.1661
16677TIP3    H171446   4.262   1.119  13.658  0.1537 -0.0223  2.5090
16677TIP3    H271447   4.193   1.008  13.580  1.3691  1.3508 -0.6015
16678TIP3   OH271448   1.369   1.724   5.396 -0.5640  0.8446  0.2704
16678TIP3    H171449   1.395   1.811   5.428  0.7586  0.9089 -0.9213
16678TIP3    H271450   1.274   1.720   5.412 -0.2518  1.5745  2.4745
16679TIP3   OH271451   0.676   2.537   1.736 -0.2198 -0.0743 -0.0298
16679TIP3    H171452   0.623   2.459   1.752 -1.4368  0.6641 -0.3081
16679TIP3    H271453   0.695   2.572   1.823  1.7385 -1.5822  0.1613
16680TIP3   OH271454   6.121   1.081  12.461  0.3114 -0.0166  0.4945
16680TIP3    H171455   6.188   1.017  12.485  2.7290  1.7674 -1.2123
16680TIP3    H271456   6.107   1.132  12.541 -1.3490 -2.3382  1.7543
16681TIP3   OH271457   4.211   1.053  12.707  0.7763 -0.9301 -0.1933
16681TIP3    H171458   4.149   0.980  12.713  0.7690 -0.8189  1.1975
16681TIP3    H271459   4.273   1.037  12.778  0.4898  0.6905  0.4478
16682TIP3   OH271460   4.071   6.121   5.639 -0.2428  0.2401  0.7772
16682TIP3    H171461   4.056   6.169   5.720  0.3846  0.7889  0.5728
16682TIP3    H271462   4.140   6.170   5.594 -1.2824  0.5246 -0.5536
16683TIP3   OH271463   3.428   1.551  11.315  0.1371 -0.2809  0.1515
16683TIP3    H171464   3.378   1.473  11.338 -1.6003  1.0110  0.8626
16683TIP3    H271465   3.388   1.583  11.234  0.3788  0.2613  0.2417
16684TIP3   OH271466   0.558   0.847  15.934 -0.2687  0.2430  0.4526
16684TIP3    H171467   0.551   0.787  15.860 -1.5616  0.1668  0.6219
16684TIP3    H271468   0.597   0.795  16.004  1.0944  0.3538 -0.1961
16685TIP3   OH271469   2.432   0.510   0.670 -0.8782  0.0112  0.3478
16685TIP3    H171470   2.384   0.427   0.669  0.3773 -0.7252  1.0630
16685TIP3    H271471   2.469   0.517   0.582  1.2148 -1.5056  1.0574
16686TIP3   OH271472   5.331   5.540  11.183 -0.2729  0.2971  0.0250
16686TIP3    H171473   5.383   5.461  11.195 -0.1664  0.3266 -0.2422
16686TIP3    H271474   5.354   5.572  11.096 -1.4045 -0.1933 -0.4643
16687TIP3   OH271475   4.816   4.890   2.693  0.3819 -0.2002 -0.3790
16687TIP3    H171476   4.902   4.857   2.719 -0.4809 -3.2207 -1.1548
16687TIP3    H271477   4.810   4.870   2.599 -0.1109  2.4478 -0.9512
16688TIP3   OH271478   0.358   2.753  13.631  0.3816 -0.8121  0.4878
16688TIP3    H171479   0.429   2.716  13.683 -0.0483 -1.1212  0.8638
16688TIP3    H271480   0.313   2.812  13.692  0.5313 -0.3465  0.1495
16689TIP3   OH271481   5.988   4.403  11.447 -0.3913 -0.2495 -0.2349
16689TIP3    H171482   5.922   4.427  11.512  1.1055  1.5630  0.6643
16689TIP3    H271483   6.064   4.377  11.499  0.5143  0.3214 -1.2594
16690TIP3   OH271484   5.394   1.087   5.516 -0.8302  0.3054  0.0917
16690TIP3    H171485   5.342   1.164   5.492 -1.1219  0.4198  1.0457
16690TIP3    H271486   5.345   1.047   5.588 -1.3694 -1.5352 -1.2849
16691TIP3   OH271487   2.702   6.516  10.855 -0.1853  0.0426 -0.0726
16691TIP3    H171488   2.775   6.578  10.863 -1.0652  0.8016  2.7102
16691TIP3    H271489   2.740   6.432  10.880 -0.3664  0.5505  2.0171
16692TIP3   OH271490   1.014   3.856  12.670  0.0692  0.3994 -0.2355
16692TIP3    H171491   0.956   3.859  12.746 -2.0791 -0.8130 -1.7479
16692TIP3    H271492   0.998   3.938  12.624  0.5884  0.6729  0.0713
16693TIP3   OH271493   5.581   4.362   4.425  0.2213 -0.1470 -0.7496
16693TIP3    H171494   5.621   4.409   4.352  0.6924  1.6066  0.5948
16693TIP3    H271495   5.615   4.406   4.503 -1.7609 -0.7424  0.4885
16694TIP3   OH271496   0.616   5.190   4.604 -0.2267  0.0371  0.0245
16694TIP3    H171497   0.700   5.237   4.611 -0.0418 -0.4739  1.2785
16694TIP3    H271498   0.571   5.234   4.531  0.5779  1.1718  0.1826
16695TIP3   OH271499   3.338   3.416   4.091 -0.0928  0.8805  0.2336
16695TIP3    H171500   3.271   3.456   4.036  1.2734 -0.0628 -2.2104
16695TIP3    H271501   3.413   3.476   4.085  1.5748 -1.3442 -2.5470
16696TIP3   OH271502   4.319   4.911   3.092  0.1603  0.3250 -0.2613
16696TIP3    H171503   4.360   4.905   3.006  0.5652  0.0881 -0.0501
16696TIP3    H271504   4.328   4.824   3.130 -0.4987  0.2798 -0.1923
16697TIP3   OH271505   3.904   1.692  14.612  0.0793 -0.6223 -0.6088
16697TIP3    H171506   3.869   1.754  14.676  0.5406 -1.7072  0.7202
16697TIP3    H271507   3.835   1.626  14.603  0.2006 -0.7081 -0.8996
16698TIP3   OH271508   2.954   0.884   3.480  0.0612  0.5663  0.0757
16698TIP3    H171509   2.931   0.803   3.434  0.3794  0.2589  0.4657
16698TIP3    H271510   3.049   0.882   3.487  0.1770  1.5592 -0.9985
16699TIP3   OH271511   6.389   5.445  13.414 -0.3678  0.2023  0.1904
16699TIP3    H171512   6.437   5.372  13.374 -2.3151 -1.3168  0.5279
16699TIP3    H271513   6.429   5.455  13.501  0.1732 -0.2074 -0.0092
16700TIP3   OH271514   0.423   6.221   3.503 -0.0320 -0.3557 -0.0585
16700TIP3    H171515   0.347   6.276   3.520  0.2148  0.4407 -1.4667
16700TIP3    H271516   0.387   6.133   3.489 -0.8815  0.3494 -2.5088
16701TIP3   OH271517   0.826   4.668  13.805  0.5444 -0.0103  0.5069
16701TIP3    H171518   0.816   4.618  13.886 -0.1993 -1.4285 -0.4444
16701TIP3    H271519   0.905   4.631  13.764 -0.5742 -1.1359 -0.6858
16702TIP3   OH271520   2.909   4.961   4.087 -0.6896 -0.4527  0.3357
16702TIP3    H171521   2.845   4.919   4.029 -1.2144 -1.1375  1.4025
16702TIP3    H271522   2.856   5.017   4.145 -0.1999 -0.0568  0.4078
16703TIP3   OH271523   1.814   4.039   0.434  0.3088  0.5939 -0.3133
16703TIP3    H171524   1.851   3.972   0.377  1.7467  2.8393 -2.1252
16703TIP3    H271525   1.890   4.085   0.470 -0.6389  1.1734  0.9897
16704TIP3   OH271526   4.244   6.262   4.560 -0.1896 -0.2156  0.1047
16704TIP3    H171527   4.195   6.322   4.616 -0.5955 -1.5259  1.1945
16704TIP3    H271528   4.246   6.305   4.475 -1.1972  0.9519  0.6505
16705TIP3   OH271529   4.022   3.943  17.043 -0.2032 -0.7464  0.0594
16705TIP3    H171530   3.993   3.919  17.131 -0.6434  0.6843  0.3165
16705TIP3    H271531   4.038   4.037  17.047 -0.8005 -0.5474 -1.5389
16706TIP3   OH271532   3.354   4.098  12.069 -0.0793  0.8411  0.2275
16706TIP3    H171533   3.322   4.142  11.991 -1.2238  0.8604  0.6944
16706TIP3    H271534   3.395   4.167  12.121 -1.3461  1.2798  0.6836
16707TIP3   OH271535   1.959   1.123  16.682 -0.0068  0.1037  0.2972
16707TIP3    H171536   1.944   1.030  16.695  1.6668  0.0762  2.3354
16707TIP3    H271537   1.996   1.130  16.594 -1.3257 -0.9955 -0.3619
16708TIP3   OH271538   4.781   1.740   3.700  0.2078  0.1850 -0.1129
16708TIP3    H171539   4.798   1.800   3.773 -0.9240 -0.4449  0.6783
16708TIP3    H271540   4.863   1.693   3.687  0.7998  1.1951 -0.0800
16709TIP3   OH271541   4.948   1.378  14.549  0.1424  0.2792  0.0196
16709TIP3    H171542   4.937   1.341  14.461  1.4023  1.3692 -0.6192
16709TIP3    H271543   5.002   1.314  14.596 -2.0748 -1.2095  0.6245
16710TIP3   OH271544   0.531   1.953   3.988  0.2820  0.0845  0.1254
16710TIP3    H171545   0.616   1.911   3.998  0.3265  0.5607  1.7786
16710TIP3    H271546   0.503   1.929   3.899  2.3199  0.2996 -0.5908
16711TIP3   OH271547   6.585   3.520   3.241 -0.0519  0.6819 -0.6853
16711TIP3    H171548   6.573   3.448   3.179 -1.6289  0.8252 -0.5668
16711TIP3    H271549   6.657   3.571   3.205 -0.3994  0.2865 -1.9577
16712TIP3   OH271550   4.963   3.176  15.726  0.2120  0.4679 -0.5864
16712TIP3    H171551   4.888   3.147  15.673  0.4619 -1.7418  0.2263
16712TIP3    H271552   4.926   3.191  15.813  0.7464 -0.8232 -0.1336
16713TIP3   OH271553   0.958   6.194  11.901 -0.1934 -0.7056 -0.1383
16713TIP3    H171554   1.018   6.252  11.947 -0.3283 -0.1406 -0.6600
16713TIP3    H271555   1.007   6.164  11.824  0.5131 -2.7335  1.0720
16714TIP3   OH271556   3.185   5.462   6.010  0.2637 -0.1242  0.2979
16714TIP3    H171557   3.222   5.374   5.998  0.8977  0.2013 -0.1327
16714TIP3    H271558   3.258   5.515   6.040 -0.3191  0.0658  1.4178
16715TIP3   OH271559   1.126   1.243   2.931  0.7083  0.0709 -0.1357
16715TIP3    H171560   1.068   1.308   2.890  0.2658 -0.5853 -0.5553
16715TIP3    H271561   1.166   1.290   3.004  1.5038  1.2524 -1.3075
16716TIP3   OH271562   4.437   4.279  15.905  0.0072 -0.3761  0.8784
16716TIP3    H171563   4.420   4.309  15.816 -3.3784 -1.1407  1.2022
16716TIP3    H271564   4.516   4.326  15.931  1.5570 -0.7988 -2.8075
16717TIP3   OH271565   3.639   0.531   1.806  0.4307 -0.0824  0.2939
16717TIP3    H171566   3.688   0.610   1.781  3.5581 -1.9005  0.3929
16717TIP3    H271567   3.547   0.553   1.788  1.4348  2.8211 -1.6557
16718TIP3   OH271568   1.314   0.554   6.113 -0.0988 -0.1834 -0.8000
16718TIP3    H171569   1.386   0.606   6.149 -1.3954  0.2000  1.2737
16718TIP3    H271570   1.313   0.474   6.166 -1.2134 -0.1894 -0.8345
16719TIP3   OH271571   4.385   5.184  16.758  0.0773  0.3696 -0.0073
16719TIP3    H171572   4.399   5.134  16.678  1.2852  0.7239 -0.0195
16719TIP3    H271573   4.332   5.259  16.730  2.3268  1.6755 -0.9205
16720TIP3   OH271574   6.280   5.385   2.528  0.3114 -0.0277 -0.1243
16720TIP3    H171575   6.336   5.414   2.600  1.1469  0.3173 -0.8939
16720TIP3    H271576   6.331   5.315   2.485 -0.3571 -0.5141 -0.1320
16721TIP3   OH271577   0.319   0.237  14.814 -0.1640 -0.3385  0.6818
16721TIP3    H171578   0.328   0.144  14.792  0.0499 -0.2574  0.4348
16721TIP3    H271579   0.321   0.282  14.730  0.6779 -0.0327  0.8695
16722TIP3   OH271580   3.804   3.145   1.969 -0.0212  0.8585 -0.2277
16722TIP3    H171581   3.811   3.056   1.935  2.1344  0.6273  0.7530
16722TIP3    H271582   3.765   3.195   1.897  0.4699 -0.4828 -1.4491
16723TIP3   OH271583   3.078   3.377  10.497  0.2185  0.1743 -0.0157
16723TIP3    H171584   2.983   3.384  10.501  0.2689  1.1697 -0.5695
16723TIP3    H271585   3.093   3.284  10.477 -0.7566  0.6249 -3.2346
16724TIP3   OH271586   0.676   4.972   2.067 -0.3593  0.4375  0.0686
16724TIP3    H171587   0.742   5.024   2.023  0.6147  0.8277  1.9541
16724TIP3    H271588   0.600   5.030   2.075 -0.4692  0.4294 -0.8749
16725TIP3   OH271589   3.881   1.768  16.428 -0.4937 -0.4589 -0.0362
16725TIP3    H171590   3.899   1.862  16.432 -0.2606 -0.5554  1.8885
16725TIP3    H271591   3.848   1.753  16.340  2.3244  0.9246 -1.3911
16726TIP3   OH271592   3.121   0.499   3.210  0.0366  0.7551 -0.2420
16726TIP3    H171593   3.099   0.539   3.126  0.1705  0.6553 -0.3260
16726TIP3    H271594   3.075   0.416   3.210 -0.9031  1.2717  0.2836
16727TIP3   OH271595   0.789   6.741   4.745  0.3989 -0.6629  0.8816
16727TIP3    H171596   0.696   6.761   4.737  0.6960  0.3065 -0.3757
16727TIP3    H271597   0.792   6.655   4.786 -1.0118 -0.0686  2.2621
16728TIP3   OH271598   0.476   2.129   2.070  0.3070  0.2915  0.0723
16728TIP3    H171599   0.530   2.062   2.110  2.5303  2.1836  0.3209
16728TIP3    H271600   0.475   2.107   1.977  3.0402  1.2240 -0.2210
16729TIP3   OH271601   0.191   3.398   6.190 -0.1630 -0.4730 -0.7783
16729TIP3    H171602   0.122   3.399   6.124 -0.9330 -0.6004  0.0113
16729TIP3    H271603   0.149   3.430   6.270  0.5556 -1.0318 -0.1624
16730TIP3   OH271604   4.217   3.070  16.412  0.0455 -0.1205 -0.2264
16730TIP3    H171605   4.137   3.123  16.417 -1.0924 -1.6382 -1.8941
16730TIP3    H271606   4.284   3.131  16.379 -0.3682  1.1886  1.2815
16731TIP3   OH271607   3.860   1.659  15.937  0.1503  0.1532  0.2045
16731TIP3    H171608   3.826   1.654  15.847  2.0467  2.9124 -0.7371
16731TIP3    H271609   3.924   1.587  15.942  1.3566  1.0754 -1.3056
16732TIP3   OH271610   4.552   5.882  11.731 -0.2129  0.5924  0.3677
16732TIP3    H171611   4.540   5.873  11.636 -1.5110  0.5728  0.5237
16732TIP3    H271612   4.646   5.873  11.744  0.3239  3.1746 -1.2059
16733TIP3   OH271613   3.385   1.720  15.327 -0.0544  0.2965 -0.3886
16733TIP3    H171614   3.435   1.716  15.246  1.2756 -0.6360  0.4650
16733TIP3    H271615   3.450   1.735  15.395 -1.0547  0.0846  0.6258
16734TIP3   OH271616   3.378   3.948   4.495 -0.0761  0.2520  0.0264
16734TIP3    H171617   3.405   3.969   4.584  0.8562 -0.9760  0.0461
16734TIP3    H271618   3.394   4.029   4.446  0.0461  0.7222  0.8329
16735TIP3   OH271619   0.885   6.403   3.309 -0.6022  0.4058 -0.3523
16735TIP3    H171620   0.914   6.438   3.393  0.1358 -1.5896  0.2725
16735TIP3    H271621   0.790   6.398   3.316 -0.5454  0.3056  0.3619
16736TIP3   OH271622   6.475   5.664  16.374 -0.3935 -0.4717 -0.1672
16736TIP3    H171623   6.527   5.691  16.450 -0.6444  1.3277 -0.6175
16736TIP3    H271624   6.535   5.611  16.321  0.1976 -0.5644  0.5852
16737TIP3   OH271625   5.585   6.757  14.754  0.1996 -0.1224  0.7065
16737TIP3    H171626   5.616   6.835  14.708 -0.1465 -1.1668 -1.3492
16737TIP3    H271627   5.502   6.736  14.711 -1.2134  0.1119  3.2631
16738TIP3   OH271628   2.640   5.003  12.799  0.4373  0.0168  0.9374
16738TIP3    H171629   2.736   5.003  12.808  0.3359  0.8211  2.2275
16738TIP3    H271630   2.616   4.911  12.804  1.4820 -0.6904 -4.0318
16739TIP3   OH271631   0.335   6.555  16.817  0.1035  0.0239  0.4597
16739TIP3    H171632   0.406   6.616  16.795  0.1995 -0.7036 -1.3630
16739TIP3    H271633   0.308   6.519  16.733 -1.3971 -0.8694  1.3041
16740TIP3   OH271634   2.453   6.282   5.407  0.5603 -0.3841  0.0066
16740TIP3    H171635   2.404   6.231   5.471 -0.1094 -0.3898 -0.5104
16740TIP3    H271636   2.538   6.238   5.401 -0.7091 -2.6410 -1.9217
16741TIP3   OH271637   1.797   5.960   0.336  0.0601 -0.4743  0.3857
16741TIP3    H171638   1.888   5.951   0.364  1.3198 -0.2057 -3.3677
16741TIP3    H271639   1.791   5.907   0.257 -2.9993 -0.2678  0.4289
16742TIP3   OH271640   5.987   4.180  15.322  0.2572  0.0866  0.2527
16742TIP3    H171641   6.004   4.217  15.235 -0.7160 -0.8167 -0.3431
16742TIP3    H271642   6.040   4.100  15.325 -0.2141 -0.2320  0.2210
16743TIP3   OH271643   3.116   0.704   5.724  0.1283 -0.3978 -0.8053
16743TIP3    H171644   3.160   0.775   5.677  0.9144 -0.6541 -0.4629
16743TIP3    H271645   3.100   0.637   5.657 -1.2045  0.3663 -1.2629
16744TIP3   OH271646   5.268   2.515   5.568 -0.1781 -0.4042 -0.0534
16744TIP3    H171647   5.276   2.603   5.606 -0.5382  0.5783 -2.1946
16744TIP3    H271648   5.358   2.482   5.564  0.2446  0.8580 -1.4673
16745TIP3   OH271649   3.942   2.591   0.665 -0.0406 -0.4426 -0.4092
16745TIP3    H171650   3.891   2.633   0.734 -1.5640 -2.4172 -0.2938
16745TIP3    H271651   4.028   2.577   0.703  0.1560  1.4805 -0.0666
16746TIP3   OH271652   5.465   2.602  15.745 -0.1636  0.2041  0.2323
16746TIP3    H171653   5.489   2.601  15.653  0.2205 -0.1425  0.3306
16746TIP3    H271654   5.406   2.677  15.755  0.5920  0.8513 -0.0997
16747TIP3   OH271655   0.043   1.064  13.009 -0.0519  0.8340  0.4761
16747TIP3    H171656   0.062   1.138  13.067  3.6018  0.1868  0.2063
16747TIP3    H271657   0.028   0.990  13.068 -1.4255  1.2502  0.6763
16748TIP3   OH271658   4.163   2.736  13.134  0.1754 -0.8690  0.5921
16748TIP3    H171659   4.253   2.715  13.160  0.1361 -2.0046 -0.1500
16748TIP3    H271660   4.108   2.681  13.189 -0.0894 -0.1031  1.1155
16749TIP3   OH271661   0.641   1.354  14.295 -0.1753  0.0776  0.0869
16749TIP3    H171662   0.635   1.268  14.254 -3.5550  0.7813 -1.0116
16749TIP3    H271663   0.687   1.338  14.378  0.7133 -2.4714 -0.8721
16750TIP3   OH271664   3.130   5.656  14.299  0.9629 -0.6287 -0.7902
16750TIP3    H171665   3.106   5.666  14.391 -0.4583 -3.2710 -0.8345
16750TIP3    H271666   3.224   5.636  14.301  1.5347  1.8447 -0.1344
16751TIP3   OH271667   2.329   5.890  12.067 -0.4264 -0.4710  0.0694
16751TIP3    H171668   2.271   5.965  12.076 -0.4722 -0.7023  1.8849
16751TIP3    H271669   2.379   5.907  11.987  0.7915  2.3526  1.3797
16752TIP3   OH271670   0.168   5.957  16.068  0.3835  0.0754 -0.1611
16752TIP3    H171671   0.226   5.902  16.120  0.6878  0.1078 -0.4650
16752TIP3    H271672   0.105   5.896  16.030  0.6720 -0.0546 -0.4330
16753TIP3   OH271673   0.928   4.147   1.540 -0.3220  0.1879 -0.3984
16753TIP3    H171674   0.870   4.121   1.468 -1.0118 -1.2216  0.6450
16753TIP3    H271675   0.990   4.208   1.500 -0.3803 -0.9609 -2.3115
16754TIP3   OH271676   2.872   6.689  12.101 -0.5719 -0.2019  0.1212
16754TIP3    H171677   2.890   6.771  12.055  0.2746 -0.0135  0.7709
16754TIP3    H271678   2.837   6.716  12.185  4.7416 -0.2539  2.5950
16755TIP3   OH271679   0.184   1.487   5.722  0.1918 -0.0312 -0.3793
16755TIP3    H171680   0.231   1.424   5.668 -1.3529 -0.8733 -0.7790
16755TIP3    H271681   0.234   1.492   5.803  0.2441 -1.8757 -0.2885
16756TIP3   OH271682   3.970   1.407   4.282 -0.1953 -0.7356 -0.2076
16756TIP3    H171683   3.888   1.455   4.273  0.2963  0.2171  0.3042
16756TIP3    H271684   4.006   1.438   4.365  0.1164 -2.0153  0.1313
16757TIP3   OH271685   4.949   4.945   2.215 -0.9825  0.0104  0.0946
16757TIP3    H171686   4.918   4.899   2.137 -0.5117 -0.9653  0.4782
16757TIP3    H271687   5.022   4.892   2.246  0.4271  1.7259 -0.2070
16758TIP3   OH271688   2.423   4.742   5.271  0.1047 -0.2382 -0.2751
16758TIP3    H171689   2.355   4.799   5.233 -0.9523  0.1735  2.1490
16758TIP3    H271690   2.500   4.799   5.279  0.2868 -0.2772 -1.5731
16759TIP3   OH271691   3.046   5.741  13.558  0.5559  0.1781 -0.5403
16759TIP3    H171692   2.958   5.754  13.522  0.4525 -1.2223 -0.8322
16759TIP3    H271693   3.078   5.829  13.576 -0.0704  0.8062 -2.4278
16760TIP3   OH271694   4.514   0.660  13.736  0.0323 -0.1735  0.1463
16760TIP3    H171695   4.460   0.605  13.680  0.4268  0.9734 -1.3903
16760TIP3    H271696   4.458   0.733  13.760  0.2571 -0.0292  0.2350
16761TIP3   OH271697   0.224   1.327  16.945 -0.3155  0.0952  0.8814
16761TIP3    H171698   0.134   1.330  16.913 -0.6679  1.1628  1.9130
16761TIP3    H271699   0.277   1.302  16.869 -1.5719 -1.4404  0.4886
16762TIP3   OH271700   1.700   0.294   4.486 -0.7708 -0.1208  0.7025
16762TIP3    H171701   1.780   0.331   4.524 -2.0126  2.4184  0.9245
16762TIP3    H271702   1.661   0.244   4.558 -0.4754  0.4190  1.2509
16763TIP3   OH271703   1.687   0.508   3.444 -0.1054 -0.0280 -0.1878
16763TIP3    H171704   1.676   0.600   3.464 -0.4860 -0.1693  0.2613
16763TIP3    H271705   1.758   0.479   3.502 -0.2708 -0.1135 -0.0262
16764TIP3   OH271706   1.561   5.610   4.475 -0.1015  0.2496  0.2119
16764TIP3    H171707   1.599   5.693   4.505 -1.3123  0.8474  0.1001
16764TIP3    H271708   1.532   5.628   4.386 -2.8961  0.5511  1.1295
16765TIP3   OH271709   1.289   2.449  14.804  0.4029 -0.4256  0.1959
16765TIP3    H171710   1.300   2.517  14.738 -0.1327  0.1544  0.6973
16765TIP3    H271711   1.221   2.391  14.767  0.2604 -0.2246  0.1427
16766TIP3   OH271712   6.415   0.875   0.746  0.0015  0.0034 -0.5402
16766TIP3    H171713   6.340   0.900   0.693  1.2528  1.1644 -1.8156
16766TIP3    H271714   6.425   0.781   0.731  0.2593  0.2884 -2.2861
16767TIP3   OH271715   5.028   0.137  11.360 -0.6364 -0.1913 -0.1352
16767TIP3    H171716   5.033   0.108  11.270 -0.4961  0.7664 -0.4440
16767TIP3    H271717   5.091   0.209  11.366 -0.5243 -0.3511  0.7617
16768TIP3   OH271718   0.537   0.965  13.344 -0.0552 -0.4306  0.0508
16768TIP3    H171719   0.523   0.954  13.250 -0.1048  0.7460 -0.0828
16768TIP3    H271720   0.482   1.039  13.368 -0.6281 -1.2023  1.1616
16769TIP3   OH271721   3.368   4.469  12.682 -0.2332 -0.0182  0.0745
16769TIP3    H171722   3.285   4.502  12.646 -1.1975  1.3642  3.4186
16769TIP3    H271723   3.414   4.547  12.712  0.7773 -1.0725  1.3239
16770TIP3   OH271724   3.907   0.576  12.653 -0.3961  0.3599 -0.3505
16770TIP3    H171725   3.820   0.562  12.691  0.1479 -0.9951  0.4285
16770TIP3    H271726   3.901   0.538  12.566 -0.6325  0.4588 -0.3807
16771TIP3   OH271727   5.966   1.629   2.548  0.1095 -0.0598  0.2407
16771TIP3    H171728   5.935   1.542   2.521 -1.6754  0.5564  0.2557
16771TIP3    H271729   5.886   1.681   2.556  1.2720  2.1072 -1.6014
16772TIP3   OH271730   6.750   5.891  14.258 -0.2941  0.0377 -0.6720
16772TIP3    H171731   6.714   5.878  14.345 -1.9506 -0.8662 -1.4620
16772TIP3    H271732   6.816   5.823  14.249  0.3177  0.5246  0.1010
16773TIP3   OH271733   3.744   3.733   6.000  0.6760  0.0309  0.2009
16773TIP3    H171734   3.821   3.685   6.032  0.4633 -0.2347  0.3211
16773TIP3    H271735   3.751   3.820   6.040 -0.2514 -0.7017  2.0156
16774TIP3   OH271736   1.702   3.431  16.007 -0.0232  0.4446 -0.3042
16774TIP3    H171737   1.608   3.418  15.994  0.1150  0.0564 -0.9281
16774TIP3    H271738   1.724   3.375  16.081 -0.6396  1.9702  1.0684
16775TIP3   OH271739   1.670   3.590   1.816  0.0636 -0.5337 -0.8377
16775TIP3    H171740   1.624   3.665   1.855 -1.8528 -2.3429  0.4671
16775TIP3    H271741   1.647   3.593   1.723  3.2829  2.8165 -1.6549
16776TIP3   OH271742   5.220   1.473   2.558  0.4664  0.2613  0.1635
16776TIP3    H171743   5.278   1.536   2.516 -0.9199  0.4750 -1.4485
16776TIP3    H271744   5.133   1.510   2.549 -0.2830 -1.5457 -0.1448
16777TIP3   OH271745   3.840   6.567  11.357  0.7388 -0.0713  0.1338
16777TIP3    H171746   3.896   6.642  11.338 -0.7298  1.1366  0.4611
16777TIP3    H271747   3.848   6.554  11.451  1.5041 -0.7681 -0.0143
16778TIP3   OH271748   3.140   2.997  16.142 -0.5979  0.1710 -0.0763
16778TIP3    H171749   3.051   3.007  16.177  0.6992  0.6448  3.3521
16778TIP3    H271750   3.191   3.063  16.189  1.6811 -0.4203 -1.6464
16779TIP3   OH271751   3.849   0.075   2.329  0.1443 -0.2889  0.3494
16779TIP3    H171752   3.864   0.170   2.321 -1.0695  0.0630  2.0359
16779TIP3    H271753   3.936   0.040   2.348  0.3607  0.6847  1.2513
16780TIP3   OH271754   0.748   1.473  16.667  0.7823  0.3540 -0.2316
16780TIP3    H171755   0.757   1.528  16.589 -1.5486 -0.1284 -0.8829
16780TIP3    H271756   0.763   1.532  16.741  1.2058  1.2084 -0.9927
16781TIP3   OH271757   1.627   3.110  13.127  0.0233 -0.2575  0.0689
16781TIP3    H171758   1.546   3.160  13.126 -0.2912 -0.7397  0.9369
16781TIP3    H271759   1.687   3.163  13.179  0.9575  1.1441 -2.3813
16782TIP3   OH271760   4.227   4.658   0.953 -0.1037  0.1890  0.5007
16782TIP3    H171761   4.212   4.605   0.874 -2.5386 -0.4098  1.3205
16782TIP3    H271762   4.241   4.746   0.919  0.2075 -0.2897 -0.6766
16783TIP3   OH271763   3.770   5.823  16.214  0.4365 -0.5682  0.0124
16783TIP3    H171764   3.848   5.779  16.181  1.6764  2.9829 -2.0853
16783TIP3    H271765   3.743   5.881  16.143 -3.1235 -0.4169  1.3664
16784TIP3   OH271766   6.715   2.264   5.569  0.4969 -0.0705 -0.0078
16784TIP3    H171767   6.707   2.184   5.517  0.0457  0.3696 -0.6302
16784TIP3    H271768   6.721   2.334   5.504  1.4623  0.3509  0.5326
16785TIP3   OH271769   5.353   3.972   0.085  0.0943  0.5594  0.1641
16785TIP3    H171770   5.270   3.972   0.036  0.0084 -0.2987  0.3164
16785TIP3    H271771   5.396   3.891   0.060  0.7563  0.8550  0.3344
16786TIP3   OH271772   4.969   2.951  13.232 -0.2278  0.4977 -0.6112
16786TIP3    H171773   4.933   2.976  13.146  0.4817 -1.0114 -1.3724
16786TIP3    H271774   5.052   2.907  13.211 -0.3517 -0.4452  0.8047
16787TIP3   OH271775   2.571   0.758  12.919 -0.2068 -0.4091  0.3188
16787TIP3    H171776   2.590   0.693  12.986 -2.4706 -0.8842  0.5379
16787TIP3    H271777   2.562   0.708  12.838  0.1531 -0.1255  0.1024
16788TIP3   OH271778   4.284   0.642  17.107  0.1434  0.0791 -0.2856
16788TIP3    H171779   4.240   0.671  17.187  0.3799  0.4245 -0.2806
16788TIP3    H271780   4.375   0.670  17.118  0.2076  0.0062 -0.6180
16789TIP3   OH271781   1.726   2.620  13.603  0.8400  0.7246  0.2180
16789TIP3    H171782   1.740   2.686  13.671 -1.3863 -1.1117  2.5094
16789TIP3    H271783   1.797   2.557  13.616  0.3291  0.2970  0.9326
16790TIP3   OH271784   5.318   1.218  11.473  0.2217 -0.2621  0.4662
16790TIP3    H171785   5.273   1.187  11.552  0.8029 -0.4016  0.7427
16790TIP3    H271786   5.312   1.313  11.478 -1.1214 -0.2951 -0.1281
16791TIP3   OH271787   3.664   0.958   1.528  0.3508 -0.4828 -0.4370
16791TIP3    H171788   3.702   1.034   1.484  0.9753 -0.6616 -0.2133
16791TIP3    H271789   3.622   0.908   1.458 -0.6107  0.3854 -0.4942
16792TIP3   OH271790   4.027   4.666   0.317 -0.1283 -0.1956  0.1579
16792TIP3    H171791   4.065   4.754   0.311  0.1763 -0.4505 -1.7660
16792TIP3    H271792   4.032   4.645   0.411 -1.1244  2.2231  0.8174
16793TIP3   OH271793   1.457   1.409   1.976  0.2856 -0.2156 -0.0850
16793TIP3    H171794   1.418   1.366   1.900 -0.4364  0.9153 -0.3685
16793TIP3    H271795   1.545   1.373   1.981 -0.9435 -3.2478  0.9141
16794TIP3   OH271796   1.509   1.468   0.747  0.4062 -0.1089  0.0140
16794TIP3    H171797   1.542   1.471   0.837  0.4598  0.4429 -0.0231
16794TIP3    H271798   1.485   1.376   0.734  0.3173 -0.1783  0.6206
16795TIP3   OH271799   0.086   4.001   0.568  0.4891 -0.0844  0.0626
16795TIP3    H171800   0.092   3.941   0.643  2.5657  0.7713  0.6135
16795TIP3    H271801   0.012   4.058   0.589  0.5779 -0.3445  1.1092
16796TIP3   OH271802   2.392   6.288  13.821  0.5209 -0.1459  0.0628
16796TIP3    H171803   2.322   6.323  13.876 -0.2193 -0.4861 -0.6508
16796TIP3    H271804   2.387   6.193  13.833  1.0554 -0.1477  0.2519
16797TIP3   OH271805   0.295   4.173  13.921 -0.3537  0.3373  0.0031
16797TIP3    H171806   0.317   4.083  13.896 -0.0798 -0.0689  1.6547
16797TIP3    H271807   0.380   4.212  13.943 -0.6862  0.4364  1.0899
16798TIP3   OH271808   5.824   5.598  15.903 -0.6215  0.5079 -0.0828
16798TIP3    H171809   5.797   5.517  15.946  0.9223 -0.8381 -1.5754
16798TIP3    H271810   5.872   5.646  15.971  0.3289 -0.8178  0.2058
16799TIP3   OH271811   3.706   3.956   5.250  0.0107 -0.3634  0.2042
16799TIP3    H171812   3.672   4.027   5.306 -0.3691 -1.1323  0.9568
16799TIP3    H271813   3.786   3.927   5.293  1.6411  1.3953 -1.5322
16800TIP3   OH271814   5.956   5.498   5.513 -0.9421 -0.1186 -0.4101
16800TIP3    H171815   5.948   5.496   5.418  0.7463 -0.6156 -0.5626
16800TIP3    H271816   5.971   5.590   5.534 -1.3188 -0.0086 -0.6229
16801TIP3   OH271817   1.915   5.106   6.068  0.4934  0.0613  0.0497
16801TIP3    H171818   1.962   5.185   6.041  0.3602  0.4899  1.0667
16801TIP3    H271819   1.944   5.090   6.157 -1.6733  0.6360  0.8958
16802TIP3   OH271820   4.636   3.719  16.965  0.7821 -0.0906 -0.3660
16802TIP3    H171821   4.702   3.769  17.012 -1.3281  0.8334  1.7239
16802TIP3    H271822   4.610   3.650  17.026 -0.8574  0.1574 -0.7555
16803TIP3   OH271823   4.641   1.616  10.730 -0.2396 -0.4848 -0.4551
16803TIP3    H171824   4.557   1.650  10.698 -1.0898 -0.4199  1.7950
16803TIP3    H271825   4.679   1.689  10.779  1.1360 -0.5244 -1.4255
16804TIP3   OH271826   1.624   6.250  16.807  0.7462 -0.5905  0.6078
16804TIP3    H171827   1.700   6.207  16.769 -0.0436 -2.0595  0.6206
16804TIP3    H271828   1.655   6.284  16.891  1.8948  0.6242 -0.2910
16805TIP3   OH271829   2.610   2.049  15.613 -0.0913 -0.3271 -0.4736
16805TIP3    H171830   2.587   2.008  15.530  0.5365 -0.3857 -0.6200
16805TIP3    H271831   2.648   1.978  15.665 -1.1299 -0.4493  0.1229
16806TIP3   OH271832   2.334   2.498  12.000 -0.0922  0.1439 -0.1034
16806TIP3    H171833   2.353   2.586  11.970 -1.6985  0.1021 -1.2878
16806TIP3    H271834   2.419   2.453  11.999  0.3056  0.9222 -1.9646
16807TIP3   OH271835   2.437   2.763  14.824 -0.0546 -0.4356  0.6038
16807TIP3    H171836   2.496   2.814  14.879  0.2630 -1.1997  0.9874
16807TIP3    H271837   2.365   2.822  14.803  0.9223  0.5511  0.0122
16808TIP3   OH271838   0.043   6.475  16.649 -0.3450 -0.3391  0.4009
16808TIP3    H171839   0.008   6.470  16.738  0.7726  0.1210  0.8885
16808TIP3    H271840   0.010   6.559  16.615  0.8312  0.4375  1.1201
16809TIP3   OH271841   3.005   3.890   6.565  0.1793 -0.0549 -0.5008
16809TIP3    H171842   3.004   3.981   6.534 -1.3665 -0.6237 -2.2040
16809TIP3    H271843   3.094   3.860   6.548  0.1374  0.5235 -1.8398
16810TIP3   OH271844   5.247   1.761   0.732 -0.4851  0.0670 -0.1849
16810TIP3    H171845   5.302   1.831   0.767 -1.0598  1.1220 -1.3404
16810TIP3    H271846   5.279   1.682   0.775 -0.6693  1.1935  2.1444
16811TIP3   OH271847   3.926   1.543   3.502  0.7817  0.4306 -0.2989
16811TIP3    H171848   3.898   1.460   3.540  3.4645 -0.4999 -0.2536
16811TIP3    H271849   3.962   1.520   3.417  0.8009  1.6430 -0.6248
16812TIP3   OH271850   0.868   2.143   3.809  0.0049  0.1039 -0.1239
16812TIP3    H171851   0.830   2.186   3.732 -1.7906 -1.7291 -0.3122
16812TIP3    H271852   0.950   2.105   3.778 -0.4453 -0.1582 -0.9964
16813TIP3   OH271853   1.256   1.812   1.368  0.9052 -0.2460 -0.2611
16813TIP3    H171854   1.216   1.794   1.453 -1.2042  1.1212 -0.9254
16813TIP3    H271855   1.305   1.893   1.381 -0.1414  0.4460 -0.5489
16814TIP3   OH271856   5.496   5.775   2.887  0.0249 -0.7483 -0.3175
16814TIP3    H171857   5.488   5.679   2.884 -1.5557 -0.6958  1.1034
16814TIP3    H271858   5.541   5.793   2.969 -0.2413 -0.2460 -0.2790
16815TIP3   OH271859   4.264   0.218  12.972  0.0731 -0.0712  0.3419
16815TIP3    H171860   4.205   0.153  13.010  0.0000 -1.3280 -1.8856
16815TIP3    H271861   4.352   0.191  13.001  0.0400 -1.1611 -0.5658
16816TIP3   OH271862   6.704   2.372  16.595  0.0358 -0.4060  0.2213
16816TIP3    H171863   6.749   2.412  16.670 -0.7150  1.3056 -0.1986
16816TIP3    H271864   6.734   2.281  16.594  2.6637  0.4156  0.5647
16817TIP3   OH271865   4.265   0.567   5.484  0.1055 -0.2966 -0.0501
16817TIP3    H171866   4.242   0.660   5.485 -2.7289 -0.9292 -0.9565
16817TIP3    H271867   4.279   0.547   5.392 -1.1710 -1.1800 -0.0600
16818TIP3   OH271868   6.240   1.242   1.587  0.2448 -0.1962  0.1664
16818TIP3    H171869   6.300   1.224   1.514 -1.1777  1.0116 -1.3496
16818TIP3    H271870   6.298   1.265   1.660  1.6608  3.0690 -1.8493
16819TIP3   OH271871   3.630   5.651   2.614  0.3378  0.1829 -0.0390
16819TIP3    H171872   3.618   5.728   2.669 -1.0510  0.5489 -0.8391
16819TIP3    H271873   3.670   5.684   2.534 -1.1593  0.2565 -0.7858
16820TIP3   OH271874   0.829   3.370  10.605 -0.2715 -0.0076  0.0976
16820TIP3    H171875   0.760   3.436  10.606 -0.6439 -0.3990  0.2038
16820TIP3    H271876   0.840   3.347  10.513  0.5172  0.8857 -0.0434
16821TIP3   OH271877   1.619   1.700   1.786 -0.2909 -0.0288 -0.3731
16821TIP3    H171878   1.675   1.642   1.838  0.2661 -0.1419 -1.0899
16821TIP3    H271879   1.680   1.763   1.747 -0.7377  0.2190 -0.6700
16822TIP3   OH271880   5.564   0.141   2.967  0.8975  0.1634  0.3818
16822TIP3    H171881   5.486   0.155   3.020  0.5068 -0.5867  0.0094
16822TIP3    H271882   5.635   0.133   3.031  0.3222 -1.4461  0.8320
16823TIP3   OH271883   1.277   4.698   4.654 -0.0043  0.1267  0.0437
16823TIP3    H171884   1.341   4.769   4.658 -1.7130  1.7150 -0.3434
16823TIP3    H271885   1.318   4.632   4.598  1.1057  1.3155 -0.5551
16824TIP3   OH271886   4.677   5.688  13.138  0.1949 -0.3535 -0.1495
16824TIP3    H171887   4.734   5.653  13.071  1.0586  1.1435 -0.2198
16824TIP3    H271888   4.694   5.634  13.215 -1.0952 -2.3327 -1.2071
16825TIP3   OH271889   2.345   2.559  16.696  0.4511  0.0312 -0.0807
16825TIP3    H171890   2.333   2.595  16.608 -1.4040 -0.7672 -0.1754
16825TIP3    H271891   2.275   2.599  16.747  1.6092  0.6039  1.0961
16826TIP3   OH271892   4.350   0.419   0.144  0.0577 -0.0334  0.0569
16826TIP3    H171893   4.445   0.410   0.133  0.1117 -0.7712  1.0123
16826TIP3    H271894   4.312   0.365   0.076  0.3404 -0.8320  0.5284
16827TIP3   OH271895   4.648   1.566   1.149 -0.0269 -0.2595  0.0425
16827TIP3    H171896   4.559   1.535   1.165  0.2274  0.1582  2.5055
16827TIP3    H271897   4.701   1.487   1.150 -0.1717 -0.3559  0.1179
16828TIP3   OH271898   5.873   1.027   0.048  0.0215  0.2480 -0.0627
16828TIP3    H171899   5.967   1.020   0.063  0.2206 -1.0648 -1.8365
16828TIP3    H271900   5.834   1.003   0.132  1.2470  0.8196  0.6927
16829TIP3   OH271901   3.915   6.249  13.824  0.3113 -0.4253 -0.3265
16829TIP3    H171902   3.967   6.170  13.840  0.8032 -0.4493 -1.9531
16829TIP3    H271903   3.979   6.313  13.792 -0.1376  0.5510  0.6635
16830TIP3   OH271904   2.598   4.850   3.559  0.0507  0.1842 -0.3288
16830TIP3    H171905   2.680   4.827   3.602  0.9402  1.5640 -1.2407
16830TIP3    H271906   2.599   4.945   3.554 -0.4748  0.1160 -2.4848
16831TIP3   OH271907   1.894   5.980  15.356 -0.1721  0.0632 -0.1164
16831TIP3    H171908   1.958   5.927  15.404  1.2854  0.3455 -1.7240
16831TIP3    H271909   1.847   6.028  15.424 -0.1800 -1.7915  1.2330
16832TIP3   OH271910   4.948   3.023  16.478 -0.1228 -0.2328  0.5935
16832TIP3    H171911   5.036   2.994  16.502 -0.1401 -1.5399 -0.8822
16832TIP3    H271912   4.961   3.105  16.430  0.2045  0.1529  1.3412
16833TIP3   OH271913   0.364   0.484  15.411  0.1349  0.3487  0.9652
16833TIP3    H171914   0.318   0.430  15.475  0.5297 -0.0937  0.8803
16833TIP3    H271915   0.300   0.500  15.342  0.8208 -2.3184 -0.3691
16834TIP3   OH271916   3.176   5.356  15.350 -0.2117 -0.0090 -0.5345
16834TIP3    H171917   3.133   5.409  15.283 -0.8852  0.7116  0.4404
16834TIP3    H271918   3.104   5.324  15.405  0.5092  1.7938  1.5436
16835TIP3   OH271919   2.032   2.537   3.983  0.6906  0.0229  0.0568
16835TIP3    H171920   2.074   2.621   3.963  0.9605 -0.2698 -0.6159
16835TIP3    H271921   2.005   2.503   3.898  0.6665 -0.6180  0.3194
16836TIP3   OH271922   1.241   3.755  10.740 -0.3773  0.1613 -0.1019
16836TIP3    H171923   1.214   3.842  10.710  1.2460  0.3919 -0.9794
16836TIP3    H271924   1.227   3.698  10.664 -2.2874 -0.5481  0.7494
16837TIP3   OH271925   0.632   3.335   3.479 -0.3342  0.1195  0.1638
16837TIP3    H171926   0.623   3.240   3.479  0.3039  0.0464  1.3682
16837TIP3    H271927   0.605   3.362   3.391 -2.3889 -0.9815  0.4298
16838TIP3   OH271928   3.296   0.157  15.510  0.6621 -0.2297  0.5054
16838TIP3    H171929   3.225   0.137  15.449  1.4424  0.8321 -0.7533
16838TIP3    H271930   3.363   0.200  15.457  1.3666  0.6768  2.0929
16839TIP3   OH271931   0.634   5.058  17.115  0.1699  0.2106 -0.2326
16839TIP3    H171932   0.599   4.969  17.121 -2.5136  1.2427  0.3470
16839TIP3    H271933   0.562   5.114  17.147  2.1138  2.5168  0.2447
16840TIP3   OH271934   5.174   4.328   0.097  0.3012 -0.1853  0.5497
16840TIP3    H171935   5.090   4.281   0.094 -0.5248  1.3358 -1.1779
16840TIP3    H271936   5.222   4.286   0.169 -2.0277 -0.9261  1.7457
16841TIP3   OH271937   1.081   6.434  16.309  0.4526  0.0907 -0.4506
16841TIP3    H171938   1.166   6.392  16.300  0.0868 -0.1987 -2.8512
16841TIP3    H271939   1.018   6.369  16.278 -0.4159  1.1448 -0.9439
16842TIP3   OH271940   1.292   2.836   5.976  0.0807  0.2514  0.1977
16842TIP3    H171941   1.294   2.744   6.003  0.8762  0.3940  0.6295
16842TIP3    H271942   1.275   2.885   6.057  1.9737  0.6477  0.3707
16843TIP3   OH271943   4.640   0.828   1.765 -0.1933  0.4912  0.2235
16843TIP3    H171944   4.721   0.814   1.716 -0.3448  0.1903  0.0551
16843TIP3    H271945   4.574   0.780   1.716 -0.5862  1.2104  0.0520
16844TIP3   OH271946   1.148   1.131   1.097 -0.6985 -0.2266  0.5052
16844TIP3    H171947   1.071   1.100   1.145 -0.2922 -0.3492  1.0810
16844TIP3    H271948   1.120   1.132   1.006 -1.4763 -0.0020  0.7397
16845TIP3   OH271949   2.102   1.628  15.164  0.3774  0.6226 -0.2161
16845TIP3    H171950   2.085   1.535  15.184 -1.0330  0.6389 -1.2571
16845TIP3    H271951   2.112   1.669  15.250 -0.7336 -0.1896  0.3224
16846TIP3   OH271952   1.633   0.818  13.757  0.3045 -0.3261 -0.0353
16846TIP3    H171953   1.595   0.829  13.669  0.0680  0.2535  0.1388
16846TIP3    H271954   1.567   0.854  13.816 -0.4175 -2.5588  0.5537
16847TIP3   OH271955   3.419   1.998   4.109  0.4831 -0.1837  0.2801
16847TIP3    H171956   3.463   1.920   4.074 -0.0191  0.0311 -0.8616
16847TIP3    H271957   3.326   1.982   4.090  0.4735  1.1060 -0.7714
16848TIP3   OH271958   2.052   2.016   5.248  0.1327 -0.6235 -0.0134
16848TIP3    H171959   1.975   1.959   5.250 -0.7319  0.5203  0.2459
16848TIP3    H271960   2.085   2.010   5.159 -0.2682 -1.1314 -0.1277
16849TIP3   OH271961   2.388   2.146   4.998 -0.1148  0.1959  0.1966
16849TIP3    H171962   2.377   2.231   4.955 -0.2785  1.2489  2.2323
16849TIP3    H271963   2.461   2.160   5.059  0.2662 -1.3089  0.0878
16850TIP3   OH271964   3.261   6.180   2.132 -0.0555 -0.0247 -0.2678
16850TIP3    H171965   3.194   6.134   2.183 -0.0261 -0.6848 -0.8266
16850TIP3    H271966   3.344   6.156   2.174 -0.0828 -0.0030 -0.1998
16851TIP3   OH271967   1.993   2.408   5.057 -0.5256 -1.0875 -0.0220
16851TIP3    H171968   1.950   2.323   5.053  0.0392 -1.3283 -0.9451
16851TIP3    H271969   2.078   2.395   5.014 -0.5424  0.0002 -0.3998
16852TIP3   OH271970   6.180   1.222   0.671  0.2398  0.4983  0.1657
16852TIP3    H171971   6.155   1.272   0.749  0.7176  0.3220  0.4358
16852TIP3    H271972   6.199   1.288   0.604  0.7457  0.6789  0.4847
16853TIP3   OH271973   3.452   5.564   0.168  0.3805 -0.3757 -0.0341
16853TIP3    H171974   3.425   5.636   0.111  0.4523 -1.6364 -1.7125
16853TIP3    H271975   3.543   5.583   0.191  0.3390  0.1638 -0.3186
16854TIP3   OH271976   0.945   4.269   2.572 -0.0040 -0.6294 -0.2183
16854TIP3    H171977   0.963   4.244   2.663 -1.3000  2.9661  1.1132
16854TIP3    H271978   1.032   4.287   2.535  0.5838 -2.7429  0.0864
16855TIP3   OH271979   1.464   2.238  11.152 -0.4275 -0.0906 -0.0104
16855TIP3    H171980   1.405   2.250  11.226 -0.1674 -0.4670  0.2597
16855TIP3    H271981   1.413   2.188  11.088 -0.6168  0.1468 -0.0473
16856TIP3   OH271982   2.239   5.279  16.576  0.0397 -0.5079  0.2940
16856TIP3    H171983   2.229   5.212  16.508 -2.0605 -2.0659  2.0312
16856TIP3    H271984   2.315   5.250  16.627  0.9928  0.1117 -0.7471
16857TIP3   OH271985   4.276   5.412  13.241  0.4903 -0.1078  0.1507
16857TIP3    H171986   4.189   5.373  13.235 -0.0401  1.0533  0.0806
16857TIP3    H271987   4.302   5.428  13.150 -0.0107  1.2346  0.2380
16858TIP3   OH271988   6.265   0.705   3.905 -0.1981 -0.3956 -0.0602
16858TIP3    H171989   6.220   0.778   3.947  0.0290 -0.0444 -0.4242
16858TIP3    H271990   6.196   0.658   3.858 -0.2899 -0.2326 -0.0866
16859TIP3   OH271991   6.219   0.176   5.019 -0.5729  0.0697  0.4243
16859TIP3    H171992   6.183   0.192   4.931 -2.1523 -1.4813  0.7594
16859TIP3    H271993   6.261   0.090   5.012  1.3227  0.9644  0.5902
16860TIP3   OH271994   1.839   5.043  13.798 -0.0266 -0.3830 -0.2806
16860TIP3    H171995   1.774   5.019  13.865 -0.2377 -0.5438 -0.5420
16860TIP3    H271996   1.881   5.121  13.833  0.2712 -0.7997  0.3142
16861TIP3   OH271997   4.546   1.944  11.194  0.1135 -0.2564 -0.3816
16861TIP3    H171998   4.475   1.982  11.244  2.6255  1.6568  1.8447
16861TIP3    H271999   4.581   2.016  11.142  1.8279 -0.5992  0.2374
16862TIP3   OH272000   3.798   4.476  11.622 -0.7364 -0.6059 -0.4595
16862TIP3    H172001   3.724   4.505  11.570 -0.9823  0.7219  0.6003
16862TIP3    H272002   3.823   4.392  11.584 -0.8874  0.3513 -2.7042
16863TIP3   OH272003   6.731   1.412  13.796  0.0180  0.2109 -0.2486
16863TIP3    H172004   6.766   1.368  13.719  0.8547  1.0074 -0.3309
16863TIP3    H272005   6.638   1.422  13.777 -0.1220 -1.2048 -0.3745
16864TIP3   OH272006   5.670   3.668   3.792 -0.1198  0.4369 -0.5323
16864TIP3    H172007   5.688   3.607   3.864  1.0474 -0.3498 -1.4744
16864TIP3    H272008   5.592   3.633   3.750 -0.5612  0.6663  0.0784
16865TIP3   OH272009   5.114   6.191   3.675  0.2254  0.1584 -0.2772
16865TIP3    H172010   5.149   6.230   3.756  2.5198  0.5174 -1.3977
16865TIP3    H272011   5.062   6.117   3.705  1.6690 -0.1692  1.5128
16866TIP3   OH272012   5.730   4.406  11.644 -0.1558  0.6143 -0.2129
16866TIP3    H172013   5.675   4.469  11.597 -0.6560 -1.1746 -2.0774
16866TIP3    H272014   5.705   4.321  11.609  2.2108 -0.4419  0.5469
16867TIP3   OH272015   0.731   1.330  10.493  0.1305 -0.2721 -0.1500
16867TIP3    H172016   0.717   1.235  10.493 -1.5132 -0.0576 -0.4936
16867TIP3    H272017   0.801   1.344  10.556  1.7677 -1.9019 -1.5357
16868TIP3   OH272018   5.217   3.373   3.972 -0.2866  0.3917  0.5621
16868TIP3    H172019   5.127   3.397   3.950 -0.4803 -0.2314  0.6740
16868TIP3    H272020   5.209   3.287   4.014  0.5713 -0.6267 -1.3074
16869TIP3   OH272021   0.200   6.319   0.503  0.4211  0.1618 -0.2181
16869TIP3    H172022   0.211   6.338   0.409  0.8638 -0.3126 -0.2671
16869TIP3    H272023   0.289   6.301   0.534 -0.0495 -2.5688 -0.3533
16870TIP3   OH272024   5.072   5.071  16.637  0.3283 -0.7123 -0.0385
16870TIP3    H172025   5.120   5.051  16.557  1.1855  0.2847  0.2073
16870TIP3    H272026   5.139   5.104  16.697 -0.4171 -0.8065  0.8538
16871TIP3   OH272027   1.498   6.034   4.018  0.5405  0.6368 -0.2919
16871TIP3    H172028   1.456   6.102   4.071  1.8465  0.1694  1.4070
16871TIP3    H272029   1.574   6.078   3.980 -0.0394  0.7975 -1.2835
16872TIP3   OH272030   4.622   6.656  13.790  0.3042  0.2540  0.1205
16872TIP3    H172031   4.600   6.589  13.724  0.6090  1.6517 -1.4302
16872TIP3    H272032   4.706   6.691  13.762  1.6774 -0.8683  2.6841
16873TIP3   OH272033   3.266   5.459   0.571 -0.0302 -0.6184 -0.2811
16873TIP3    H172034   3.171   5.459   0.583  0.1823  1.8156  1.8276
16873TIP3    H272035   3.284   5.543   0.527  1.2480 -0.6226  0.2247
16874TIP3   OH272036   0.643   3.006  13.565 -0.6754  1.2285  0.3284
16874TIP3    H172037   0.621   2.917  13.592  0.8110  0.6200 -0.4330
16874TIP3    H272038   0.691   3.043  13.639  0.5058  0.6890 -0.1621
16875TIP3   OH272039   5.405   0.481  15.084  0.5034  0.2582  0.3764
16875TIP3    H172040   5.342   0.543  15.121 -0.9071 -0.2157 -1.1517
16875TIP3    H272041   5.363   0.396  15.092  0.5503  0.0393 -1.4588
16876TIP3   OH272042   4.481   4.698   1.083 -0.1809  0.3881  0.0392
16876TIP3    H172043   4.509   4.714   0.993 -0.2641  1.4887  0.2056
16876TIP3    H272044   4.398   4.651   1.075  1.2663 -2.2080 -0.4616
16877TIP3   OH272045   4.843   2.391   6.549 -0.0800  0.0957 -0.4579
16877TIP3    H172046   4.770   2.448   6.523 -0.7981 -0.5024  0.2272
16877TIP3    H272047   4.907   2.400   6.478 -1.8369 -1.1854 -2.2804
16878TIP3   OH272048   3.180   3.114   1.689 -0.0717 -0.9003  0.4195
16878TIP3    H172049   3.143   3.115   1.600 -1.2926 -0.0449  0.9283
16878TIP3    H272050   3.152   3.197   1.727  0.0334 -1.4898  1.7923
16879TIP3   OH272051   3.415   4.075  12.933  0.1035  0.7731  0.2849
16879TIP3    H172052   3.362   4.008  12.888 -0.9959  1.2319  0.8815
16879TIP3    H272053   3.454   4.029  13.007  0.3850  0.4820 -0.0404
16880TIP3   OH272054   6.071   6.430  12.892  0.3938  0.7389 -0.3530
16880TIP3    H172055   6.164   6.449  12.905  0.0362  0.9116  2.1922
16880TIP3    H272056   6.070   6.341  12.857  1.5253  0.8143 -0.6087
16881TIP3   OH272057   5.239   0.521   2.781  0.8356 -0.2725 -0.0218
16881TIP3    H172058   5.299   0.483   2.716  0.6405  0.4170 -0.6136
16881TIP3    H272059   5.296   0.571   2.839  0.9851 -0.6942  0.1922
16882TIP3   OH272060   1.903   0.466   3.632 -0.4375 -0.7262 -0.1643
16882TIP3    H172061   1.976   0.529   3.632 -1.3303  0.3387 -0.3382
16882TIP3    H272062   1.943   0.383   3.655  0.6941  0.0177  0.6515
16883TIP3   OH272063   3.117   6.713  14.687  0.4099  0.0780 -0.4368
16883TIP3    H172064   3.124   6.641  14.623  1.4387 -0.3064  0.1000
16883TIP3    H272065   3.158   6.788  14.643 -0.8178  0.3904 -1.0661
16884TIP3   OH272066   3.053   4.115  11.617  0.0081 -0.5198 -0.3012
16884TIP3    H172067   3.026   4.030  11.651  1.0468 -0.6581  0.2072
16884TIP3    H272068   2.982   4.141  11.558 -0.6942 -1.3629  0.1583
16885TIP3   OH272069   2.267   0.865   5.175 -0.1524 -0.2162 -0.1970
16885TIP3    H172070   2.236   0.781   5.209 -1.5831  0.1892 -0.4751
16885TIP3    H272071   2.320   0.842   5.099 -0.3529 -0.8827 -0.1381
16886TIP3   OH272072   5.017   4.823  11.615 -0.0490 -0.7121  0.3068
16886TIP3    H172073   4.924   4.801  11.621 -0.8307  2.3989  0.7589
16886TIP3    H272074   5.030   4.849  11.524  0.2133 -0.4645  0.4132
16887TIP3   OH272075   2.390   6.506   1.990 -0.1522  0.0498  0.0844
16887TIP3    H172076   2.431   6.531   1.907  0.6927 -0.0679  0.4530
16887TIP3    H272077   2.339   6.428   1.969 -0.6641  0.5440 -0.5124
16888TIP3   OH272078   4.851   6.103  16.319 -0.3629  0.5111 -0.3121
16888TIP3    H172079   4.801   6.159  16.378  0.8630  1.3070 -0.0213
16888TIP3    H272080   4.919   6.065  16.374 -0.9530 -0.9885 -0.5932
16889TIP3   OH272081   6.512   3.147  13.866  0.2729  0.4363 -0.3044
16889TIP3    H172082   6.540   3.238  13.875  0.6688  0.1406  2.0189
16889TIP3    H272083   6.417   3.150  13.873  0.3110  0.6515  0.1586
16890TIP3   OH272084   2.027   5.625  12.396 -1.0300  0.0611  0.1531
16890TIP3    H172085   2.077   5.543  12.390  0.0737  0.7756 -0.6922
16890TIP3    H272086   2.003   5.631  12.488  2.2676  0.7066  1.0496
16891TIP3   OH272087   4.720   3.956  12.867  0.5874 -0.5577  0.2468
16891TIP3    H172088   4.643   3.899  12.877  0.7707 -0.8624 -0.0837
16891TIP3    H272089   4.780   3.929  12.936  0.3933 -0.3110  0.5128
16892TIP3   OH272090   6.073   2.680   0.102 -0.0175 -0.3048 -0.3839
16892TIP3    H172091   6.110   2.728   0.028 -1.1968  0.3514 -0.5618
16892TIP3    H272092   6.017   2.744   0.146  1.4286 -0.4078  1.6461
16893TIP3   OH272093   0.268   4.953  13.182  0.3681  0.1984  0.0306
16893TIP3    H172094   0.332   5.019  13.210  1.9370 -0.4310 -2.0453
16893TIP3    H272095   0.304   4.916  13.102 -1.7395 -1.4336 -0.2028
16894TIP3   OH272096   3.281   4.772   4.159 -0.0065 -0.2229 -0.3574
16894TIP3    H172097   3.232   4.697   4.192 -0.8171  0.7599  0.7366
16894TIP3    H272098   3.298   4.751   4.067  2.0759 -2.8981  0.5688
16895TIP3   OH272099   5.198   6.574   5.798 -0.4958 -0.1674 -0.2479
16895TIP3    H172100   5.214   6.488   5.761 -0.2167 -0.3694  0.3388
16895TIP3    H272101   5.159   6.625   5.726 -1.4038 -1.0157 -0.3664
16896TIP3   OH272102   6.721   3.322  16.529  0.2226 -0.4756  0.6241
16896TIP3    H172103   6.801   3.330  16.580  0.3177 -1.3657  0.6275
16896TIP3    H272104   6.654   3.367  16.581  0.3176 -1.3793  1.5318
16897TIP3   OH272105   2.738   2.030  14.047  0.1805  0.3416  0.3169
16897TIP3    H172106   2.672   2.037  13.978  0.1303 -0.3416  0.2896
16897TIP3    H272107   2.761   2.121  14.068 -0.0508  0.5600 -0.3603
16898TIP3   OH272108   3.998   3.347   2.791  0.5079  0.1048  0.2687
16898TIP3    H172109   4.049   3.355   2.711  0.5475  1.1551  0.3960
16898TIP3    H272110   3.937   3.276   2.774 -0.9301  1.7319 -1.4670
16899TIP3   OH272111   3.321   2.599  10.741  0.1838 -0.2797 -0.2334
16899TIP3    H172112   3.278   2.552  10.669 -1.4646  1.2282 -0.2822
16899TIP3    H272113   3.276   2.570  10.820 -0.9750  1.3041 -0.2806
16900TIP3   OH272114   0.411   2.606  16.569  0.4544 -0.2466 -0.6281
16900TIP3    H172115   0.435   2.526  16.523  4.1635  0.9621 -0.9140
16900TIP3    H272116   0.392   2.577  16.658 -0.5527 -1.7212 -1.2952
16901TIP3   OH272117   6.205   3.282  13.430  0.2015 -0.0503  0.1276
16901TIP3    H172118   6.120   3.248  13.459 -1.1567  0.2853 -3.2139
16901TIP3    H272119   6.206   3.373  13.461  0.0613 -0.5182  1.5496
16902TIP3   OH272120   2.983   0.615  14.254  0.4899  0.9755  0.5706
16902TIP3    H172121   2.972   0.520  14.261  1.9662  0.4313 -3.1611
16902TIP3    H272122   2.899   0.646  14.220  1.3109  0.4081 -2.1001
16903TIP3   OH272123   0.413   0.459   4.768 -0.3209  0.4682  0.4892
16903TIP3    H172124   0.328   0.487   4.803 -1.0392  1.3135 -1.8014
16903TIP3    H272125   0.394   0.379   4.719  0.4854 -0.1484  1.1599
16904TIP3   OH272126   5.049   1.948  11.535 -0.3491 -0.0796 -0.1247
16904TIP3    H172127   5.070   2.022  11.593  0.0279  0.0832 -0.4616
16904TIP3    H272128   5.039   1.988  11.448  0.6612 -0.5301 -0.4559
16905TIP3   OH272129   0.735   1.202  10.778 -0.7632 -0.5026  0.7567
16905TIP3    H172130   0.704   1.155  10.700 -0.3371 -1.3949  1.1277
16905TIP3    H272131   0.788   1.274  10.742  1.0428 -2.0475  0.2617
16906TIP3   OH272132   1.837   5.128   1.264 -0.5756 -0.4466 -0.1425
16906TIP3    H172133   1.785   5.185   1.208 -1.3659 -1.6662 -0.6552
16906TIP3    H272134   1.775   5.064   1.298  0.0524 -0.2092  1.4955
16907TIP3   OH272135   0.839   3.531   0.051 -0.2041 -0.5445  0.4615
16907TIP3    H172136   0.814   3.546  -0.040 -2.9771 -0.7100  1.1641
16907TIP3    H272137   0.886   3.611   0.076  0.6486 -0.5323 -1.1100
16908TIP3   OH272138   0.555   1.122  13.952 -0.1051  0.1953 -0.0854
16908TIP3    H172139   0.524   1.036  13.924  0.8320 -0.1313 -0.1529
16908TIP3    H272140   0.604   1.104  14.032  2.1199  0.3161 -1.3834
16909TIP3   OH272141   6.493   6.440   0.427 -0.1568 -0.1479 -0.4052
16909TIP3    H172142   6.448   6.402   0.351  0.0304 -0.2092 -0.4873
16909TIP3    H272143   6.539   6.516   0.391 -0.0184 -0.2130 -0.3646
16910TIP3   OH272144   6.274   4.681   0.974 -0.8032  0.5417 -0.1186
16910TIP3    H172145   6.182   4.670   0.950 -1.1491  1.9717  0.4879
16910TIP3    H272146   6.308   4.591   0.980 -1.8178  0.0381 -1.5774
16911TIP3   OH272147   2.712   3.707   5.554 -0.3240 -0.6036  0.0856
16911TIP3    H172148   2.763   3.678   5.479 -1.8001  0.9204 -1.5695
16911TIP3    H272149   2.764   3.778   5.593 -1.3054  1.1960 -1.8143
16912TIP3   OH272150   1.717   1.720   4.259 -0.4305  0.3552  0.7125
16912TIP3    H172151   1.803   1.710   4.299 -1.0899  0.5500  2.2123
16912TIP3    H272152   1.713   1.812   4.234 -0.5535  0.5570  1.4696
16913TIP3   OH272153   2.448   3.603   5.492  0.0803  0.1077  0.4975
16913TIP3    H172154   2.537   3.621   5.524  0.5567 -1.1458 -0.1063
16913TIP3    H272155   2.410   3.547   5.559  0.3209 -0.7146 -0.0479
16914TIP3   OH272156   6.776   3.549   3.835  0.3193  0.0164  0.3387
16914TIP3    H172157   6.858   3.586   3.867  0.0044 -0.1287  1.3376
16914TIP3    H272158   6.755   3.600   3.757  1.5003 -0.1296 -0.0938
16915TIP3   OH272159   4.670   5.902   4.177 -0.1874  0.2733 -0.0237
16915TIP3    H172160   4.609   5.876   4.245 -1.9005 -0.3669 -1.7666
16915TIP3    H272161   4.621   5.892   4.095  3.0652 -2.9305 -1.7243
16916TIP3   OH272162   1.658   4.524  12.423 -0.8208  0.1373  0.0725
16916TIP3    H172163   1.634   4.555  12.510 -1.3708  0.3586 -0.1541
16916TIP3    H272164   1.708   4.596  12.385 -1.6404  0.5428 -0.2550
16917TIP3   OH272165   5.980   4.653  13.907 -0.5909 -0.1769  0.6137
16917TIP3    H172166   6.008   4.561  13.911 -1.2787 -0.3861  0.6905
16917TIP3    H272167   5.949   4.671  13.996  0.5974  0.4733  0.9101
16918TIP3   OH272168   1.901   4.100  10.562  0.0069  0.1366  0.0021
16918TIP3    H172169   1.865   4.078  10.648  1.8513 -2.8453  0.0789
16918TIP3    H272170   1.833   4.073  10.500  0.7797 -2.5259  0.2929
16919TIP3   OH272171   3.628   4.466   1.675 -0.2439  0.1053  0.1685
16919TIP3    H172172   3.581   4.533   1.625  0.5846  0.3777 -0.2391
16919TIP3    H272173   3.684   4.423   1.611  1.7052  1.2384  1.0988
16920TIP3   OH272174   5.014   5.114   3.233 -0.1530 -0.1319  0.1899
16920TIP3    H172175   4.992   5.058   3.308 -0.4373  0.9318  0.9109
16920TIP3    H272176   4.932   5.123   3.185 -0.4027  0.6328  0.7378
16921TIP3   OH272177   5.869   2.295   5.924  0.3681 -0.7329  0.1689
16921TIP3    H172178   5.819   2.359   5.873 -0.4269 -1.1886  0.3590
16921TIP3    H272179   5.957   2.330   5.928 -0.1820  0.6050  0.7100
16922TIP3   OH272180   1.722   5.548   1.895 -0.0342 -0.1591 -0.6751
16922TIP3    H172181   1.724   5.612   1.824  1.1656  0.8822  0.2670
16922TIP3    H272182   1.664   5.586   1.960  0.2235 -0.3173 -0.3548
16923TIP3   OH272183   2.159   6.617   5.397  0.1211  0.2723  0.7065
16923TIP3    H172184   2.065   6.614   5.384  0.0194 -0.7031  1.5654
16923TIP3    H272185   2.195   6.561   5.327  0.2151  2.0748 -0.7416
16924TIP3   OH272186   5.803   0.946   2.898 -0.0048 -0.2042  0.1917
16924TIP3    H172187   5.715   0.961   2.861  1.1333  0.0134 -2.5794
16924TIP3    H272188   5.847   1.030   2.888  1.2213 -0.9166 -0.5215
16925TIP3   OH272189   4.594   5.354   3.082 -0.0498 -0.2997 -0.1740
16925TIP3    H172190   4.591   5.445   3.110 -1.7519 -0.6095  0.7541
16925TIP3    H272191   4.596   5.303   3.163  0.4448 -1.0972 -0.6765
16926TIP3   OH272192   6.031   2.251  14.607  0.5230 -0.1715  0.7929
16926TIP3    H172193   5.941   2.264  14.638  0.2887 -0.3450  0.1911
16926TIP3    H272194   6.083   2.314  14.657  0.2891 -1.0849  2.2138
16927TIP3   OH272195   1.623   5.089   5.915 -0.0964  0.0695 -0.1654
16927TIP3    H172196   1.583   5.167   5.876  0.8387  0.2564 -0.7602
16927TIP3    H272197   1.665   5.122   5.995 -0.8949 -0.0838  0.3303
16928TIP3   OH272198   2.954   2.003  13.576  0.1434  0.0409 -0.3017
16928TIP3    H172199   3.006   1.926  13.551  0.8961  0.4616 -0.0437
16928TIP3    H272200   2.987   2.073  13.520 -1.5416 -0.1553 -1.5541
16929TIP3   OH272201   2.986   4.122   4.873 -0.1298 -0.1721 -0.6371
16929TIP3    H172202   3.023   4.099   4.788  1.8768  1.3321 -0.2262
16929TIP3    H272203   2.919   4.187   4.854  0.1186 -0.0495 -1.0988
16930TIP3   OH272204   6.329   3.163  11.647  0.1214  0.2645 -0.0901
16930TIP3    H172205   6.319   3.071  11.624  0.4369  0.0832  0.4731
16930TIP3    H272206   6.301   3.167  11.739 -0.5143  0.8467 -0.3101
16931TIP3   OH272207   6.407   6.020   4.085 -0.2765  0.4114  0.5273
16931TIP3    H172208   6.396   6.040   3.992 -1.3917 -0.2872  0.5016
16931TIP3    H272209   6.461   6.091   4.119 -1.6465  1.8078 -0.1841
16932TIP3   OH272210   0.398   1.214   1.825 -0.0874 -0.1247 -0.0602
16932TIP3    H172211   0.451   1.208   1.905 -0.0927  0.3942 -0.0133
16932TIP3    H272212   0.377   1.307   1.817  3.6191  0.6002 -3.0356
16933TIP3   OH272213   1.446   2.807   0.057 -0.3921 -0.4069 -0.5273
16933TIP3    H172214   1.485   2.865   0.122 -1.4172 -0.1364 -0.1406
16933TIP3    H272215   1.520   2.771   0.009  0.3979 -0.7198  0.8919
16934TIP3   OH272216   0.807   1.345   4.009  0.3561 -0.6214 -0.0616
16934TIP3    H172217   0.853   1.308   4.084 -0.2809 -1.8818 -0.2849
16934TIP3    H272218   0.813   1.278   3.941 -1.7026 -0.7720 -0.1237
16935TIP3   OH272219   4.831   2.442  14.253  0.5726 -0.8988 -0.5625
16935TIP3    H172220   4.823   2.355  14.293  1.9805 -1.0866 -0.6639
16935TIP3    H272221   4.792   2.432  14.166 -0.9098 -0.9460  0.0937
16936TIP3   OH272222   5.516   1.691   3.527 -0.3831  0.2275  0.8773
16936TIP3    H172223   5.586   1.746   3.490 -1.0231  1.1346  1.0050
16936TIP3    H272224   5.528   1.606   3.484  0.4650  0.5270  0.4922
16937TIP3   OH272225   1.354   3.830   2.967  0.1093  0.1211  0.1793
16937TIP3    H172226   1.436   3.790   2.995 -0.4283 -0.5448  0.8065
16937TIP3    H272227   1.329   3.887   3.040  0.4404  0.9503 -0.3569
16938TIP3   OH272228   3.785   3.788   3.070  0.0550  0.1693  0.1704
16938TIP3    H172229   3.821   3.710   3.029 -2.6970 -0.0028 -2.1093
16938TIP3    H272230   3.734   3.830   3.000 -0.3180  2.8094  1.9618
16939TIP3   OH272231   1.510   3.267  11.313  0.2062 -0.0292  0.2651
16939TIP3    H172232   1.524   3.333  11.246  1.2792  0.5166  1.0058
16939TIP3    H272233   1.456   3.311  11.379 -0.4013 -0.3902  0.0025
16940TIP3   OH272234   4.447   2.677   5.130  0.1497  0.2395 -0.6980
16940TIP3    H172235   4.395   2.599   5.151  0.1493  0.3506 -0.2915
16940TIP3    H272236   4.393   2.750   5.159  0.5335  0.3562 -0.2738
16941TIP3   OH272237   0.873   0.421  15.597  0.4223 -0.3918 -0.2988
16941TIP3    H172238   0.894   0.378  15.680  1.7216 -2.3068 -1.5662
16941TIP3    H272239   0.777   0.417  15.592  0.3536 -0.6432  0.8905
16942TIP3   OH272240   3.715   0.849   3.028 -0.0585 -0.3503 -0.5421
16942TIP3    H172241   3.677   0.786   2.967 -0.4075  1.7279 -2.5516
16942TIP3    H272242   3.807   0.855   3.003 -0.0198 -0.0899 -0.3449
16943TIP3   OH272243   4.842   1.406  14.015 -0.2447 -0.4122  0.1774
16943TIP3    H172244   4.825   1.497  13.990  1.4040  0.1591  1.0958
16943TIP3    H272245   4.895   1.371  13.944 -0.8975 -0.6783 -0.1865
16944TIP3   OH272246   5.508   0.663  13.138 -0.3128  0.1935 -0.1937
16944TIP3    H172247   5.577   0.726  13.119  0.7781 -0.5371  1.2536
16944TIP3    H272248   5.432   0.716  13.163  0.2451  0.9454 -0.1042
16945TIP3   OH272249   5.531   0.583   1.033  0.6652  0.3163  0.1364
16945TIP3    H172250   5.544   0.590   0.939  3.3744  0.3683  0.4764
16945TIP3    H272251   5.619   0.572   1.069 -0.4909 -1.8614  2.4809
16946TIP3   OH272252   6.547   3.491   0.904 -0.0241 -0.7361 -0.2183
16946TIP3    H172253   6.476   3.554   0.917  0.0259 -0.6384 -0.4125
16946TIP3    H272254   6.619   3.524   0.958 -0.1962 -0.9505  0.1430
16947TIP3   OH272255   5.064   0.835   3.891  0.3362  0.0367  0.1510
16947TIP3    H172256   5.005   0.797   3.956  0.5873  0.4103  0.6026
16947TIP3    H272257   5.050   0.930   3.899 -1.2292 -0.0016 -1.8580
16948TIP3   OH272258   2.029   1.821  14.311  0.0085  0.4107 -0.7608
16948TIP3    H172259   2.119   1.806  14.340  0.2165 -0.7514 -1.9675
16948TIP3    H272260   1.975   1.780  14.379  0.3529  1.7365  0.3370
16949TIP3   OH272261   2.662   1.822  16.159  0.0884 -0.6195 -0.6926
16949TIP3    H172262   2.692   1.911  16.178 -0.4715 -0.7856  1.0406
16949TIP3    H272263   2.728   1.765  16.198  0.4835 -0.9690 -1.8602
16950TIP3   OH272264   1.540   4.474   3.471  0.0896  0.1603  0.0668
16950TIP3    H172265   1.445   4.479   3.472  0.1098  0.4501  0.4811
16950TIP3    H272266   1.566   4.485   3.562  0.5789  1.2458 -0.1933
16951TIP3   OH272267   0.018   3.323   2.785  1.0604 -0.3115  0.1487
16951TIP3    H172268   0.038   3.264   2.712 -3.1002 -1.2034 -0.3617
16951TIP3    H272269   0.076   3.295   2.855  2.0800 -2.2610 -1.4370
16952TIP3   OH272270   0.981   5.235  14.862 -0.1269  0.7098 -0.6507
16952TIP3    H172271   1.044   5.164  14.848  1.4689  1.7140  1.2456
16952TIP3    H272272   0.911   5.195  14.913  0.0945  0.1685 -0.7605
16953TIP3   OH272273   2.839   5.760  13.404 -0.1233  0.4333  0.1179
16953TIP3    H172274   2.877   5.807  13.330  1.8063  1.1209  1.5128
16953TIP3    H272275   2.818   5.674  13.369 -2.2869  1.7655 -2.0772
16954TIP3   OH272276   0.960   5.574   4.333 -0.7771  0.1944  0.1499
16954TIP3    H172277   0.997   5.661   4.337 -1.4394  0.4763  0.2191
16954TIP3    H272278   0.967   5.549   4.241 -0.2525  0.1674  0.1951
16955TIP3   OH272279   5.469   3.234   6.382 -0.6217 -0.5324  0.2421
16955TIP3    H172280   5.451   3.294   6.455  2.1621  2.1829 -1.1858
16955TIP3    H272281   5.537   3.176   6.414 -1.2396 -1.0317  0.6557
16956TIP3   OH272282   1.753   4.469  11.317  0.1609  0.6330 -0.1558
16956TIP3    H172283   1.683   4.531  11.337 -0.5864 -0.0727 -0.5328
16956TIP3    H272284   1.785   4.440  11.402 -1.9165 -1.1580  0.0568
16957TIP3   OH272285   4.240   3.426   1.869  0.4548 -1.4098  0.0023
16957TIP3    H172286   4.177   3.359   1.843  0.9002 -1.6584 -0.4613
16957TIP3    H272287   4.222   3.441   1.962 -0.7887 -0.9178 -0.3091
16958TIP3   OH272288   5.466   2.706  17.142  0.7985 -0.0278 -0.4685
16958TIP3    H172289   5.441   2.665  17.225 -0.2985 -0.0582 -0.8027
16958TIP3    H272290   5.514   2.638  17.095 -0.7155 -0.8545 -0.8718
16959TIP3   OH272291   3.920   0.931  10.379 -0.2379 -0.3020  0.0291
16959TIP3    H172292   3.975   0.976  10.315  0.0693  2.3726  2.0997
16959TIP3    H272293   3.842   0.986  10.387 -1.0733 -1.5471  0.6360
16960TIP3   OH272294   3.684   1.049  10.398  0.1442 -0.0037 -0.8477
16960TIP3    H172295   3.601   1.048  10.351  0.4679  1.6011 -1.4823
16960TIP3    H272296   3.665   1.090  10.482  0.0421 -0.8100 -0.4677
16961TIP3   OH272297   5.716   6.424   1.728  0.6186 -0.3228  0.1912
16961TIP3    H172298   5.689   6.347   1.777 -0.8734  0.0818  0.0473
16961TIP3    H272299   5.771   6.390   1.657  0.2063 -1.2241  0.2953
16962TIP3   OH272300   1.275   4.190   5.340 -0.2134 -0.0729 -0.4499
16962TIP3    H172301   1.212   4.214   5.407 -2.0048 -1.7926 -1.4517
16962TIP3    H272302   1.277   4.265   5.280 -1.1647  0.0735 -0.3025
16963TIP3   OH272303   3.766   3.427  14.241 -0.3643 -0.0303 -0.0151
16963TIP3    H172304   3.676   3.411  14.271 -0.6623 -0.1788 -0.9885
16963TIP3    H272305   3.781   3.360  14.175  0.9130 -0.8045  1.0361
16964TIP3   OH272306   4.100   4.413   5.820 -0.0906  0.1403  0.8578
16964TIP3    H172307   4.044   4.454   5.754 -1.3148 -0.9544  1.2013
16964TIP3    H272308   4.121   4.327   5.785  2.4714  1.0168  0.1481
16965TIP3   OH272309   2.187   0.761  12.458  0.0734  0.2217  0.2337
16965TIP3    H172310   2.213   0.744  12.368 -0.7368  0.3482 -0.0285
16965TIP3    H272311   2.093   0.744  12.460  0.3898 -1.4682  1.4786
16966TIP3   OH272312   0.241   4.371   4.356 -0.0033  0.4961 -0.0854
16966TIP3    H172313   0.305   4.301   4.371 -0.5480 -0.0085 -0.1373
16966TIP3    H272314   0.226   4.408   4.444  2.4128  2.4288 -0.4148
16967TIP3   OH272315   6.325   3.644   0.899  0.1809 -0.1885  0.6862
16967TIP3    H172316   6.320   3.740   0.897  1.8578 -0.0822  0.7770
16967TIP3    H272317   6.279   3.616   0.820 -1.4490  0.6321  1.3259
16968TIP3   OH272318   6.399   5.529  15.955 -0.0526 -0.0591 -0.0436
16968TIP3    H172319   6.426   5.526  16.047  0.5175 -2.1008 -0.2652
16968TIP3    H272320   6.435   5.612  15.923  0.7165  0.1370  1.2737
16969TIP3   OH272321   5.649   4.403   2.687  0.1126  0.2807  0.5550
16969TIP3    H172322   5.619   4.359   2.607  1.0724  0.6042  0.0156
16969TIP3    H272323   5.734   4.362   2.705 -1.4542 -2.0109  3.1473
16970TIP3   OH272324   1.540   1.781  16.019  0.8373  0.2259  0.3920
16970TIP3    H172325   1.560   1.874  16.009  0.7315  0.3371  1.1586
16970TIP3    H272326   1.616   1.744  16.064  0.8715 -0.0561  0.1045
16971TIP3   OH272327   5.362   6.455   4.604  0.6602  0.2763 -0.6333
16971TIP3    H172328   5.267   6.449   4.618  0.5300 -0.4147 -1.7475
16971TIP3    H272329   5.385   6.372   4.564  1.3576  1.3687 -2.5415
16972TIP3   OH272330   1.660   1.975  10.745 -0.3747  0.0972 -0.1915
16972TIP3    H172331   1.696   2.062  10.728 -0.2457 -0.0792 -0.8396
16972TIP3    H272332   1.580   1.971  10.692 -2.1364  1.0076  2.3170
16973TIP3   OH272333   3.841   2.776   5.916  0.5520 -0.1981  0.1434
16973TIP3    H172334   3.897   2.699   5.908 -1.1249 -1.3055 -1.3539
16973TIP3    H272335   3.784   2.773   5.839 -1.7936  0.6932  1.7771
16974TIP3   OH272336   5.501   0.826   1.714  0.0559 -0.7660  0.1794
16974TIP3    H172337   5.467   0.915   1.706  1.2805 -0.0800  2.3443
16974TIP3    H272338   5.423   0.771   1.718 -0.7243  0.3318  0.3415
16975TIP3   OH272339   3.248   2.281   5.215  0.7000 -0.8103 -0.3776
16975TIP3    H172340   3.324   2.261   5.269  0.7353 -1.7861 -0.7875
16975TIP3    H272341   3.232   2.201   5.164 -1.2536 -1.0048  0.4905
16976TIP3   OH272342   0.691   5.818  15.031 -1.0891 -0.0467 -1.2010
16976TIP3    H172343   0.707   5.888  15.095 -2.5589 -0.4284 -0.3720
16976TIP3    H272344   0.754   5.750  15.054 -2.4967 -0.7547  0.7885
16977TIP3   OH272345   5.972   2.025   6.270 -0.7612  0.5143 -0.4072
16977TIP3    H172346   5.989   2.112   6.307 -0.4585  0.0356  0.6022
16977TIP3    H272347   6.034   1.967   6.315  1.2112  0.2845 -3.3223
16978TIP3   OH272348   3.726   0.931   5.182  0.0795  0.1293  0.1032
16978TIP3    H172349   3.664   0.880   5.130  0.7645 -1.1292  0.5031
16978TIP3    H272350   3.734   0.882   5.264  0.3420  1.1716  0.7065
16979TIP3   OH272351   1.313   3.649   1.789  0.0595 -0.4319  0.0979
16979TIP3    H172352   1.318   3.570   1.843  2.5291 -0.0771  0.4821
16979TIP3    H272353   1.330   3.720   1.850 -0.5488  0.2696 -0.5456
16980TIP3   OH272354   6.552   2.392   0.379 -0.1852 -0.0680  0.0188
16980TIP3    H172355   6.537   2.312   0.328  0.5406  0.4422 -0.9978
16980TIP3    H272356   6.598   2.361   0.458 -0.4513 -0.7255 -0.0753
16981TIP3   OH272357   4.230   1.748   2.641 -0.1232 -0.1692  0.3948
16981TIP3    H172358   4.171   1.813   2.679  0.5974  0.0939  1.0880
16981TIP3    H272359   4.238   1.681   2.709  0.1547 -0.3332  0.2012
16982TIP3   OH272360   0.030   0.657  12.924 -0.1245  0.4028  0.2283
16982TIP3    H172361   0.010   0.681  12.833  0.0951 -0.1956  0.0255
16982TIP3    H272362   0.120   0.686  12.937  0.0724 -0.1384  0.0467
16983TIP3   OH272363   4.203   4.451   4.763  0.7360 -0.3771  0.0168
16983TIP3    H172364   4.163   4.494   4.838 -0.9615 -1.3961 -0.2816
16983TIP3    H272365   4.285   4.415   4.797  1.0360  1.0291  0.8302
16984TIP3   OH272366   4.563   1.827   4.083 -0.1023  0.0417  0.1726
16984TIP3    H172367   4.649   1.789   4.101  0.3506  0.8058 -0.3858
16984TIP3    H272368   4.570   1.864   3.995 -0.9922  0.1548  0.1392
16985TIP3   OH272369   5.606   5.587  16.260  0.2042 -0.8701  0.1467
16985TIP3    H172370   5.535   5.624  16.207 -1.4453  1.2145  3.6358
16985TIP3    H272371   5.582   5.494  16.270 -0.2977 -0.9164 -1.3424
16986TIP3   OH272372   5.298   3.327   1.763  0.7436  0.6725  0.2886
16986TIP3    H172373   5.350   3.323   1.683 -0.3329  0.3405 -0.4048
16986TIP3    H272374   5.358   3.363   1.829  1.9972 -0.1968 -0.3622
16987TIP3   OH272375   2.329   6.595  16.706  0.3765  0.2995 -0.4334
16987TIP3    H172376   2.305   6.627  16.619  0.3470 -0.2779 -0.6404
16987TIP3    H272377   2.245   6.583  16.751  0.4537  2.5204  0.3819
16988TIP3   OH272378   3.302   3.636  12.005 -0.8687  0.1627 -0.5837
16988TIP3    H172379   3.332   3.650  12.095  0.4301 -0.1517 -0.9637
16988TIP3    H272380   3.324   3.718  11.960  0.4208 -0.4743 -1.1251
16989TIP3   OH272381   1.478   4.034   1.281 -0.2028 -0.9068 -0.2929
16989TIP3    H172382   1.452   3.978   1.208  0.3480 -1.1197 -0.3249
16989TIP3    H272383   1.401   4.036   1.338 -0.4232 -1.2287 -0.5773
16990TIP3   OH272384   2.160   1.997   4.986 -0.1436 -0.0962 -0.1349
16990TIP3    H172385   2.122   2.021   4.902  1.1992  0.2311 -0.6570
16990TIP3    H272386   2.247   2.035   4.985  0.0745 -0.5254  1.2019
16991TIP3   OH272387   3.747   1.099   0.756  0.3019 -0.1911 -0.4605
16991TIP3    H172388   3.745   1.186   0.717 -0.5561  0.1975  0.4306
16991TIP3    H272389   3.668   1.095   0.810 -0.2492 -1.9345 -1.3670
16992TIP3   OH272390   6.615   1.842   0.157  0.2501  0.3198  0.0085
16992TIP3    H172391   6.664   1.760   0.146 -1.3839 -0.5281 -1.3393
16992TIP3    H272392   6.569   1.831   0.240  0.4115  0.0815  0.0677
16993TIP3   OH272393   0.712   3.015   1.648  0.2286 -0.3637 -0.0692
16993TIP3    H172394   0.626   3.019   1.689 -0.7565 -0.8967 -2.0427
16993TIP3    H272395   0.744   3.105   1.649  0.2733 -0.3660  1.8884
16994TIP3   OH272396   4.918   3.065  14.445  0.9533 -0.4890  0.0130
16994TIP3    H172397   4.973   3.060  14.367  0.1815  0.0724 -0.5829
16994TIP3    H272398   4.910   3.159  14.462 -0.3390 -0.5289 -0.2942
16995TIP3   OH272399   6.475   1.656  15.859  0.0448 -0.8404 -0.1101
16995TIP3    H172400   6.502   1.627  15.947  0.3893 -0.4775 -0.0955
16995TIP3    H272401   6.382   1.633  15.854 -0.5915  1.2654  1.2454
16996TIP3   OH272402   2.450   0.279   0.211 -0.1655 -0.2237  0.2249
16996TIP3    H172403   2.487   0.359   0.248  0.9040 -1.5373  2.0692
16996TIP3    H272404   2.519   0.213   0.223 -2.1205 -2.1177  1.4295
16997TIP3   OH272405   3.065   2.777   2.376 -0.2227  0.3141 -0.0156
16997TIP3    H172406   2.997   2.710   2.366  0.4126 -0.4048  0.4190
16997TIP3    H272407   3.125   2.762   2.302  0.1941  0.0768  0.3677
16998TIP3   OH272408   6.274   3.221   2.501  0.2190  0.2453 -0.4588
16998TIP3    H172409   6.326   3.239   2.579 -1.6908  2.0482  0.4322
16998TIP3    H272410   6.306   3.136   2.470  0.4363 -0.8938  2.7366
16999TIP3   OH272411   4.811   2.369  16.604  0.1754  0.3256 -0.3151
16999TIP3    H172412   4.751   2.405  16.669  0.5853  0.9815 -0.3027
16999TIP3    H272413   4.857   2.299  16.650  1.1525  1.4211  0.3885
17000TIP3   OH272414   4.224   6.205   5.067 -0.0520  0.3892  0.1655
17000TIP3    H172415   4.206   6.285   5.018  0.8744  0.8318  0.5272
17000TIP3    H272416   4.219   6.135   5.001  0.3113  0.8769 -0.3871
17001TIP3   OH272417   6.593   2.171  13.919  0.2534 -0.1591  0.3030
17001TIP3    H172418   6.544   2.212  13.990  0.2709 -1.9015  1.3431
17001TIP3    H272419   6.542   2.095  13.894 -0.4969  1.1929 -2.5818
17002TIP3   OH272420   6.134   6.670  14.835  0.5571  0.4558 -0.3746
17002TIP3    H172421   6.063   6.606  14.826 -0.0587  1.0230  0.3200
17002TIP3    H272422   6.188   6.657  14.757 -0.2461 -0.0668 -0.8535
17003TIP3   OH272423   5.624   5.061   4.103 -0.4245 -0.2084 -0.4788
17003TIP3    H172424   5.700   5.063   4.161 -0.2848 -0.4061 -0.6546
17003TIP3    H272425   5.561   5.004   4.147  0.4265 -1.9258 -1.4322
17004TIP3   OH272426   5.062   3.477   0.593  0.7691 -0.0952  0.0324
17004TIP3    H172427   5.037   3.568   0.612  1.3763  0.0145  0.2977
17004TIP3    H272428   5.034   3.428   0.670 -1.5681 -0.4967 -1.0303
17005TIP3   OH272429   3.602   1.837  15.464 -0.1871 -0.0922 -0.0967
17005TIP3    H172430   3.605   1.933  15.464  0.8686 -0.0751 -3.1230
17005TIP3    H272431   3.690   1.811  15.437 -0.5474 -1.9212  0.4547
17006TIP3   OH272432   2.442   4.199   6.155 -0.1845  0.2244 -0.1196
17006TIP3    H172433   2.404   4.228   6.072  0.3176  1.1810 -0.0247
17006TIP3    H272434   2.368   4.198   6.216 -0.1397  1.8328  0.0003
17007TIP3   OH272435   6.152   1.070   3.777  0.1155 -0.2465 -0.6262
17007TIP3    H172436   6.087   1.127   3.735 -0.9170 -0.8451  0.1286
17007TIP3    H272437   6.156   1.102   3.868  0.5683 -0.4896 -0.5596
17008TIP3   OH272438   0.757   2.276  12.361  0.4111  0.0201 -0.5532
17008TIP3    H172439   0.667   2.305  12.376  0.1410  0.9896 -3.7896
17008TIP3    H272440   0.807   2.358  12.352  0.7488 -0.4522 -3.4762
17009TIP3   OH272441   0.573   5.860  14.245 -0.2764  1.3500  0.0004
17009TIP3    H172442   0.649   5.915  14.263 -0.5394  1.7017  0.0628
17009TIP3    H272443   0.591   5.778  14.290  1.1108  0.5875 -1.9012
17010TIP3   OH272444   4.349   1.267   0.065 -0.4733  0.1517 -0.6042
17010TIP3    H172445   4.390   1.334   0.120 -1.4338 -0.1411  0.4971
17010TIP3    H272446   4.407   1.191   0.073 -2.2438 -0.9821  2.6802
17011TIP3   OH272447   3.101   4.119   2.200 -0.2452  0.0667  0.3279
17011TIP3    H172448   3.021   4.163   2.230  0.3406  1.0601  0.4482
17011TIP3    H272449   3.151   4.187   2.156 -0.7965 -1.2283 -2.4157
17012TIP3   OH272450   2.330   3.413   3.623  0.0714  0.2115 -0.1594
17012TIP3    H172451   2.294   3.491   3.666 -0.2174  0.0564 -0.1182
17012TIP3    H272452   2.410   3.393   3.672  0.9575  1.3639 -1.0966
17013TIP3   OH272453   1.722   6.407   3.500 -0.3766 -0.5301  0.5515
17013TIP3    H172454   1.728   6.324   3.451  1.8320 -0.8419  1.3335
17013TIP3    H272455   1.747   6.474   3.436 -0.2286 -0.6564  0.4767
17014TIP3   OH272456   3.397   0.559   2.139 -0.6263  0.3006 -0.1261
17014TIP3    H172457   3.462   0.517   2.083 -1.2096  0.3231 -0.8250
17014TIP3    H272458   3.314   0.516   2.117 -1.0051  0.9023  0.1048
17015TIP3   OH272459   3.190   1.856  13.570 -0.4177 -0.0034  0.0439
17015TIP3    H172460   3.272   1.811  13.592 -0.1245  1.2123  1.5873
17015TIP3    H272461   3.217   1.946  13.550 -1.3724  0.3995  0.5293
17016TIP3   OH272462   2.449   5.572   2.479  0.6071  0.2284  0.5930
17016TIP3    H172463   2.387   5.511   2.439 -1.4602  2.0490  0.8930
17016TIP3    H272464   2.433   5.565   2.573  0.4727  1.0498  0.6439
17017TIP3   OH272465   6.506   2.724  17.207  0.0878  0.4408  0.2620
17017TIP3    H172466   6.476   2.762  17.124 -0.4143  0.7474  0.5790
17017TIP3    H272467   6.566   2.790  17.243  0.0597  0.4492  0.2931
17018TIP3   OH272468   5.890   5.435   1.922 -0.0128  0.0032  0.2587
17018TIP3    H172469   5.835   5.407   1.849 -0.3370  0.7431  0.2143
17018TIP3    H272470   5.829   5.469   1.987  0.1631 -2.0187  1.5162
17019TIP3   OH272471   3.999   2.035   2.122  0.0913  0.4143 -0.3442
17019TIP3    H172472   3.928   1.971   2.126  0.6266 -0.1817 -0.2345
17019TIP3    H272473   4.046   2.013   2.042  1.5451 -0.7051  0.7884
17020TIP3   OH272474   3.797   5.824  14.869 -0.4552 -0.1785 -0.1774
17020TIP3    H172475   3.738   5.894  14.897  0.1923 -0.5662  2.2422
17020TIP3    H272476   3.743   5.769  14.813 -1.6746  0.8728 -0.0670
17021TIP3   OH272477   0.710   5.082  16.581  0.6561  0.5958 -0.0966
17021TIP3    H172478   0.694   5.104  16.673  0.2985  0.1139 -0.0382
17021TIP3    H272479   0.777   5.013  16.585  0.8995  0.8281 -0.2133
17022TIP3   OH272480   2.545   0.919   3.657  0.1018  0.1929 -0.4471
17022TIP3    H172481   2.523   0.827   3.673  1.4426 -0.0544  0.0143
17022TIP3    H272482   2.606   0.917   3.583 -1.0747  0.8428 -1.4590
17023TIP3   OH272483   2.636   5.510  12.902 -0.7096 -0.0138 -0.1103
17023TIP3    H172484   2.610   5.425  12.938  0.3203 -0.7456 -1.0725
17023TIP3    H272485   2.608   5.507  12.811  0.3977  0.2120 -0.4643
17024TIP3   OH272486   6.742   6.424   1.733 -0.0031  0.5490 -0.6541
17024TIP3    H172487   6.672   6.359   1.728  0.8404 -0.3650 -0.8883
17024TIP3    H272488   6.702   6.505   1.702 -0.7658 -0.1299 -1.4797
17025TIP3   OH272489   5.900   3.028   5.426  0.0517 -0.5469  0.4304
17025TIP3    H172490   5.831   2.968   5.398  0.5228 -1.0757  0.3967
17025TIP3    H272491   5.959   3.034   5.350  1.3462 -2.0083  1.2682
17026TIP3   OH272492   1.618   0.623  13.359  0.2209 -0.4052  0.7114
17026TIP3    H172493   1.704   0.642  13.397  0.1643  1.3066  0.0163
17026TIP3    H272494   1.637   0.578  13.277  0.3689 -2.8566  2.0316
17027TIP3   OH272495   5.303   4.978   6.792 -0.6476 -0.0074  0.7323
17027TIP3    H172496   5.264   4.952   6.708 -0.8841  3.3899 -0.2618
17027TIP3    H272497   5.396   4.959   6.782 -0.5619  1.0195 -0.6022
17028TIP3   OH272498   0.304   4.954  15.782 -0.3911  0.4498 -0.5040
17028TIP3    H172499   0.328   4.898  15.708  1.9669 -0.1021  0.6226
17028TIP3    H272500   0.364   5.028  15.776  1.4872 -0.7464  2.1441
17029TIP3   OH272501   3.418   5.837   3.657  0.2849 -0.2923 -0.2631
17029TIP3    H172502   3.426   5.860   3.750 -0.2787  1.7642 -0.6932
17029TIP3    H272503   3.412   5.742   3.656 -0.2984 -0.3043  1.8604
17030TIP3   OH272504   5.277   3.115  16.118 -0.0005 -0.8284 -0.1802
17030TIP3    H172505   5.215   3.180  16.086 -1.5945 -2.0735  0.2959
17030TIP3    H272506   5.321   3.083  16.039 -1.4754 -1.4368 -0.7676
17031TIP3   OH272507   2.951   1.415  16.212 -0.4843 -0.1293 -0.0764
17031TIP3    H172508   2.965   1.380  16.299  0.9294  0.4447 -0.0684
17031TIP3    H272509   3.038   1.435  16.179 -1.0103 -0.1974 -1.5622
17032TIP3   OH272510   1.012   6.334  15.483  0.3510 -0.0322 -0.0683
17032TIP3    H172511   1.019   6.239  15.484  0.7427 -0.0012  1.3342
17032TIP3    H272512   0.980   6.355  15.395  1.1540 -1.3848 -0.7007
17033TIP3   OH272513   5.561   0.947  10.875  0.0203  0.1331  0.0471
17033TIP3    H172514   5.495   0.891  10.914  1.7312 -3.0211 -1.3411
17033TIP3    H272515   5.618   0.973  10.948 -0.6125 -0.2163  0.6615
17034TIP3   OH272516   1.645   1.910   2.454 -0.0643 -0.5335 -0.0407
17034TIP3    H172517   1.740   1.898   2.446  0.2181  0.8203  1.0311
17034TIP3    H272518   1.617   1.841   2.515  0.4010 -0.2960  0.4514
17035TIP3   OH272519   1.676   1.937   5.626  0.1771  0.2356  0.2914
17035TIP3    H172520   1.665   1.880   5.702 -0.8948  1.0723  0.7716
17035TIP3    H272521   1.595   1.927   5.576  1.0877 -0.7243 -1.0424
17036TIP3   OH272522   1.371   5.557  11.999  0.0715 -0.6104  0.6434
17036TIP3    H172523   1.336   5.475  12.033 -0.5337 -0.4430  0.4226
17036TIP3    H272524   1.299   5.619  12.007 -0.2871 -0.7073 -1.4472
17037TIP3   OH272525   0.615   0.846   2.009 -0.5115  0.2969 -0.1685
17037TIP3    H172526   0.619   0.843   1.913  0.1257  2.6551 -0.2329
17037TIP3    H272527   0.676   0.777   2.037  2.5773  2.3966 -1.4697
17038TIP3   OH272528   6.386   0.133  14.170  0.4020 -0.2645  0.3979
17038TIP3    H172529   6.322   0.070  14.202 -1.0774  0.3627 -1.2604
17038TIP3    H272530   6.396   0.113  14.077  1.3113  0.7547  0.2571
17039TIP3   OH272531   1.705   5.697   6.018 -0.0446  0.6292 -0.0366
17039TIP3    H172532   1.761   5.679   5.943  0.9722 -0.5081  0.9721
17039TIP3    H272533   1.711   5.617   6.072 -2.4600  0.5644  0.1891
17040TIP3   OH272534   2.981   3.718   1.588 -0.5319 -0.4266  0.4015
17040TIP3    H172535   2.935   3.802   1.582  1.0132  0.2995 -1.3448
17040TIP3    H272536   3.068   3.740   1.620 -0.3856 -1.4763  0.7605
17041TIP3   OH272537   3.376   5.550  12.025 -0.1615 -0.9069 -0.6303
17041TIP3    H172538   3.337   5.537  11.938  1.3052 -0.1511 -1.4295
17041TIP3    H272539   3.432   5.473  12.038  1.1876 -0.0498 -1.2527
17042TIP3   OH272540   1.801   4.195  11.847 -0.3679 -0.5327 -0.3474
17042TIP3    H172541   1.830   4.141  11.773 -0.5056 -0.7010 -0.2777
17042TIP3    H272542   1.708   4.209  11.831 -0.2121  0.1710 -0.6754
17043TIP3   OH272543   2.619   5.143   5.392 -0.1504  0.1734  0.0333
17043TIP3    H172544   2.557   5.213   5.413  1.4523  0.7947  2.9087
17043TIP3    H272545   2.677   5.182   5.326 -4.1973 -1.2505 -4.7020
17044TIP3   OH272546   0.117   0.546   3.991 -0.6915  0.7071 -0.4422
17044TIP3    H172547   0.022   0.533   3.996 -0.2136 -2.2133  1.8638
17044TIP3    H272548   0.147   0.542   4.082  1.5170  3.0216 -1.0021
17045TIP3   OH272549   3.559   4.419  14.270  0.5442 -0.9604 -0.1569
17045TIP3    H172550   3.522   4.358  14.334 -1.1948 -1.2668 -1.4097
17045TIP3    H272551   3.512   4.501  14.287  1.0576 -0.6668 -0.1546
17046TIP3   OH272552   5.689   4.354   0.336  0.0598  0.7119 -0.1109
17046TIP3    H172553   5.644   4.401   0.266 -0.4273  1.7629  0.8970
17046TIP3    H272554   5.721   4.274   0.294  2.7013  2.8624 -2.3326
17047TIP3   OH272555   0.672   0.296  14.068 -0.6552 -0.1186 -0.2840
17047TIP3    H172556   0.655   0.368  14.129 -2.6103 -0.5351 -0.3136
17047TIP3    H272557   0.693   0.339  13.985 -1.6326  0.4247 -0.2533
17048TIP3   OH272558   5.494   5.504   2.905 -0.4648 -0.1270  0.4433
17048TIP3    H172559   5.478   5.414   2.935 -0.3366 -0.9228 -1.7581
17048TIP3    H272560   5.554   5.494   2.831 -1.7584  1.6435 -0.8926
17049TIP3   OH272561   5.903   6.670   4.900  0.1875 -0.0030 -0.3461
17049TIP3    H172562   5.878   6.755   4.936  0.5418  0.1020 -0.3538
17049TIP3    H272563   5.833   6.611   4.929  1.3168 -0.2774  1.9802
17050TIP3   OH272564   1.373   3.536  14.359  0.2240  0.5398  0.0588
17050TIP3    H172565   1.363   3.509  14.450  0.1557 -0.8707 -0.3584
17050TIP3    H272566   1.331   3.622  14.354  1.0247  1.0291  1.5611
17051TIP3   OH272567   0.793   4.724   0.788 -0.2367  0.0050 -0.1315
17051TIP3    H172568   0.844   4.665   0.844 -2.5192  0.2041  2.2833
17051TIP3    H272569   0.720   4.670   0.757 -0.7457  0.7729 -0.2847
17052TIP3   OH272570   1.422   3.373  14.901  0.3339 -0.3659  0.3343
17052TIP3    H172571   1.394   3.461  14.923  2.0035  0.0058  1.1084
17052TIP3    H272572   1.400   3.320  14.978  0.5963 -0.3346  0.4316
17053TIP3   OH272573   3.727   6.022   4.793 -0.3943 -0.4918  0.5862
17053TIP3    H172574   3.703   6.024   4.886  1.5536  1.3605  1.0827
17053TIP3    H272575   3.814   5.983   4.791  0.5872  1.6353 -0.1782
17054TIP3   OH272576   5.058   2.329  16.901  0.1861  0.5779  0.3032
17054TIP3    H172577   5.023   2.280  16.826 -0.2704  1.5944 -0.1660
17054TIP3    H272578   5.038   2.275  16.977 -2.8246  1.2726  0.1016
17055TIP3   OH272579   6.257   1.321  15.615  0.5718 -0.2689  0.0078
17055TIP3    H172580   6.352   1.314  15.603  0.2623 -2.8715 -1.1319
17055TIP3    H272581   6.220   1.305  15.528 -0.9938 -1.0677  0.7958
17056TIP3   OH272582   1.570   5.198  12.886 -0.4434 -0.4801 -0.0878
17056TIP3    H172583   1.565   5.144  12.807  0.0577  0.6564 -0.9119
17056TIP3    H272584   1.558   5.288  12.855 -0.4558 -0.0419  1.1536
17057TIP3   OH272585   2.154   2.674  11.105 -0.4194  0.5707 -0.1330
17057TIP3    H172586   2.187   2.757  11.069 -0.8156  0.9607  0.4039
17057TIP3    H272587   2.063   2.693  11.129 -0.7961 -0.2824 -0.8734
17058TIP3   OH272588   2.162   6.149   3.248 -0.3094  0.4727 -0.2813
17058TIP3    H172589   2.135   6.127   3.159  0.3025 -0.7149 -0.1903
17058TIP3    H272590   2.253   6.120   3.253 -0.1296  1.1545  0.5145
17059TIP3   OH272591   5.160   4.666   6.323  0.3573  0.2098  0.6384
17059TIP3    H172592   5.248   4.647   6.355 -0.3203 -1.1896  1.7720
17059TIP3    H272593   5.154   4.620   6.239  0.8034  0.5459  0.4231
17060TIP3   OH272594   5.282   6.654   2.846 -0.0474 -0.3305 -0.1674
17060TIP3    H172595   5.212   6.717   2.862  0.3609  0.1854 -0.3821
17060TIP3    H272596   5.322   6.683   2.764  1.3595  0.2728  0.7030
17061TIP3   OH272597   0.592   1.937   2.270 -0.4615 -0.2315 -0.2419
17061TIP3    H172598   0.617   2.015   2.320 -0.9170 -0.2139 -0.0400
17061TIP3    H272599   0.505   1.914   2.303 -0.5013 -0.5846 -0.5896
17062TIP3   OH272600   0.161   1.050  14.697  0.2167 -0.5243 -0.2213
17062TIP3    H172601   0.232   1.068  14.635  0.0194 -1.5722 -0.7745
17062TIP3    H272602   0.200   0.991  14.761 -0.0764 -0.8665 -0.3602
17063TIP3   OH272603   0.411   1.966  15.294  0.0912  0.4534 -0.7220
17063TIP3    H172604   0.427   1.880  15.255 -2.4088  0.9115 -2.8417
17063TIP3    H272605   0.317   1.979  15.286  0.4035  3.3184 -0.2278
17064TIP3   OH272606   0.537   5.719  15.967 -0.6217  0.2582  0.0168
17064TIP3    H172607   0.613   5.733  15.911 -0.1336  2.0575  1.0986
17064TIP3    H272608   0.462   5.743  15.912 -0.4215 -1.2687 -0.9621
17065TIP3   OH272609   5.065   0.619  16.184 -0.2848 -0.5152  0.1061
17065TIP3    H172610   5.083   0.577  16.100  3.4306 -0.8234  0.9822
17065TIP3    H272611   5.059   0.713  16.164  0.1034 -0.6325 -0.5551
17066TIP3   OH272612   5.694   0.874   4.063 -0.4125  0.0218  0.2256
17066TIP3    H172613   5.780   0.904   4.033  1.0980 -2.2112  2.1513
17066TIP3    H272614   5.642   0.868   3.983  1.3249  1.0786 -1.0236
17067TIP3   OH272615   6.443   4.974   1.764  0.5621  0.2465 -0.3265
17067TIP3    H172616   6.518   4.980   1.823  0.6239 -1.9874 -0.1226
17067TIP3    H272617   6.481   4.951   1.679  0.2384  0.5649 -0.5544
17068TIP3   OH272618   5.319   3.856   3.091  0.5882  0.2631 -0.0266
17068TIP3    H172619   5.344   3.781   3.037  0.9081  0.8536 -0.7137
17068TIP3    H272620   5.246   3.824   3.144  0.2633 -0.3260 -0.8175
17069TIP3   OH272621   0.959   1.948   2.809  0.0260 -0.2445  0.7103
17069TIP3    H172622   0.960   2.031   2.857  2.4647 -0.1853  0.6545
17069TIP3    H272623   0.867   1.923   2.804 -0.6024  1.7491  1.9596
17070TIP3   OH272624   2.367   3.259  15.542 -0.1632  0.1245 -0.2420
17070TIP3    H172625   2.328   3.172  15.555 -0.1091  0.1164 -0.1349
17070TIP3    H272626   2.401   3.257  15.453 -1.5435  0.5651 -0.7871
17071TIP3   OH272627   0.765   0.172   5.064  0.2645 -0.2363  0.5332
17071TIP3    H172628   0.811   0.149   5.145 -0.4382  1.7883  1.5448
17071TIP3    H272629   0.713   0.249   5.087 -1.6517 -0.9292 -1.2676
17072TIP3   OH272630   4.996   0.245  15.586 -0.1795  0.0002 -0.0201
17072TIP3    H172631   5.038   0.187  15.522  0.6882  0.1453  0.4113
17072TIP3    H272632   5.018   0.333  15.558 -0.9945  0.1103 -0.3313
17073TIP3   OH272633   0.886   0.790   3.994 -0.4248  0.4912  0.1646
17073TIP3    H172634   0.965   0.843   3.996 -0.8925  1.2054 -0.2464
17073TIP3    H272635   0.827   0.831   4.058 -0.1419 -0.5610  1.1309
17074TIP3   OH272636   4.224   4.025  16.221 -0.1408 -0.0006 -0.3690
17074TIP3    H172637   4.284   3.962  16.262  0.8865  1.1243 -0.1288
17074TIP3    H272638   4.140   3.979  16.218  0.4736 -1.1895  0.2924
17075TIP3   OH272639   2.738   0.548   3.130  0.5520  0.3060 -0.0893
17075TIP3    H172640   2.665   0.607   3.149 -1.8763 -2.5888 -0.0502
17075TIP3    H272641   2.757   0.561   3.037 -0.1062  1.0060 -0.1262
17076TIP3   OH272642   0.088   3.893  14.568  0.1533  0.0877 -0.3080
17076TIP3    H172643   0.145   3.967  14.589  0.9588 -0.4460 -0.5976
17076TIP3    H272644   0.148   3.818  14.559 -0.6653 -0.6273  0.1217
17077TIP3   OH272645   5.377   0.534  16.964  0.5083  0.8784 -0.3688
17077TIP3    H172646   5.350   0.587  17.039  0.7836  4.0718 -2.4295
17077TIP3    H272647   5.296   0.518  16.915  0.5186 -0.0987 -0.0724
17078TIP3   OH272648   6.308   0.726   1.203  0.2011 -0.0270  0.1235
17078TIP3    H172649   6.282   0.634   1.204  2.3047 -0.7640 -2.9464
17078TIP3    H272650   6.291   0.754   1.113  0.3113  2.3850  0.8158
17079TIP3   OH272651   1.947   2.855  16.409 -0.1055 -0.2696  0.3095
17079TIP3    H172652   1.964   2.940  16.367 -1.4746 -0.5021 -0.7723
17079TIP3    H272653   1.977   2.867  16.499  2.9866  0.2112 -0.7360
17080TIP3   OH272654   0.688   3.494   6.644  0.2337 -0.2314  0.3211
17080TIP3    H172655   0.619   3.453   6.593  0.3437  0.4455 -0.3688
17080TIP3    H272656   0.735   3.420   6.684 -1.1305 -0.6879  1.1426
17081TIP3   OH272657   4.295   3.141  14.907 -0.1042 -0.3229 -0.1504
17081TIP3    H172658   4.319   3.139  15.000 -0.4947 -1.5927 -0.0675
17081TIP3    H272659   4.337   3.063  14.871 -0.7338 -0.3373 -0.8479
17082TIP3   OH272660   6.760   2.120  16.657  0.4760 -0.4076  0.2909
17082TIP3    H172661   6.848   2.090  16.682  0.7558 -0.8347 -1.1833
17082TIP3    H272662   6.701   2.075  16.718  1.1507 -1.3450  0.2575
17083TIP3   OH272663   4.955   3.991  15.814 -0.1198 -0.1064 -0.1145
17083TIP3    H172664   4.887   4.049  15.848 -1.1892 -1.0811 -0.5844
17083TIP3    H272665   5.021   4.050  15.778 -1.2489  0.8253 -0.6771
17084TIP3   OH272666   5.441   4.235   0.829  0.3150  0.0016  0.2367
17084TIP3    H172667   5.440   4.204   0.738  0.7667 -1.2566  0.6399
17084TIP3    H272668   5.349   4.237   0.854  0.0724  1.8636 -0.7261
17085TIP3   OH272669   1.126   3.854  11.208  0.0284  0.0308 -0.2638
17085TIP3    H172670   1.170   3.909  11.143  0.8331 -1.9612 -1.4288
17085TIP3    H272671   1.036   3.848  11.178  0.2697 -0.4347 -0.9094
17086TIP3   OH272672   1.680   4.020  14.176  0.3796  0.3372 -1.1779
17086TIP3    H172673   1.643   4.107  14.192 -1.1260 -0.4523 -0.1785
17086TIP3    H272674   1.755   4.015  14.235  0.4980  0.9718 -1.2699
17087TIP3   OH272675   5.564   5.225   3.654  0.2784 -0.4173 -0.7235
17087TIP3    H172676   5.494   5.215   3.590  1.6126 -1.5019 -2.0824
17087TIP3    H272677   5.583   5.136   3.683  0.2054 -0.0029  0.6087
17088TIP3   OH272678   1.548   6.070  14.500 -0.1946  0.8329  0.1286
17088TIP3    H172679   1.546   6.132  14.573  0.8552  1.1312 -0.0793
17088TIP3    H272680   1.526   5.986  14.540  1.0294  0.8713  0.9353
17089TIP3   OH272681   5.544   3.362  11.201 -0.6710 -0.2090 -0.0278
17089TIP3    H172682   5.575   3.303  11.132  0.5427  1.7303 -1.2078
17089TIP3    H272683   5.549   3.449  11.161  0.1930  0.9642  2.5884
17090TIP3   OH272684   1.320   5.429   1.848  0.5088 -0.0107 -0.3518
17090TIP3    H172685   1.297   5.336   1.847  0.6898 -0.0590 -0.0504
17090TIP3    H272686   1.246   5.472   1.805  0.1302 -0.2289  0.0662
17091TIP3   OH272687   2.850   2.442  16.027  0.4867 -0.4465 -0.3570
17091TIP3    H172688   2.893   2.432  16.112  0.2153  2.8063  0.2093
17091TIP3    H272689   2.762   2.407  16.040 -0.1485  1.6510  1.2467
17092TIP3   OH272690   0.501   4.350  10.978 -0.0475  0.1998 -0.2535
17092TIP3    H172691   0.585   4.384  10.945  0.0648 -0.8750 -1.1181
17092TIP3    H272692   0.436   4.411  10.944  0.0552 -0.9574 -2.6641
17093TIP3   OH272693   2.883   5.863   4.342 -0.6785  0.0769 -0.3541
17093TIP3    H172694   2.890   5.913   4.424  1.0186  3.8161 -2.6353
17093TIP3    H272695   2.967   5.817   4.336 -1.3583 -1.3187  0.6660
17094TIP3   OH272696   1.640   4.678  11.057  0.0808 -0.2320 -0.2311
17094TIP3    H172697   1.701   4.604  11.050 -0.0067 -0.3845  0.5521
17094TIP3    H272698   1.597   4.682  10.971  0.6327 -0.6114 -0.5286
17095TIP3   OH272699   0.882   5.390   5.725  0.3173  0.4065 -1.1364
17095TIP3    H172700   0.817   5.453   5.697  1.2736  1.3885 -1.1748
17095TIP3    H272701   0.854   5.363   5.813 -1.0121 -0.3982 -1.7863
17096TIP3   OH272702   3.406   5.493  14.257  0.1076 -0.6773 -0.2455
17096TIP3    H172703   3.433   5.520  14.345  0.1857 -1.5726  0.0170
17096TIP3    H272704   3.488   5.481  14.209  0.0301  1.3525 -0.9346
17097TIP3   OH272705   5.700   4.276  14.741  0.3533 -0.1566 -0.3812
17097TIP3    H172706   5.612   4.302  14.768  0.0758 -0.8709 -0.5926
17097TIP3    H272707   5.747   4.263  14.824 -0.0974 -0.9809 -0.2494
17098TIP3   OH272708   0.065   6.554   5.082 -0.0722  0.2275 -0.1396
17098TIP3    H172709   0.125   6.492   5.125  1.0327  0.9269 -0.6486
17098TIP3    H272710   0.020   6.597   5.155  0.1909 -0.1595  0.2605
17099TIP3   OH272711   4.830   3.718   6.094 -0.0828  0.1275  0.1803
17099TIP3    H172712   4.920   3.747   6.102  0.0114  0.2197 -1.0968
17099TIP3    H272713   4.778   3.788   6.133  0.3883  0.1673  0.7263
17100TIP3   OH272714   4.297   0.929  11.457  0.0002 -0.6193 -0.4170
17100TIP3    H172715   4.375   0.971  11.423 -0.2767  0.5949  0.4110
17100TIP3    H272716   4.314   0.919  11.551 -0.7865 -0.4289 -0.2467
17101TIP3   OH272717   6.003   3.900  17.205 -0.3602  0.1774  0.3469
17101TIP3    H172718   6.001   3.990  17.172 -0.3679 -0.4265 -1.3325
17101TIP3    H272719   5.958   3.848  17.138  1.4624 -1.3922  0.2653
17102TIP3   OH272720   5.481   3.086   2.928 -0.8142  0.2941  0.4417
17102TIP3    H172721   5.553   3.035   2.965 -0.9602 -0.4227 -0.2512
17102TIP3    H272722   5.524   3.156   2.879 -0.5855 -0.2004 -0.0671
17103TIP3   OH272723   5.966   1.195  15.608  0.3601  0.5832 -0.2875
17103TIP3    H172724   5.940   1.228  15.694  1.4373 -2.8610  1.4777
17103TIP3    H272725   5.889   1.209  15.552 -1.0352  1.2015  1.7371
17104TIP3   OH272726   1.659   5.484  16.522  0.1527 -0.3492  0.1107
17104TIP3    H172727   1.694   5.547  16.460  1.8568  0.4931  1.8758
17104TIP3    H272728   1.699   5.401  16.497  1.0617  0.0406  0.2535
17105TIP3   OH272729   1.267   0.510   3.849 -0.4285  0.1323  0.4886
17105TIP3    H172730   1.288   0.449   3.919  0.9686  0.1952  0.1440
17105TIP3    H272731   1.238   0.454   3.777  0.6225 -0.1203  0.2523
17106TIP3   OH272732   3.713   2.818   5.662 -0.1580 -0.1227 -0.2349
17106TIP3    H172733   3.672   2.873   5.595 -0.2119  1.6369  1.1702
17106TIP3    H272734   3.790   2.781   5.619 -0.6769  0.2607 -1.5254
17107TIP3   OH272735   0.469   0.502  14.655  0.4569  0.4167  0.2125
17107TIP3    H172736   0.530   0.433  14.630 -0.1454  0.3471 -1.0897
17107TIP3    H272737   0.384   0.471  14.625 -0.0830  0.9448  1.1732
17108TIP3   OH272738   2.672   0.166   3.824 -0.2183  1.0224  0.1158
17108TIP3    H172739   2.683   0.124   3.738 -0.8226 -0.1025  0.5863
17108TIP3    H272740   2.670   0.259   3.804 -4.3163  0.6642 -1.5635
17109TIP3   OH272741   1.859   3.887   5.281  0.3601  0.1369  0.2074
17109TIP3    H172742   1.919   3.950   5.320 -0.8708  1.3754  0.1291
17109TIP3    H272743   1.785   3.885   5.341 -0.5961  0.4413 -0.9516
17110TIP3   OH272744   4.119   3.837   4.965 -0.2379  0.1693  0.3290
17110TIP3    H172745   4.132   3.758   4.912 -0.7410  0.7763 -0.7320
17110TIP3    H272746   4.025   3.840   4.980  0.0543 -0.7943  2.5551
17111TIP3   OH272747   0.216   0.157   1.488  0.0122 -0.2686  0.3168
17111TIP3    H172748   0.306   0.143   1.517  0.0852 -0.6300 -0.0836
17111TIP3    H272749   0.170   0.077   1.513 -0.2522  0.0127  0.7339
17112TIP3   OH272750   3.335   3.078  11.276 -0.1069 -0.0699 -0.0008
17112TIP3    H172751   3.411   3.083  11.333  0.4312  0.7603 -0.7789
17112TIP3    H272752   3.328   3.165  11.236 -0.3868 -0.6575 -1.2897
17113TIP3   OH272753   4.829   6.595  14.507 -0.2682  0.1424 -0.2575
17113TIP3    H172754   4.814   6.574  14.600  0.4003 -1.3024 -0.4618
17113TIP3    H272755   4.760   6.547  14.461 -0.9319  1.2932 -0.4786
17114TIP3   OH272756   3.751   4.810  11.728 -0.4546 -0.0454  0.8517
17114TIP3    H172757   3.838   4.770  11.728  0.3967  1.7313  2.2326
17114TIP3    H272758   3.717   4.794  11.640  1.0344 -1.2336  0.4700
17115TIP3   OH272759   3.851   6.137  10.929 -0.3246  0.5540 -1.1482
17115TIP3    H172760   3.766   6.181  10.930 -0.2804  0.6532 -1.5766
17115TIP3    H272761   3.870   6.125  10.836  0.4303  1.1162 -1.0642
17116TIP3   OH272762   3.240   4.351   4.126 -0.1716 -0.6825  0.5203
17116TIP3    H172763   3.204   4.404   4.197 -0.2666  0.8972 -0.6887
17116TIP3    H272764   3.212   4.261   4.147 -3.4204  0.2540  0.4866
17117TIP3   OH272765   3.121   3.812   0.557  0.5720  0.1735  0.1575
17117TIP3    H172766   3.083   3.869   0.624 -1.4482 -1.2714  0.2828
17117TIP3    H272767   3.168   3.745   0.607  0.3195 -0.0427  0.1091
17118TIP3   OH272768   2.846   4.086  13.607 -0.2672  0.6544  0.0837
17118TIP3    H172769   2.937   4.091  13.637  0.0563 -3.2195  0.0512
17118TIP3    H272770   2.853   4.074  13.512 -0.8530  1.3024 -0.0416
17119TIP3   OH272771   6.354   2.831   4.250 -0.3251 -0.2898  0.2747
17119TIP3    H172772   6.393   2.748   4.277 -0.1786  0.1582  1.4425
17119TIP3    H272773   6.260   2.816   4.255 -0.2983 -0.4080  0.4304
17120TIP3   OH272774   0.109   5.941   0.327  0.7064  0.0099 -0.5773
17120TIP3    H172775   0.058   5.868   0.292  0.4508 -0.3428  0.5378
17120TIP3    H272776   0.084   5.947   0.419  0.2796  1.8905 -0.8015
17121TIP3   OH272777   0.865   3.739  13.339  0.5633  0.2612  0.2098
17121TIP3    H172778   0.897   3.824  13.310  2.8895 -0.3768  0.7412
17121TIP3    H272779   0.773   3.737  13.313  0.7226  2.5545 -0.6238
17122TIP3   OH272780   6.342   6.537  15.219 -0.2450  0.1897 -0.2474
17122TIP3    H172781   6.368   6.572  15.304 -0.9101  1.9023 -0.7324
17122TIP3    H272782   6.405   6.575  15.157  0.4974 -1.3841 -0.4790
17123TIP3   OH272783   1.570   6.533  11.176  0.5270 -0.2779  0.1886
17123TIP3    H172784   1.642   6.571  11.126  1.1180 -2.0405 -0.3215
17123TIP3    H272785   1.520   6.609  11.207  0.9095  0.8819 -1.9441
17124TIP3   OH272786   4.127   2.264   3.119 -0.2104 -0.3509 -0.4457
17124TIP3    H172787   4.064   2.226   3.181 -0.0721  2.6326  1.6684
17124TIP3    H272788   4.081   2.265   3.036 -1.0606 -2.8692 -0.0507
17125TIP3   OH272789   4.510   5.118   1.642 -0.4037 -0.1924 -0.3271
17125TIP3    H172790   4.581   5.055   1.631 -1.0589 -0.9155 -0.4531
17125TIP3    H272791   4.453   5.078   1.709  1.0847  1.9502  2.3376
17126TIP3   OH272792   3.711   4.289  15.143 -0.4870 -0.2922 -0.1176
17126TIP3    H172793   3.653   4.295  15.067  0.2618 -0.2642 -0.6882
17126TIP3    H272794   3.775   4.222  15.119 -1.4947 -1.8006  1.3341
17127TIP3   OH272795   1.693   4.319  14.185  0.4185 -0.0173  0.9504
17127TIP3    H172796   1.769   4.364  14.222  0.7421  0.3086 -0.0934
17127TIP3    H272797   1.649   4.386  14.133  1.0265 -0.9461 -0.8029
17128TIP3   OH272798   2.324   4.266  14.963 -0.3643  0.0572 -0.0841
17128TIP3    H172799   2.330   4.171  14.974 -0.3974 -0.1337 -1.6209
17128TIP3    H272800   2.258   4.278  14.895  0.0414  1.1595 -0.2899
17129TIP3   OH272801   4.306   6.726  16.782  0.6181 -0.2330 -0.6065
17129TIP3    H172802   4.237   6.781  16.746  0.1242  1.0911  2.1603
17129TIP3    H272803   4.374   6.788  16.809  1.3176 -1.2161 -0.0698
17130TIP3   OH272804   3.421   1.685  13.321 -0.1674 -0.3178 -0.1410
17130TIP3    H172805   3.342   1.655  13.367 -0.9850  2.0364  0.0713
17130TIP3    H272806   3.436   1.619  13.254 -1.1880 -1.8176  1.0762
17131TIP3   OH272807   4.418   1.755  16.430  0.0072  0.4594  0.2236
17131TIP3    H172808   4.434   1.789  16.342  2.5891  0.8252  0.7728
17131TIP3    H272809   4.496   1.782  16.480  0.1321 -2.5679  1.7800
17132TIP3   OH272810   2.744   3.070  14.864  0.2247 -0.0907 -0.3255
17132TIP3    H172811   2.806   2.998  14.855 -0.6902 -1.1301  1.4076
17132TIP3    H272812   2.672   3.047  14.806  0.9017  0.5357 -1.4394
17133TIP3   OH272813   4.566   1.190   1.525  0.0255 -0.2582 -0.1745
17133TIP3    H172814   4.495   1.141   1.566 -1.3090  1.6296 -0.1824
17133TIP3    H272815   4.540   1.195   1.433  0.0572  0.6324 -0.1330
17134TIP3   OH272816   6.422   4.215  12.217 -1.0765  0.2521 -0.2721
17134TIP3    H172817   6.383   4.145  12.165 -0.7231 -0.3433  0.2681
17134TIP3    H272818   6.475   4.265  12.155 -0.6757 -0.4446 -0.4943
17135TIP3   OH272819   0.249   1.644  15.550  0.0947 -0.3372 -0.5807
17135TIP3    H172820   0.279   1.595  15.474 -1.5061 -1.2651 -0.6267
17135TIP3    H272821   0.209   1.723  15.513  2.1909  0.7910 -0.5292
17136TIP3   OH272822   1.179   1.356  15.938  0.5585  0.1200  0.8713
17136TIP3    H172823   1.242   1.425  15.957  1.3280  0.0958 -1.4229
17136TIP3    H272824   1.144   1.378  15.852 -0.8851 -1.1090  1.1169
17137TIP3   OH272825   3.319   5.052   2.601  0.2197  0.5004 -0.7153
17137TIP3    H172826   3.385   5.092   2.545  1.0272 -0.7745 -0.6752
17137TIP3    H272827   3.357   5.055   2.689  0.1288 -0.0499 -0.6587
17138TIP3   OH272828   0.503   6.641   1.698 -0.2363  0.5043  0.1570
17138TIP3    H172829   0.505   6.671   1.607  1.1192 -3.7928 -1.3600
17138TIP3    H272830   0.594   6.639   1.725 -0.5501  0.6123  1.2505
17139TIP3   OH272831   4.193   1.090  15.002 -0.2756 -0.0402  0.1483
17139TIP3    H172832   4.198   0.995  15.013 -0.0340  0.1867  2.2902
17139TIP3    H272833   4.284   1.119  15.002 -0.3609  0.2280 -0.0784
17140TIP3   OH272834   1.304   5.650  17.135 -0.3489 -0.4190 -0.2361
17140TIP3    H172835   1.286   5.706  17.060  0.1730 -0.8597 -0.6981
17140TIP3    H272836   1.341   5.570  17.097 -0.1291 -0.6635  0.4810
17141TIP3   OH272837   4.181   3.381  11.892 -0.2798  0.3775 -0.1380
17141TIP3    H172838   4.238   3.453  11.863  1.6905 -1.5265 -1.1438
17141TIP3    H272839   4.202   3.369  11.984  0.3094  0.2671 -0.2849
17142TIP3   OH272840   3.811   0.188   0.569 -0.6121 -0.2704  0.0313
17142TIP3    H172841   3.745   0.249   0.536  1.2781  2.1316  0.5244
17142TIP3    H272842   3.857   0.158   0.490  1.5265  2.6739  0.0470
17143TIP3   OH272843   3.074   6.237   1.517 -0.1661  0.2281  0.5986
17143TIP3    H172844   3.033   6.314   1.557 -1.1642 -0.7592  1.5018
17143TIP3    H272845   3.097   6.181   1.591  2.1665  0.4176  0.0720
17144TIP3   OH272846   1.049   4.652   3.592 -0.1662  0.2358  0.7915
17144TIP3    H172847   0.962   4.627   3.560  1.1786 -2.6816 -0.7485
17144TIP3    H272848   1.038   4.659   3.687 -1.5645 -2.4359  0.8670
17145TIP3   OH272849   2.058   1.833  12.250  0.1463 -0.5321  0.5178
17145TIP3    H172850   2.084   1.917  12.213  1.2316 -0.3057  1.7346
17145TIP3    H272851   2.140   1.783  12.258 -0.2794 -1.1619  1.1179
17146TIP3   OH272852   4.755   2.761  16.130 -0.1963  0.1602  0.1742
17146TIP3    H172853   4.850   2.755  16.131 -0.2432 -0.8811 -1.0035
17146TIP3    H272854   4.729   2.747  16.221  0.7153 -0.6728  0.3168
17147TIP3   OH272855   0.061   1.222  13.241  0.2336  0.5665 -0.4225
17147TIP3    H172856   0.148   1.210  13.281  0.1369 -0.5651 -0.5419
17147TIP3    H272857  -0.001   1.201  13.311  0.0631 -0.8684 -0.9987
17148TIP3   OH272858   5.804   1.875  15.766 -0.5874  0.1903  0.2979
17148TIP3    H172859   5.787   1.793  15.720 -0.8922  0.1195  0.5357
17148TIP3    H272860   5.840   1.933  15.699  1.8571 -0.8692  0.6207
17149TIP3   OH272861   4.379   3.806  11.180  0.1456  0.5695  0.3392
17149TIP3    H172862   4.423   3.869  11.237  1.0598 -0.5474  0.8953
17149TIP3    H272863   4.447   3.743  11.157 -1.7101 -2.7263  3.4045
17150TIP3   OH272864   3.089   5.631   5.120 -0.3808  0.3486 -0.2390
17150TIP3    H172865   3.156   5.673   5.173  1.0921 -3.2477  0.9375
17150TIP3    H272866   3.134   5.607   5.039 -0.6508 -0.6543 -0.1005
17151TIP3   OH272867   4.774   4.720  13.254  0.6478  0.2922 -0.0901
17151TIP3    H172868   4.765   4.739  13.348  1.1174 -0.5143  0.1200
17151TIP3    H272869   4.861   4.680  13.245 -0.1934 -1.5090 -0.5439
17152TIP3   OH272870   0.975   2.309  16.195 -0.7921  0.4433 -0.0586
17152TIP3    H172871   0.963   2.269  16.108 -1.6638 -0.1395  0.3148
17152TIP3    H272872   0.995   2.235  16.252  1.0926  0.9858  0.0019
17153TIP3   OH272873   3.279   0.518  11.081  0.1055  0.3215 -0.3414
17153TIP3    H172874   3.346   0.512  11.013  0.0193  0.7637 -0.4645
17153TIP3    H272875   3.202   0.475  11.043  0.1154  0.3999 -0.4501
17154TIP3   OH272876   3.045   5.999   5.783 -0.2457 -0.4186 -0.8833
17154TIP3    H172877   3.075   6.072   5.729  0.4282  1.4815  1.9154
17154TIP3    H272878   3.126   5.954   5.808 -0.1530  0.9506  1.4988
17155TIP3   OH272879   5.349   0.400   0.084 -0.2071  0.5123 -0.1769
17155TIP3    H172880   5.297   0.438   0.155  2.2655  0.3556  1.7838
17155TIP3    H272881   5.428   0.454   0.081  0.8057 -1.0080 -1.1888
17156TIP3   OH272882   4.416   5.076  12.513 -0.2260 -0.4199  0.2665
17156TIP3    H172883   4.479   5.008  12.537  0.0688 -0.6464 -1.1417
17156TIP3    H272884   4.392   5.116  12.597  1.1661 -0.8722  0.9031
17157TIP3   OH272885   6.346   2.091  15.585  0.1756  0.0202  0.1440
17157TIP3    H172886   6.396   2.116  15.663 -1.2627  0.3059  0.9879
17157TIP3    H272887   6.360   1.996  15.577 -3.3393 -0.9015  3.4668
17158TIP3   OH272888   5.412   4.465  12.183 -0.0502  0.5394 -0.1379
17158TIP3    H172889   5.431   4.558  12.192  0.8186  0.4502 -0.8997
17158TIP3    H272890   5.388   4.454  12.091 -1.3166  0.2067  0.2243
17159TIP3   OH272891   4.883   2.208   4.911  0.2510 -0.0741 -0.4566
17159TIP3    H172892   4.966   2.165   4.893 -0.0691 -0.7145 -0.4353
17159TIP3    H272893   4.893   2.245   4.999  1.4510  2.1584 -1.4969
17160TIP3   OH272894   1.567   1.677   2.557  0.5156  0.2845  0.3293
17160TIP3    H172895   1.589   1.641   2.471  2.0488 -0.8346  1.1715
17160TIP3    H272896   1.474   1.656   2.568  0.5124 -0.2734 -0.7087
17161TIP3   OH272897   3.185   4.959  11.246 -0.1820  0.5735  0.0832
17161TIP3    H172898   3.206   5.053  11.249 -0.4302  0.6445 -0.3553
17161TIP3    H272899   3.096   4.955  11.212 -0.3981  0.2039  0.6976
17162TIP3   OH272900   2.052   1.442   4.570 -0.1472 -0.1192  0.0154
17162TIP3    H172901   1.959   1.437   4.547  0.1670  2.1686 -1.9215
17162TIP3    H272902   2.098   1.427   4.487  1.1674  0.8190  0.5552
17163TIP3   OH272903   3.666   4.092   5.494  0.0080 -0.0450 -0.0702
17163TIP3    H172904   3.697   4.021   5.550 -2.0236  0.3113  1.5769
17163TIP3    H272905   3.719   4.168   5.520  0.6173 -0.4053 -0.2426
17164TIP3   OH272906   1.384   3.188  15.095  0.1002 -0.2245 -0.4028
17164TIP3    H172907   1.338   3.228  15.169 -0.4135 -0.8848 -0.3569
17164TIP3    H272908   1.473   3.175  15.125 -0.5290 -2.0629  0.7009
17165TIP3   OH272909   1.574   4.181   2.627 -0.5090 -0.3545  0.1551
17165TIP3    H172910   1.487   4.152   2.656 -0.0252 -0.3480  1.6847
17165TIP3    H272911   1.633   4.109   2.651 -0.1318 -0.5142 -1.2001
17166TIP3   OH272912   5.088   3.902   4.452 -0.1546  0.6932  0.2456
17166TIP3    H172913   5.041   3.940   4.378  1.1757  1.9874  0.0273
17166TIP3    H272914   5.127   3.822   4.418  0.4661  1.2941 -0.4787
17167TIP3   OH272915   4.964   1.826   1.347  0.2800 -0.5869  0.3171
17167TIP3    H172916   4.996   1.758   1.288 -1.9918 -0.8743 -0.6269
17167TIP3    H272917   4.877   1.849   1.314 -0.2765  0.5844  2.4410
17168TIP3   OH272918   2.059   6.186  14.260 -0.0569  0.1531 -0.2426
17168TIP3    H172919   1.997   6.254  14.286  2.4728  1.5333  2.3660
17168TIP3    H272920   2.032   6.109  14.309 -0.7518  0.2393 -0.4773
17169TIP3   OH272921   0.062   0.597   1.529  0.0263 -0.1267  0.3359
17169TIP3    H172922   0.107   0.542   1.465  1.3624  2.1753 -0.7678
17169TIP3    H272923  -0.029   0.599   1.500  0.0399 -1.4279  0.1822
17170TIP3   OH272924   2.506   3.925   1.039 -0.8332 -0.0648 -0.5626
17170TIP3    H172925   2.549   3.968   0.965  0.8553  0.3907  0.6553
17170TIP3    H272926   2.489   3.996   1.101 -0.7375 -0.6974  0.1943
17171TIP3   OH272927   3.346   5.398   5.235  0.8076  0.0925 -0.5060
17171TIP3    H172928   3.370   5.491   5.233  0.1448  0.2567 -1.0261
17171TIP3    H272929   3.424   5.353   5.267  0.9104  0.9098  0.4258
17172TIP3   OH272930   3.352   5.079  15.218 -0.4097 -0.2184  0.3105
17172TIP3    H172931   3.302   5.132  15.280 -0.5290  0.9091 -0.7157
17172TIP3    H272932   3.418   5.140  15.183 -0.1797 -0.9025 -0.4593
17173TIP3   OH272933   1.119   2.912  16.981  0.1587 -0.2501 -0.4292
17173TIP3    H172934   1.113   2.882  16.891 -0.3355 -1.2253 -0.0835
17173TIP3    H272935   1.028   2.926  17.008  0.3315  0.5483 -0.2445
17174TIP3   OH272936   2.391   6.383   3.565 -0.1814  0.4439  0.3359
17174TIP3    H172937   2.416   6.377   3.473  1.8573  0.4164  0.8662
17174TIP3    H272938   2.358   6.473   3.575 -0.7492  0.3283 -0.4886
17175TIP3   OH272939   2.909   6.596  13.682 -0.3372  0.0211 -0.0485
17175TIP3    H172940   2.818   6.578  13.658 -1.2083  1.0931  2.2740
17175TIP3    H272941   2.914   6.691  13.688  1.3383  0.0456 -1.5907
17176TIP3   OH272942   3.611   5.129   3.681 -0.2562 -0.8229  0.1158
17176TIP3    H172943   3.673   5.103   3.749 -2.0936 -2.4624  1.1873
17176TIP3    H272944   3.610   5.055   3.620  0.1297 -0.0585 -0.8455
17177TIP3   OH272945   2.237   5.264  14.069  0.6668  0.0223 -0.6065
17177TIP3    H172946   2.322   5.248  14.027 -0.5397 -1.8873 -2.4319
17177TIP3    H272947   2.177   5.281  13.996 -1.7755 -4.6409  0.1312
17178TIP3   OH272948   2.893   5.347  11.666  0.1659 -0.0292  0.0148
17178TIP3    H172949   2.935   5.422  11.707  0.8140 -0.5352  0.2821
17178TIP3    H272950   2.806   5.343  11.706 -0.0134  0.8171 -0.2973
17179TIP3   OH272951   4.726   0.352  15.431 -0.2208 -0.0787  0.2884
17179TIP3    H172952   4.679   0.360  15.348 -1.3221 -0.5176  0.8658
17179TIP3    H272953   4.818   0.368  15.408 -0.8247  2.3149 -0.5916
17180TIP3   OH272954   6.289   2.315  15.441 -0.3647  0.2454  0.0468
17180TIP3    H172955   6.367   2.260  15.449 -1.7489 -1.6658  0.6657
17180TIP3    H272956   6.311   2.395  15.490  0.9102 -0.5846  0.8616
17181TIP3   OH272957   5.116   3.063  10.497 -0.6834  0.6236 -0.3147
17181TIP3    H172958   5.197   3.043  10.544 -0.6689 -1.7211 -1.2640
17181TIP3    H272959   5.114   3.159  10.492  0.5112  0.8152  2.3346
17182TIP3   OH272960   1.814   4.687   3.794  0.0512 -0.4425 -0.0455
17182TIP3    H172961   1.909   4.690   3.781 -0.2253 -0.6837 -2.2871
17182TIP3    H272962   1.802   4.714   3.885  2.3034 -1.0382  0.4645
17183TIP3   OH272963   5.137   2.287   2.903 -0.0822  0.5032 -0.5538
17183TIP3    H172964   5.166   2.249   2.986  1.0366 -0.9914 -1.6271
17183TIP3    H272965   5.217   2.319   2.861 -0.6401  1.2550 -1.0798
17184TIP3   OH272966   2.703   0.518   4.753  0.4913 -0.4142 -0.6509
17184TIP3    H172967   2.704   0.436   4.801  1.3202 -0.3989 -0.6377
17184TIP3    H272968   2.628   0.566   4.789  2.6424  0.7220  2.5532
17185TIP3   OH272969   6.771   3.476  16.958  0.3458  0.1543 -0.5996
17185TIP3    H172970   6.777   3.383  16.979 -0.7723  0.1901 -0.1129
17185TIP3    H272971   6.678   3.491  16.942  0.3333  1.4595  0.6125
17186TIP3   OH272972   5.966   4.958  11.061 -0.0498  0.0551 -0.1700
17186TIP3    H172973   5.960   4.974  10.966 -1.7651  1.7625  0.1941
17186TIP3    H272974   6.033   5.018  11.091  1.1343 -1.1158 -0.4054
17187TIP3   OH272975   2.060   2.910  11.566  0.0220 -0.0862  0.1423
17187TIP3    H172976   2.030   2.994  11.530 -3.0244 -0.7838  0.9055
17187TIP3    H272977   2.016   2.845  11.512  1.9466 -1.2325 -0.0856
17188TIP3   OH272978   0.743   3.353   0.548 -0.3843  0.2634  0.0240
17188TIP3    H172979   0.693   3.432   0.527 -1.2151  0.3306  2.1513
17188TIP3    H272980   0.692   3.281   0.512 -0.7480  0.5196  0.0286
17189TIP3   OH272981   2.156   6.209  15.005 -0.1554  0.4634  0.0568
17189TIP3    H172982   2.149   6.300  15.034  1.4454  0.9118 -0.8687
17189TIP3    H272983   2.183   6.160  15.082  0.6866  1.0680  0.1464
17190TIP3   OH272984   5.948   3.699   2.438  0.4158  0.0579  0.8218
17190TIP3    H172985   5.902   3.618   2.418  0.5855  0.3831 -1.0202
17190TIP3    H272986   5.892   3.744   2.501 -1.9468  0.5607 -1.5527
17191TIP3   OH272987   1.325   6.593   4.053  0.3116  0.2589 -0.5706
17191TIP3    H172988   1.287   6.539   4.122 -1.2353  0.1228 -1.4950
17191TIP3    H272989   1.398   6.638   4.094 -0.0661 -0.4785  0.9222
17192TIP3   OH272990   6.015   0.254  13.222  0.1669  0.3193 -0.0687
17192TIP3    H172991   5.949   0.323  13.213 -0.0287  0.0863 -0.4470
17192TIP3    H272992   6.084   0.293  13.276 -0.4898  0.4207  0.7166
17193TIP3   OH272993   5.963   2.452   2.698  0.1862  0.3626  0.2590
17193TIP3    H172994   5.997   2.405   2.621  0.5484  1.6863 -0.4026
17193TIP3    H272995   5.895   2.395   2.732 -1.3241  0.6100 -2.1970
17194TIP3   OH272996   2.624   4.100   1.457 -0.1162 -0.5384  0.4814
17194TIP3    H172997   2.570   4.138   1.389  1.6326 -0.4782 -0.9134
17194TIP3    H272998   2.624   4.006   1.439 -1.7290 -0.8426  1.9438
17195TIP3   OH272999   5.869   0.807   1.362  0.0868 -0.1995 -0.2088
17195TIP3    H173000   5.931   0.852   1.420 -0.8011  0.6839  0.0786
17195TIP3    H273001   5.833   0.737   1.416  0.7163 -0.6169 -0.3263
17196TIP3   OH273002   3.533   4.333  17.052  0.3208  0.4612 -0.0632
17196TIP3    H173003   3.553   4.246  17.017  0.2571  1.7768 -3.5320
17196TIP3    H273004   3.618   4.368  17.079  0.7133  0.2998 -1.0543
17197TIP3   OH273005   1.834   4.016   3.345  0.3326 -0.3994 -0.0895
17197TIP3    H173006   1.804   3.985   3.430 -0.4932 -1.1477 -0.6436
17197TIP3    H273007   1.766   3.988   3.283 -0.9014  3.2327 -0.5138
17198TIP3   OH273008   2.992   0.779  12.489 -0.1141  0.3720 -0.5757
17198TIP3    H173009   3.026   0.804  12.403 -0.5226  0.1212 -0.8112
17198TIP3    H273010   2.915   0.834  12.502 -1.4608 -1.2738 -1.4342
17199TIP3   OH273011   0.134   6.011  14.621  0.1440 -0.1062 -0.2626
17199TIP3    H173012   0.052   5.964  14.605  0.5657 -1.5454  1.6446
17199TIP3    H273013   0.106   6.097  14.652 -0.6352 -0.4592  0.0251
17200TIP3   OH273014   4.019   6.208  17.034  0.1843 -0.2598  0.0556
17200TIP3    H173015   4.081   6.143  17.000 -0.3870 -0.9836  0.3815
17200TIP3    H273016   3.933   6.175  17.009 -0.0775  0.8272 -0.5343
17201TIP3   OH273017   2.411   4.991   4.437  0.1805 -0.0004  0.1133
17201TIP3    H173018   2.318   4.993   4.455  0.1695 -1.6519  0.3317
17201TIP3    H273019   2.418   4.965   4.345  0.4189  0.6860 -0.0694
17202TIP3   OH273020   1.934   1.352  13.294  0.1887  0.1929 -0.2093
17202TIP3    H173021   1.972   1.406  13.225 -1.2242 -0.9289 -1.9318
17202TIP3    H273022   1.966   1.390  13.375  1.0125  2.2353 -1.4513
17203TIP3   OH273023   0.530   4.807   0.480 -0.1851  0.2052 -0.1457
17203TIP3    H173024   0.554   4.777   0.392 -2.5709  1.3785 -1.2522
17203TIP3    H273025   0.613   4.837   0.518  0.8787 -0.2035 -2.0351
17204TIP3   OH273026   1.929   6.192  12.868 -0.0848  0.1008 -0.2690
17204TIP3    H173027   2.004   6.155  12.823 -0.6674 -0.1383 -1.0584
17204TIP3    H273028   1.966   6.235  12.946  0.7855 -0.5414 -0.3228
17205TIP3   OH273029   3.413   3.041  13.643 -0.0663  0.2430  0.1016
17205TIP3    H173030   3.491   2.993  13.672  0.5869  1.5936  0.6300
17205TIP3    H273031   3.439   3.082  13.561 -0.5273 -0.0349 -0.1897
17206TIP3   OH273032   4.138   5.961   3.633 -0.1258 -0.2199 -0.6491
17206TIP3    H173033   4.057   5.967   3.582 -0.1899  0.2289 -0.4989
17206TIP3    H273034   4.139   6.041   3.686  0.7879  0.1492 -1.1978
17207TIP3   OH273035   1.503   3.353   2.122 -0.4726  0.5298  0.5638
17207TIP3    H173036   1.446   3.276   2.119  0.2978 -0.0064 -0.3810
17207TIP3    H273037   1.578   3.329   2.069 -0.2145  1.9373  0.2930
17208TIP3   OH273038   2.011   1.687   5.670 -0.0409  0.4216 -0.3914
17208TIP3    H173039   2.002   1.713   5.761  2.0206  0.1928 -0.0949
17208TIP3    H273040   2.104   1.666   5.660 -0.2651  0.2932 -2.5006
17209TIP3   OH273041   4.612   0.320  10.511 -0.6529  0.1727  0.1577
17209TIP3    H173042   4.548   0.339  10.442 -0.0903 -1.4144 -0.8272
17209TIP3    H273043   4.647   0.234  10.488  2.8183  1.5494 -0.0826
17210TIP3   OH273044   2.145   4.598   0.443  0.5184 -0.7996 -0.2500
17210TIP3    H173045   2.203   4.541   0.493  0.7608  0.3519  0.8142
17210TIP3    H273046   2.057   4.562   0.456  0.7931 -1.5141 -0.4093
17211TIP3   OH273047   3.287   1.807  11.645 -0.7710  0.4672 -0.3422
17211TIP3    H173048   3.222   1.741  11.669 -1.3516  1.2365  0.2692
17211TIP3    H273049   3.262   1.834  11.556 -0.2767 -0.4277 -0.7578
17212TIP3   OH273050   4.588   1.499   2.401 -0.0968  0.5134 -0.1673
17212TIP3    H173051   4.543   1.551   2.335  1.3637  1.1585 -0.6605
17212TIP3    H273052   4.644   1.439   2.351 -0.2025 -0.1137  0.4486
17213TIP3   OH273053   0.402   1.963  16.290  0.3375 -0.4298 -0.4576
17213TIP3    H173054   0.433   2.043  16.247 -0.7284 -0.6786 -1.7508
17213TIP3    H273055   0.325   1.938  16.239 -2.0298  0.2007  2.6354
17214TIP3   OH273056   6.139   1.066   6.553 -0.0242  0.1408  0.1137
17214TIP3    H173057   6.060   1.118   6.539  0.9968  1.0901 -2.2528
17214TIP3    H273058   6.116   0.979   6.519 -0.4819  0.0322  0.6777
17215TIP3   OH273059   4.939   1.451   6.621  0.0979 -0.6469  0.2887
17215TIP3    H173060   4.992   1.371   6.623  1.7147  0.4145  0.6957
17215TIP3    H273061   4.961   1.492   6.537 -2.0126 -1.4386 -0.7049
17216TIP3   OH273062   0.476   4.713  13.960 -0.2472  0.0463 -0.0076
17216TIP3    H173063   0.391   4.756  13.972 -1.0577 -0.9740 -1.9489
17216TIP3    H273064   0.536   4.784  13.936 -0.2404  0.9556  2.5456
17217TIP3   OH273065   4.477   6.648  16.101  0.3732 -0.1511  0.1552
17217TIP3    H173066   4.469   6.729  16.051 -0.3026 -0.1028  0.3361
17217TIP3    H273067   4.387   6.618  16.114  0.6921 -1.8688 -1.4180
17218TIP3   OH273068   5.124   3.953  13.902 -0.1394 -0.0089 -0.4682
17218TIP3    H173069   5.127   3.947  13.998  1.7056  0.8235 -0.4586
17218TIP3    H273070   5.069   4.030  13.885  1.7044  1.4296 -0.0122
17219TIP3   OH273071   6.146   0.790   6.379  0.8554  0.2634 -0.4584
17219TIP3    H173072   6.173   0.849   6.308  0.8741  0.3888 -0.3454
17219TIP3    H273073   6.170   0.703   6.347  0.0246  0.2294 -1.0025
17220TIP3   OH273074   5.658   0.922  13.965 -0.2966  0.8889  0.1545
17220TIP3    H173075   5.736   0.896  13.916  0.3188  1.5463  0.7682
17220TIP3    H273076   5.651   1.016  13.951 -0.9990  0.8261  0.0733
17221TIP3   OH273077   0.596   2.006  13.715  0.4695  0.1840 -0.0369
17221TIP3    H173078   0.670   2.066  13.702  0.4455  0.4976  1.1640
17221TIP3    H273079   0.635   1.929  13.757  0.2633 -0.0335 -0.2478
17222TIP3   OH273080   6.688   0.486  13.103  0.2947 -0.2021 -0.2512
17222TIP3    H173081   6.702   0.540  13.025  0.4969  0.7739  0.4443
17222TIP3    H273082   6.776   0.467  13.136  0.2852 -2.2033 -1.3065
17223TIP3   OH273083   6.344   4.722   1.803 -0.0094  0.1106 -0.4833
17223TIP3    H173084   6.258   4.760   1.787  0.4604  0.2673 -2.7847
17223TIP3    H273085   6.394   4.792   1.844 -0.5572  0.4517 -0.3877
17224TIP3   OH273086   3.822   6.286  11.332 -0.1541  0.0408  0.6340
17224TIP3    H173087   3.820   6.301  11.427 -0.4915 -0.4023  0.6998
17224TIP3    H273088   3.849   6.370  11.295 -1.0200  0.5101  1.0585
17225TIP3   OH273089   1.566   5.706  13.301  0.4027  0.2464 -0.3712
17225TIP3    H173090   1.478   5.723  13.267 -0.7647 -1.3692  1.6901
17225TIP3    H273091   1.618   5.681  13.225 -0.8030  1.6499 -1.6767
17226TIP3   OH273092   4.485   3.357   2.398  0.2226  0.1384 -0.0129
17226TIP3    H173093   4.413   3.354   2.335  0.5335  0.0454 -0.3680
17226TIP3    H273094   4.561   3.383   2.346 -0.0884  2.9717  0.8701
17227TIP3   OH273095   4.324   4.847  14.090 -0.8268 -0.3372  0.0332
17227TIP3    H173096   4.264   4.827  14.019 -1.1303  0.3529  0.0924
17227TIP3    H273097   4.270   4.847  14.169 -0.9527  1.2589 -0.0345
17228TIP3   OH273098   3.451   5.171  14.318  0.0368  0.4096  0.6351
17228TIP3    H173099   3.391   5.195  14.249  0.4269  1.1957  0.5563
17228TIP3    H273100   3.399   5.121  14.381 -0.5894  0.7220  0.3579
17229TIP3   OH273101   1.597   3.567   0.728 -0.2338  0.2862  0.2563
17229TIP3    H173102   1.605   3.493   0.788 -0.1430  0.0614 -0.0335
17229TIP3    H273103   1.505   3.566   0.700  0.0813 -0.5110 -0.7681
17230TIP3   OH273104   3.392   0.129   4.055  0.5829  0.2557 -0.5422
17230TIP3    H173105   3.365   0.164   3.970 -0.9784  2.6217  0.8751
17230TIP3    H273106   3.358   0.040   4.056 -1.0747  0.8573 -1.6367
17231TIP3   OH273107   6.191   3.427   2.673 -0.7212  0.0578  0.2947
17231TIP3    H173108   6.230   3.407   2.588 -0.2786  3.2298 -0.3175
17231TIP3    H273109   6.130   3.355   2.689  0.1072 -1.2386 -2.0943
17232TIP3   OH273110   4.338   2.573   4.810 -0.3594  0.1559  0.2437
17232TIP3    H173111   4.429   2.572   4.838 -0.8403  2.4838  2.0147
17232TIP3    H273112   4.288   2.553   4.889 -1.4921  1.2680 -0.1725
17233TIP3   OH273113   4.271   4.321  17.050  0.4067  0.7521  0.0221
17233TIP3    H173114   4.256   4.361  17.136  0.6312 -1.2734  1.0439
17233TIP3    H273115   4.322   4.387  17.002 -1.0395  2.5406  0.8831
17234TIP3   OH273116   1.535   2.571   4.073  0.2027  0.3310  0.2694
17234TIP3    H173117   1.616   2.589   4.119  0.5714  0.0560 -0.2567
17234TIP3    H273118   1.504   2.656   4.043  0.8882  0.3293 -0.4853
17235TIP3   OH273119   6.169   3.770   5.267 -0.3291 -0.2629  0.0063
17235TIP3    H173120   6.155   3.852   5.220 -1.0331 -0.2946  0.1503
17235TIP3    H273121   6.088   3.757   5.317 -0.8705 -1.8506 -1.2494
17236TIP3   OH273122   6.070   3.774   0.763  0.3814 -0.3133  0.1884
17236TIP3    H173123   6.121   3.840   0.810 -0.4888 -0.1500  0.8984
17236TIP3    H273124   5.980   3.806   0.767  0.1477 -0.8673 -0.6232
17237TIP3   OH273125   0.075   2.557  11.776  0.5893  0.0220 -0.4225
17237TIP3    H173126   0.021   2.630  11.745  2.5746  1.2924 -0.9562
17237TIP3    H273127   0.032   2.529  11.857  0.7962  3.0040  0.7921
17238TIP3   OH273128   3.034   6.656   4.704 -0.2956  0.0091 -0.2378
17238TIP3    H173129   3.105   6.627   4.761 -1.8073  0.5256  1.9619
17238TIP3    H273130   3.029   6.751   4.718 -0.3433  0.2375 -1.6574
17239TIP3   OH273131   2.931   4.639  11.962 -0.0452  0.3740 -0.1071
17239TIP3    H173132   3.026   4.645  11.947 -0.2183 -0.5628 -1.6533
17239TIP3    H273133   2.913   4.708  12.026  2.1063 -1.1726  2.2832
17240TIP3   OH273134   1.573   4.179  16.190  0.9386 -0.7560  0.8211
17240TIP3    H173135   1.509   4.110  16.210 -2.0606  1.6121 -0.3563
17240TIP3    H273136   1.604   4.158  16.102 -0.0339 -0.5611  0.4267
17241TIP3   OH273137   4.655   4.696  15.469  0.4017  0.0958 -0.2414
17241TIP3    H173138   4.646   4.774  15.524 -0.3669  0.4385 -0.8373
17241TIP3    H273139   4.696   4.728  15.388 -0.6140  0.0457 -0.7965
17242TIP3   OH273140   0.686   0.523   1.952  0.9161  0.8181  0.0835
17242TIP3    H173141   0.665   0.576   1.875 -1.0857  4.1918  2.7903
17242TIP3    H273142   0.779   0.541   1.969  1.8811 -1.4460 -2.5889
17243TIP3   OH273143   6.155   4.979   2.584  0.2083 -0.3767 -0.1884
17243TIP3    H173144   6.249   4.962   2.577 -0.0833 -1.9897 -0.2789
17243TIP3    H273145   6.138   4.980   2.678 -0.4594 -4.6484 -0.1839
17244TIP3   OH273146   5.074   4.762   1.811 -0.4202 -0.8449 -0.0777
17244TIP3    H173147   5.057   4.695   1.745  0.4202 -1.0922 -0.0515
17244TIP3    H273148   4.994   4.766   1.863 -1.2030 -0.4438 -1.2793
17245TIP3   OH273149   0.733   1.153   3.823 -0.0373 -0.0379 -0.2226
17245TIP3    H173150   0.668   1.217   3.793  0.4017  0.4631 -0.1112
17245TIP3    H273151   0.681   1.077   3.849 -0.5402  0.1533 -0.6585
17246TIP3   OH273152   5.162   3.488  12.632  0.1218  0.7291  0.1327
17246TIP3    H173153   5.193   3.478  12.722 -2.2953 -0.5821  0.8814
17246TIP3    H273154   5.171   3.401  12.594  0.6653  1.1647 -0.7375
17247TIP3   OH273155   6.399   0.887   1.965 -0.2328 -0.1335  0.0979
17247TIP3    H173156   6.447   0.840   1.897  1.2511 -0.6378  1.4604
17247TIP3    H273157   6.348   0.820   2.010 -1.6998  0.2911 -0.8713
17248TIP3   OH273158   3.958   2.221  17.133 -0.0704  0.0258  0.2025
17248TIP3    H173159   3.947   2.316  17.141  0.0887 -0.0494  1.4391
17248TIP3    H273160   3.877   2.191  17.093  0.2956  0.7951 -1.1853
17249TIP3   OH273161   4.920   1.507   2.683 -0.2582 -0.3704 -0.0314
17249TIP3    H173162   4.830   1.525   2.709 -0.3719 -1.5959  0.4309
17249TIP3    H273163   4.941   1.423   2.724  1.0696 -0.1272 -0.1955
17250TIP3   OH273164   4.449   5.528   0.880 -0.4701 -0.4554  0.3503
17250TIP3    H173165   4.455   5.595   0.812  0.6729  0.5943  1.4633
17250TIP3    H273166   4.478   5.447   0.838 -0.5785  0.0160 -0.6250
17251TIP3   OH273167   3.101   4.257  14.918 -0.2135 -0.0386 -0.1343
17251TIP3    H173168   3.108   4.161  14.922 -0.5818 -0.0409  0.5980
17251TIP3    H273169   3.085   4.283  15.009  0.6535  0.7781 -0.2092
17252TIP3   OH273170   3.341   6.051  16.004 -0.6373 -0.4164  0.2136
17252TIP3    H173171   3.251   6.018  16.005 -0.5886 -0.5260  1.0654
17252TIP3    H273172   3.387   6.000  16.070  0.3823 -1.2321 -1.1038
17253TIP3   OH273173   4.530   4.986  15.428 -0.1758 -0.0957  0.0960
17253TIP3    H173174   4.598   4.963  15.492  2.5323 -1.1280 -3.0056
17253TIP3    H273175   4.532   5.082  15.425  1.5663 -0.1187 -0.3333
17254TIP3   OH273176   1.019   5.364   4.826 -0.2403  0.0108 -0.3886
17254TIP3    H173177   1.040   5.270   4.830 -1.9053 -0.5248 -2.9256
17254TIP3    H273178   1.104   5.407   4.820  0.5075 -1.3981 -0.2518
17255TIP3   OH273179   4.067   5.469   1.546 -0.0628 -0.3741  0.7295
17255TIP3    H173180   4.071   5.536   1.479 -1.4342 -2.4782 -1.5241
17255TIP3    H273181   3.974   5.447   1.554  0.0954 -0.3836  3.1129
17256TIP3   OH273182   4.532   0.845  11.958  0.4569  0.3363 -1.0884
17256TIP3    H173183   4.438   0.829  11.958  0.5968 -0.5102  0.2270
17256TIP3    H273184   4.543   0.928  12.005  0.3025  0.8901 -2.0174
17257TIP3   OH273185   3.076   0.453  16.690 -0.1282 -0.3822  0.2586
17257TIP3    H173186   3.024   0.499  16.625  0.3933  1.0756  0.8432
17257TIP3    H273187   3.031   0.370  16.704 -1.7245  0.4449  0.0369
17258TIP3   OH273188   2.638   4.551  16.029  0.7335  0.0099  0.2507
17258TIP3    H173189   2.647   4.467  16.075  0.7361 -0.7928 -1.1807
17258TIP3    H273190   2.546   4.554  16.002  0.4081  1.0876  1.4430
17259TIP3   OH273191   5.034   2.664  12.128 -0.7317  0.7016  0.2313
17259TIP3    H173192   5.126   2.687  12.142 -0.9247 -0.3227  3.4965
17259TIP3    H273193   4.992   2.746  12.105  0.9795  1.1688 -1.4351
17260TIP3   OH273194   3.874   5.889   4.116 -0.1614  0.4172 -0.4190
17260TIP3    H173195   3.891   5.851   4.029 -0.3797  2.4118 -1.3680
17260TIP3    H273196   3.792   5.849   4.144 -0.1817 -0.1224 -1.2207
17261TIP3   OH273197   4.158   1.261  15.567  0.2786  0.4268  0.2747
17261TIP3    H173198   4.215   1.223  15.500 -0.6571 -1.1063  0.3285
17261TIP3    H273199   4.170   1.203  15.643  0.8999  1.8212  1.2508
17262TIP3   OH273200   4.803   3.171   3.075  0.0071 -0.4417  0.5068
17262TIP3    H173201   4.776   3.145   2.987  0.1792  0.0481  0.3075
17262TIP3    H273202   4.875   3.112   3.097  0.2624 -0.2678  0.1414
17263TIP3   OH273203   2.061   3.175  12.961  0.2365 -0.0189  0.2317
17263TIP3    H173204   1.985   3.117  12.954  0.9334 -0.8503 -0.7375
17263TIP3    H273205   2.135   3.115  12.972  1.0313  0.6584 -1.3027
17264TIP3   OH273206   5.624   5.169  10.257  0.3443  0.5234  0.6558
17264TIP3    H173207   5.637   5.142  10.348  0.0263 -1.1750  0.2141
17264TIP3    H273208   5.546   5.224  10.258 -0.2519 -0.3308  1.2639
17265TIP3   OH273209   0.063   1.193  14.008 -0.3587 -0.2204  0.2615
17265TIP3    H173210   0.005   1.260  13.973 -0.0432  0.2266  0.5921
17265TIP3    H273211   0.141   1.197  13.953 -0.4368 -0.4866  0.1275
17266TIP3   OH273212   3.617   4.032   1.210 -0.0674  0.5034 -0.4648
17266TIP3    H173213   3.621   3.967   1.280  0.1547  0.3045 -0.6629
17266TIP3    H273214   3.595   3.982   1.131  0.4548  0.6140 -0.6837
17267TIP3   OH273215   6.346   6.691   1.358  0.2244  0.0906 -0.3606
17267TIP3    H173216   6.399   6.711   1.435 -0.9626  0.0353  0.4901
17267TIP3    H273217   6.389   6.616   1.317 -0.2771 -1.2018  1.4130
17268TIP3   OH273218   5.985   0.918   0.478 -0.7689 -0.0984 -0.2698
17268TIP3    H173219   5.961   0.826   0.484  1.8756 -0.7917  0.4179
17268TIP3    H273220   5.902   0.966   0.487 -2.2928 -2.4119 -1.6285
17269TIP3   OH273221   2.643   4.444   1.164  0.5900  0.3337  0.1378
17269TIP3    H173222   2.706   4.421   1.233 -1.4573  0.1282  2.0048
17269TIP3    H273223   2.663   4.535   1.142  0.0197  1.0643  2.4752
17270TIP3   OH273224   1.966   5.855   6.433 -0.1241  0.5218  0.4271
17270TIP3    H173225   1.937   5.764   6.440 -1.0898  0.4332 -3.2738
17270TIP3    H273226   2.057   5.854   6.461  0.3801 -1.9346 -1.1178
17271TIP3   OH273227   2.470   2.254   2.307  0.5922 -0.0207 -0.1977
17271TIP3    H173228   2.394   2.196   2.303  0.6192  0.0292 -1.5802
17271TIP3    H273229   2.544   2.197   2.326  0.3194 -0.1685  0.4209
17272TIP3   OH273230   2.153   5.170  11.377 -0.1689  0.3282  0.8591
17272TIP3    H173231   2.094   5.104  11.341 -0.3680  0.0598  1.6584
17272TIP3    H273232   2.120   5.253  11.342  1.3798 -0.1593 -1.9094
17273TIP3   OH273233   4.957   1.221   2.764  0.2137  0.3377  0.0707
17273TIP3    H173234   4.999   1.196   2.682  0.4330  0.7000  0.0707
17273TIP3    H273235   5.024   1.208   2.831  0.8597  2.4338 -0.1335
17274TIP3   OH273236   2.784   4.456  16.446 -0.4744  0.2479  0.6143
17274TIP3    H173237   2.800   4.532  16.502 -0.5659  0.9021 -0.2224
17274TIP3    H273238   2.755   4.387  16.506 -1.7961  1.3031  1.2267
17275TIP3   OH273239   6.759   3.855   1.644 -0.2807 -0.5712 -0.6145
17275TIP3    H173240   6.769   3.897   1.729  0.8644  0.0919 -1.0667
17275TIP3    H273241   6.708   3.916   1.592  0.6473 -0.1163 -0.9992
17276TIP3   OH273242   4.131   2.451  11.286  0.4377  0.5051 -0.1464
17276TIP3    H173243   4.091   2.538  11.290  1.0116  0.8470 -1.6606
17276TIP3    H273244   4.062   2.394  11.253  0.9284  0.9462 -1.9852
17277TIP3   OH273245   3.189   3.633  14.985  0.2578 -0.0866  0.9709
17277TIP3    H173246   3.275   3.616  14.946 -0.4420 -1.4233 -0.0623
17277TIP3    H273247   3.194   3.593  15.072  0.5404 -0.6014  0.7238
17278TIP3   OH273248   1.610   3.973  12.194 -0.0798  0.4357 -0.4561
17278TIP3    H173249   1.699   3.997  12.168 -0.5158 -0.3061 -2.7606
17278TIP3    H273250   1.608   3.878  12.188 -0.8526  0.4089  0.1771
17279TIP3   OH273251   2.241   0.686  12.943 -0.0609  0.0750 -0.2892
17279TIP3    H173252   2.267   0.645  13.025 -0.7175  0.2564  0.0103
17279TIP3    H273253   2.197   0.767  12.969  1.1951  0.9543 -0.8725
17280TIP3   OH273254   1.992   2.018  13.241  0.5735 -0.3228  0.6366
17280TIP3    H173255   1.943   2.086  13.286  0.1414  0.4550 -1.0130
17280TIP3    H273256   2.084   2.037  13.262  0.3987  0.1854  0.9510
17281TIP3   OH273257   5.074   1.363  10.885 -0.0601 -0.0350  0.1835
17281TIP3    H173258   5.100   1.454  10.895 -0.9766  0.2328  0.1745
17281TIP3    H273259   5.120   1.317  10.956 -2.6298  1.0805  2.7151
17282TIP3   OH273260   5.872   0.869   2.087 -0.0391  0.4247  0.1290
17282TIP3    H173261   5.889   0.788   2.135 -1.5869 -0.0465 -0.1058
17282TIP3    H273262   5.901   0.850   1.997 -0.5098  0.0905  0.0471
17283TIP3   OH273263   4.897   2.907  11.666  0.6175 -0.3131  0.2249
17283TIP3    H173264   4.871   2.999  11.674 -1.4441 -0.7152 -1.3251
17283TIP3    H273265   4.878   2.869  11.752  0.2804  0.4108  0.4754
17284TIP3   OH273266   6.081   1.621  17.022 -0.1852  0.6536  0.1522
17284TIP3    H173267   6.100   1.530  17.047 -2.6792 -0.0863 -0.5423
17284TIP3    H273268   6.146   1.641  16.954  2.3481  0.4596  2.4354
17285TIP3   OH273269   1.359   3.375   2.685  0.6262  0.2816 -0.1205
17285TIP3    H173270   1.376   3.342   2.597 -0.2381 -0.4939  0.0029
17285TIP3    H273271   1.426   3.443   2.698  0.9684  0.1700 -1.2383
17286TIP3   OH273272   0.510   1.187  13.127 -0.2754  0.3996  0.0114
17286TIP3    H173273   0.529   1.145  13.044  0.4604  0.4354  0.1575
17286TIP3    H273274   0.420   1.161  13.148 -1.0199  1.6355 -1.5370
17287TIP3   OH273275   3.630   5.040   0.230 -0.5722  0.0894 -0.5877
17287TIP3    H173276   3.657   4.949   0.227  2.1423  0.6584  2.5360
17287TIP3    H273277   3.537   5.038   0.254 -0.3638 -1.8599  0.1125
17288TIP3   OH273278   5.925   4.806   3.520  0.5821  0.1134  0.2477
17288TIP3    H173279   5.856   4.790   3.455  0.5466  0.5296  0.1812
17288TIP3    H273280   5.926   4.727   3.573  0.1659  0.0338  0.1410
17289TIP3   OH273281   1.860   3.020   0.494  0.4514  0.0501  0.2759
17289TIP3    H173282   1.821   3.089   0.440  1.6279 -0.4525 -1.2682
17289TIP3    H273283   1.926   3.065   0.547  0.5760  0.2588 -0.0549
17290TIP3   OH273284   5.701   1.653  14.534 -0.6395  0.1225  0.1167
17290TIP3    H173285   5.744   1.708  14.600  3.0636 -0.5501 -1.5922
17290TIP3    H273286   5.664   1.715  14.472 -2.9750  0.7370  2.0416
17291TIP3   OH273287   1.368   4.894   0.358  0.2664  0.1420 -0.1529
17291TIP3    H173288   1.460   4.922   0.355  0.0934  0.8292  0.5525
17291TIP3    H273289   1.331   4.945   0.430 -0.3849 -1.0064  0.3236
17292TIP3   OH273290   6.272   1.034  16.192  0.3611  0.0170 -0.2652
17292TIP3    H173291   6.307   1.118  16.221 -0.4024  0.3143 -0.2182
17292TIP3    H273292   6.296   1.029  16.100 -2.1955  1.6485 -1.0753
17293TIP3   OH273293   1.007   2.842   1.081 -0.4068 -0.5020 -0.0995
17293TIP3    H173294   1.002   2.748   1.067 -2.3080 -0.7953  2.1906
17293TIP3    H273295   1.066   2.853   1.155  1.5838  0.2956 -1.7625
17294TIP3   OH273296   1.965   0.832   2.576 -0.3667  0.3380 -0.6490
17294TIP3    H173297   2.025   0.858   2.506  1.4065 -0.4330  0.5528
17294TIP3    H273298   1.968   0.736   2.575 -4.2520  0.1172 -2.8286
17295TIP3   OH273299   5.662   3.878  16.779 -0.1266  0.1661  0.2027
17295TIP3    H173300   5.646   3.941  16.709 -0.2819  2.0974  1.9131
17295TIP3    H273301   5.753   3.892  16.803 -0.5434  0.7139  1.5081
17296TIP3   OH273302   1.469   6.617   0.236 -0.3486  0.3657 -0.2658
17296TIP3    H173303   1.559   6.611   0.205 -0.4124  1.1235 -0.6265
17296TIP3    H273304   1.441   6.705   0.210 -0.0359  1.4823  2.9956
17297TIP3   OH273305   3.405   6.490   0.057 -0.1426  0.1517 -0.0444
17297TIP3    H173306   3.329   6.543   0.083 -0.3066 -0.8973  1.6986
17297TIP3    H273307   3.435   6.530  -0.025 -1.9599  1.2058 -0.2359
17298TIP3   OH273308   1.393   0.335  13.396 -0.2276  0.1233 -0.5243
17298TIP3    H173309   1.326   0.336  13.463 -0.6497 -1.6989 -0.8882
17298TIP3    H273310   1.473   0.311  13.442 -0.3347 -0.2297 -0.5243
17299TIP3   OH273311   3.858   2.746   2.941 -0.1703  0.3617 -0.5768
17299TIP3    H173312   3.933   2.798   2.974 -0.7537  0.3837  0.7629
17299TIP3    H273313   3.836   2.787   2.858 -0.7738  2.4683  0.5741
17300TIP3   OH273314   0.797   6.615  11.635 -0.1426 -0.0579 -0.0672
17300TIP3    H173315   0.804   6.655  11.722 -0.5565 -0.1700  0.0207
17300TIP3    H273316   0.704   6.590  11.628 -0.0811 -0.1667 -0.4884
17301TIP3   OH273317   6.525   6.687  15.107  0.4233  0.1570  0.8201
17301TIP3    H173318   6.613   6.673  15.072  0.4434  0.9219  0.5469
17301TIP3    H273319   6.495   6.767  15.064 -0.4331 -0.1373  0.8599
17302TIP3   OH273320   1.976   3.173  11.691 -0.0920  0.1291  0.8830
17302TIP3    H173321   1.935   3.107  11.746  1.1040  0.0021  1.6372
17302TIP3    H273322   1.908   3.198  11.629 -0.1034 -2.8747 -0.3884
17303TIP3   OH273323   3.469   2.250  14.259 -0.3953 -0.0033 -0.4677
17303TIP3    H173324   3.458   2.186  14.329  0.4522  0.2430 -0.0999
17303TIP3    H273325   3.442   2.204  14.180  2.3198 -1.5819 -0.5410
17304TIP3   OH273326   2.953   5.114  17.155  0.2275 -0.9069  0.1103
17304TIP3    H173327   2.903   5.156  17.224  1.4548  0.5100  0.1648
17304TIP3    H273328   2.896   5.118  17.078 -0.6077 -1.2943  0.7089
17305TIP3   OH273329   2.977   3.467   1.448 -0.4448 -0.7517 -0.0805
17305TIP3    H173330   2.979   3.504   1.360  1.9730 -0.0301  0.2438
17305TIP3    H273331   2.967   3.543   1.506 -1.5552 -1.1794  0.3014
17306TIP3   OH273332   2.490   2.865  16.073  0.2869 -0.3795 -0.2026
17306TIP3    H173333   2.428   2.931  16.042 -0.2760 -0.3513  0.9725
17306TIP3    H273334   2.439   2.784  16.077  0.8999 -0.8375 -1.3591
17307TIP3   OH273335   4.503   6.529   4.695  0.4145 -0.0740  0.4767
17307TIP3    H173336   4.481   6.437   4.710 -0.6467 -0.0513 -0.8121
17307TIP3    H273337   4.488   6.542   4.601  1.0667  1.2826  0.5461
17308TIP3   OH273338   1.877   4.114   4.612 -0.2526  0.3571 -0.4031
17308TIP3    H173339   1.852   4.051   4.545  0.3490 -1.8095  1.3280
17308TIP3    H273340   1.958   4.153   4.579  1.1028 -2.0980 -0.1040
17309TIP3   OH273341   3.918   6.360  12.820 -0.0824 -0.1290 -0.0771
17309TIP3    H173342   3.919   6.266  12.838 -1.2716 -0.7817 -3.0928
17309TIP3    H273343   4.008   6.381  12.797  0.3020 -0.4073  1.1715
17310TIP3   OH273344   1.148   6.129  11.548  0.7359  0.2160  0.3029
17310TIP3    H173345   1.056   6.156  11.547  0.3803 -0.8681  2.0669
17310TIP3    H273346   1.177   6.141  11.457 -0.4931  2.7251  0.2004
17311TIP3   OH273347   4.131   6.401  13.238  0.2856  0.7922 -0.1780
17311TIP3    H173348   4.219   6.439  13.233  0.6708 -0.0776 -0.1177
17311TIP3    H273349   4.146   6.309  13.260 -0.6566  0.7298  0.2346
17312TIP3   OH273350   2.119   2.593  13.593  0.5598 -0.1507 -0.0449
17312TIP3    H173351   2.213   2.599  13.576  0.6992  2.4910  1.3270
17312TIP3    H273352   2.112   2.530  13.665  1.1777 -1.0776 -0.7872
17313TIP3   OH273353   2.854   5.119   1.250 -0.0805  0.1853  0.0118
17313TIP3    H173354   2.800   5.053   1.206  0.9017  0.0533 -1.0200
17313TIP3    H273355   2.943   5.102   1.219  0.0705  2.5204 -0.9180
17314TIP3   OH273356   4.930   5.225  13.707 -0.1976  0.4944 -0.2138
17314TIP3    H173357   4.852   5.169  13.712  0.0537  0.2787  1.5537
17314TIP3    H273358   4.975   5.196  13.628 -2.3244  1.1740 -1.7238
17315TIP3   OH273359   4.933   1.132  15.900 -0.3341  0.1040  0.2496
17315TIP3    H173360   4.989   1.145  15.977 -0.0903 -0.1007  0.1063
17315TIP3    H273361   4.866   1.200  15.908 -1.3284 -1.0038  1.5862
17316TIP3   OH273362   2.705   6.138  15.587 -0.4452 -0.4416 -0.2816
17316TIP3    H173363   2.644   6.065  15.596 -1.2685  0.3316  0.5062
17316TIP3    H273364   2.657   6.214  15.621  0.2892  0.5203 -1.3608
17317TIP3   OH273365   2.924   4.160  15.299 -0.4269  0.8090  0.2312
17317TIP3    H173366   2.872   4.080  15.296 -0.1119  0.6255 -0.3399
17317TIP3    H273367   2.873   4.224  15.249 -1.0852  1.2084  1.3964
17318TIP3   OH273368   4.818   4.157  10.809 -0.5451 -0.6277  0.3362
17318TIP3    H173369   4.744   4.126  10.861 -0.4188  2.2105  2.2989
17318TIP3    H273370   4.786   4.236  10.765  0.3671 -1.1521 -1.3371
17319TIP3   OH273371   3.538   2.761   0.595  0.1930  0.1935  0.0584
17319TIP3    H173372   3.601   2.715   0.651  0.1221 -1.7054 -1.3674
17319TIP3    H273373   3.586   2.838   0.563  1.5627 -0.8050 -0.3751
17320TIP3   OH273374   6.670   6.474  11.516 -0.2942 -0.1938  0.0070
17320TIP3    H173375   6.577   6.495  11.506 -0.0375  1.5566  1.2163
17320TIP3    H273376   6.695   6.511  11.601  2.4753  3.0585 -2.0667
17321TIP3   OH273377   6.411   0.938   2.779 -0.8489  0.1680  0.2933
17321TIP3    H173378   6.375   0.909   2.862  0.5282  2.1263  1.6157
17321TIP3    H273379   6.418   1.033   2.788 -0.2118  0.3490 -1.8683
17322TIP3   OH273380   1.790   0.117  13.319 -0.1360  0.0465  0.0682
17322TIP3    H173381   1.857   0.065  13.275 -0.4401  1.8835 -2.6877
17322TIP3    H273382   1.837   0.191  13.356 -0.1945 -0.3654  0.9784
17323TIP3   OH273383   1.379   3.155   1.815 -0.0397  0.0590  0.1231
17323TIP3    H173384   1.368   3.199   1.899 -0.8011 -0.2152  0.1676
17323TIP3    H273385   1.447   3.090   1.830 -1.6035 -1.3768  1.0612
17324TIP3   OH273386   3.425   5.108  12.082  0.7038 -0.3362 -0.5418
17324TIP3    H173387   3.383   5.139  12.002 -0.0203 -2.3754 -0.9908
17324TIP3    H273388   3.434   5.013  12.070  0.8304 -0.6438  1.6633
17325TIP3   OH273389   0.542   3.230  12.496  0.1521  0.1914 -0.4533
17325TIP3    H173390   0.541   3.320  12.465  0.4351 -0.0711 -1.2510
17325TIP3    H273391   0.602   3.185  12.436 -0.1731 -0.5732 -0.2097
17326TIP3   OH273392   4.711   0.880   4.631 -0.2046  0.2532 -0.3882
17326TIP3    H173393   4.625   0.884   4.587 -2.0990 -0.6618  3.0737
17326TIP3    H273394   4.759   0.955   4.595 -2.6978  1.2212 -1.8579
17327TIP3   OH273395   1.602   5.785   4.713  0.4131 -0.2298  0.3427
17327TIP3    H173396   1.571   5.698   4.737  0.3590 -0.7496 -1.5118
17327TIP3    H273397   1.687   5.770   4.673  0.2946  0.5400 -0.2194
17328TIP3   OH273398   3.070   2.311   3.506 -0.0418  0.1432 -0.4836
17328TIP3    H173399   3.130   2.237   3.502 -0.5825 -0.2339 -1.8407
17328TIP3    H273400   3.006   2.294   3.437  0.3998  2.3561 -1.4792
17329TIP3   OH273401   3.989   3.738   2.081  0.0148  0.1722  0.5083
17329TIP3    H173402   3.906   3.779   2.055  0.5587 -0.3874 -2.2147
17329TIP3    H273403   4.020   3.791   2.155 -2.4738  0.7311  1.1975
17330TIP3   OH273404   3.684   4.290   6.495 -0.6588 -0.5062  0.0137
17330TIP3    H173405   3.709   4.346   6.422 -0.6402  0.3541  0.6708
17330TIP3    H273406   3.628   4.345   6.550 -0.7493 -1.1706  0.5962
17331TIP3   OH273407   5.488   1.615  15.864 -0.0941  0.2447 -0.7816
17331TIP3    H173408   5.483   1.520  15.855  1.7662 -0.0763  1.0894
17331TIP3    H273409   5.506   1.647  15.776  3.0565 -1.4812 -0.8241
17332TIP3   OH273410   2.801   3.925   0.358  0.2220  0.0557 -0.6512
17332TIP3    H173411   2.866   3.883   0.302  1.1086 -0.9000  1.0528
17332TIP3    H273412   2.839   4.011   0.379 -0.2618  0.5465 -1.7671
17333TIP3   OH273413   4.650   3.148   1.148 -0.0878 -0.2380  0.7278
17333TIP3    H173414   4.605   3.076   1.192 -0.6508 -0.1973  0.2197
17333TIP3    H273415   4.663   3.118   1.059  0.4903 -0.0693  0.7559
17334TIP3   OH273416   1.151   2.856  12.513  0.3269 -0.0190  0.4900
17334TIP3    H173417   1.136   2.951  12.515 -0.1572 -0.0698 -0.3057
17334TIP3    H273418   1.237   2.845  12.554  1.5331  1.0244 -1.6480
17335TIP3   OH273419   3.396   5.002   1.061 -0.1375 -0.1234  0.4216
17335TIP3    H173420   3.420   5.094   1.051 -0.4707  0.0415  1.0955
17335TIP3    H273421   3.480   4.956   1.070  0.0790 -0.0390 -1.0562
17336TIP3   OH273422   2.981   5.401   4.254 -0.7065  0.6227  0.3416
17336TIP3    H173423   3.027   5.364   4.329  0.4169  2.1202  0.3928
17336TIP3    H273424   2.896   5.427   4.289 -1.4860 -1.7659  0.3325
17337TIP3   OH273425   2.458   3.236  11.318  0.3826 -0.2824 -0.1743
17337TIP3    H173426   2.494   3.317  11.355 -0.9727  0.3003 -0.0951
17337TIP3    H273427   2.445   3.256  11.225  1.3055 -0.8682 -0.4407
17338TIP3   OH273428   4.543   1.412  13.170  0.1457 -0.1923 -0.2690
17338TIP3    H173429   4.598   1.464  13.112  1.2551 -0.0390  0.8958
17338TIP3    H273430   4.605   1.368  13.228 -0.8914 -1.1831  0.1008
17339TIP3   OH273431   3.447   5.174   3.332  0.2413 -0.3414 -0.1544
17339TIP3    H173432   3.500   5.245   3.368  0.0823 -0.0967 -0.4011
17339TIP3    H273433   3.508   5.122   3.280  0.3938 -0.4839  0.1650
17340TIP3   OH273434   2.750   6.507  17.214  0.2332  1.1508  0.6418
17340TIP3    H173435   2.754   6.598  17.184 -0.1213  0.6384 -0.9907
17340TIP3    H273436   2.838   6.473  17.199 -0.7164 -0.0108 -2.8395
17341TIP3   OH273437   0.944   2.811   5.901  0.2503  0.0932 -0.3698
17341TIP3    H173438   0.877   2.880   5.893  3.0914  2.8200 -1.5177
17341TIP3    H273439   0.975   2.819   5.992 -0.0314 -0.2675 -0.2416
17342TIP3   OH273440   0.333   2.021  14.819 -0.0709  0.3738  0.0055
17342TIP3    H173441   0.244   2.006  14.849 -0.3934 -0.3078 -1.2383
17342TIP3    H273442   0.385   1.953  14.863 -0.2103  0.5776  0.4883
17343TIP3   OH273443   2.991   3.851  12.859 -0.5501 -0.8094  0.0979
17343TIP3    H173444   2.960   3.941  12.862 -0.3119 -0.6256 -2.5179
17343TIP3    H273445   3.076   3.856  12.816  0.4535 -2.0371  1.8794
17344TIP3   OH273446   3.637   5.680   4.466  0.0313  0.1403 -0.0714
17344TIP3    H173447   3.643   5.756   4.525  0.2118  0.3063 -0.3023
17344TIP3    H273448   3.585   5.616   4.515  0.3337  0.2114  0.3420
17345TIP3   OH273449   5.652   5.862   2.174  0.1934 -0.2248  0.9082
17345TIP3    H173450   5.692   5.853   2.261 -0.6521 -0.9294  1.2345
17345TIP3    H273451   5.711   5.920   2.126  0.8613 -0.1270  1.8367
17346TIP3   OH273452   6.212   0.243  11.322 -0.1886  0.2011  0.2924
17346TIP3    H173453   6.180   0.155  11.305 -0.2921  0.1952  0.5109
17346TIP3    H273454   6.167   0.270  11.403  0.9752 -0.1288  1.0669
17347TIP3   OH273455   4.698   6.501   5.079  0.0591 -0.3874  0.3778
17347TIP3    H173456   4.679   6.544   5.162  1.2048 -1.4897  1.2342
17347TIP3    H273457   4.614   6.467   5.050 -0.7672  1.9783 -0.0680
17348TIP3   OH273458   3.479   0.125  11.498  0.0656 -0.1447 -0.6174
17348TIP3    H173459   3.436   0.163  11.575 -0.4241  0.1560 -1.0432
17348TIP3    H273460   3.553   0.183  11.481  1.1155 -1.0818  0.5761
17349TIP3   OH273461   5.671   3.616   1.447 -0.1568 -0.1825 -0.2961
17349TIP3    H173462   5.754   3.571   1.465 -0.4466 -0.1361  1.2091
17349TIP3    H273463   5.611   3.585   1.514 -1.4829 -0.4832 -1.5901
17350TIP3   OH273464   5.347   6.187  12.365 -1.1699 -0.0212 -0.1351
17350TIP3    H173465   5.254   6.188  12.345 -1.0487 -0.2589 -0.6992
17350TIP3    H273466   5.357   6.118  12.431 -1.4926  0.4670  0.4368
17351TIP3   OH273467   3.224   6.512  11.907 -0.0668 -0.0872 -0.0244
17351TIP3    H173468   3.168   6.489  11.833  1.1318  0.2069 -1.0261
17351TIP3    H273469   3.229   6.607  11.905 -1.0468  0.0004  1.1981
17352TIP3   OH273470   4.691   3.364   2.220  0.5542  0.5320  0.1713
17352TIP3    H173471   4.769   3.379   2.274  0.2645 -2.2551  1.4677
17352TIP3    H273472   4.717   3.295   2.159 -0.3460  0.8581 -0.5881
17353TIP3   OH273473   4.961   4.901  13.790 -0.1083  0.1056  0.5144
17353TIP3    H173474   5.032   4.956  13.757 -0.4194  0.3336  0.2231
17353TIP3    H273475   4.996   4.812  13.786  0.4560  0.2952  1.1427
17354TIP3   OH273476   2.794   0.927   3.816  1.2648 -0.0961  0.1233
17354TIP3    H173477   2.714   0.924   3.763 -0.4371  1.1624  2.5398
17354TIP3    H273478   2.850   0.991   3.772 -0.0762  0.8464 -0.2341
17355TIP3   OH273479   2.628   3.136  16.131  0.3668  0.2444  0.3077
17355TIP3    H173480   2.562   3.070  16.110  0.2390  0.7446 -0.9250
17355TIP3    H273481   2.712   3.091  16.118  0.2872  0.4786 -1.0977
17356TIP3   OH273482   1.806   3.729  11.853  0.2516 -0.1952 -0.1461
17356TIP3    H173483   1.738   3.699  11.913 -0.3953 -0.0936 -0.8362
17356TIP3    H273484   1.852   3.649  11.827  0.4400 -0.2560  0.3612
17357TIP3   OH273485   4.002   4.994   5.425 -0.3429 -0.2250  0.7380
17357TIP3    H173486   3.947   4.962   5.496 -2.6215 -0.3867 -1.0328
17357TIP3    H273487   4.055   4.918   5.399 -0.2468 -0.4414  1.5554
17358TIP3   OH273488   6.096   6.328  10.896  0.5150  0.1013  0.3834
17358TIP3    H173489   6.012   6.347  10.854  1.1722  3.6938  0.5371
17358TIP3    H273490   6.089   6.236  10.922 -2.0643 -0.6163 -2.5489
17359TIP3   OH273491   3.005   3.188   5.211  0.1309  0.2318 -0.3524
17359TIP3    H173492   2.998   3.093   5.224 -0.3751  0.3106 -0.0228
17359TIP3    H273493   3.047   3.197   5.126  1.1979 -0.2929  0.1090
17360TIP3   OH273494   1.928   1.065   3.033  0.0191  0.6447  0.5683
17360TIP3    H173495   1.922   0.970   3.035 -0.7455  0.6565 -0.5180
17360TIP3    H273496   1.898   1.089   2.945  0.9476  1.8362  0.5648
17361TIP3   OH273497   3.617   5.750  15.288  0.6595  0.0678 -0.0937
17361TIP3    H173498   3.561   5.824  15.264  0.7641  1.1556  2.8071
17361TIP3    H273499   3.677   5.740  15.214 -0.3340  1.8908 -1.1775
17362TIP3   OH273500   2.438   3.929  12.294  0.3463 -0.4590  0.1648
17362TIP3    H173501   2.343   3.917  12.302  0.3101  0.2457  0.8296
17362TIP3    H273502   2.474   3.892  12.374  0.7429 -1.8640 -0.6524
17363TIP3   OH273503   3.585   0.736   0.202  0.1466 -0.0939  0.7405
17363TIP3    H173504   3.559   0.792   0.129 -1.2568 -0.2723  1.0969
17363TIP3    H273505   3.507   0.687   0.225  0.2774  0.6619  3.0078
17364TIP3   OH273506   3.453   1.243   0.986  0.0655 -0.1387 -0.1957
17364TIP3    H173507   3.519   1.181   1.016 -1.4548 -0.3989  2.7299
17364TIP3    H273508   3.377   1.190   0.964 -0.7878  0.5174  1.0629
17365TIP3   OH273509   1.922   3.220   5.894  0.4351 -0.2704  0.3730
17365TIP3    H173510   1.977   3.225   5.973  1.3325 -2.1418 -0.1204
17365TIP3    H273511   1.976   3.260   5.826  0.8947 -1.3834  0.0667
17366TIP3   OH273512   5.932   1.963   2.240 -0.5741  0.7656 -0.6165
17366TIP3    H173513   5.875   1.892   2.210 -1.1647  0.4832  1.1565
17366TIP3    H273514   6.018   1.941   2.202 -1.3252  0.5222 -2.2396
17367TIP3   OH273515   2.569   6.039  13.185 -0.1847 -0.1790 -0.3185
17367TIP3    H173516   2.489   5.989  13.170 -0.5233  0.2757 -0.0345
17367TIP3    H273517   2.573   6.049  13.280 -0.5253  1.0011 -0.4217
17368TIP3   OH273518   2.789   3.727  13.374 -0.4034  0.0688  0.7807
17368TIP3    H173519   2.816   3.793  13.438 -0.0858 -0.3401  1.0689
17368TIP3    H273520   2.727   3.773  13.317  1.1362  1.1057 -0.0816
17369TIP3   OH273521   0.461   4.624  11.238  0.1911  0.0604 -0.1410
17369TIP3    H173522   0.531   4.561  11.221  0.3227  0.1987 -0.1124
17369TIP3    H273523   0.471   4.689  11.169 -0.5929 -0.5019 -0.7858
17370TIP3   OH273524   3.484   1.851  13.858  0.0243  0.0328  0.0218
17370TIP3    H173525   3.509   1.890  13.942  2.7846 -1.1157 -0.2251
17370TIP3    H273526   3.474   1.926  13.799 -0.2126  0.7295  0.9297
17371TIP3   OH273527   6.487   4.380  10.723  0.2379  0.3922 -0.7513
17371TIP3    H173528   6.418   4.443  10.701 -0.6893 -0.6997 -0.9871
17371TIP3    H273529   6.493   4.323  10.647  1.8002  0.8231 -0.9614
17372TIP3   OH273530   3.514   2.424  15.399  0.4493 -0.0308  0.1310
17372TIP3    H173531   3.552   2.389  15.319  2.2205 -0.8184  1.2713
17372TIP3    H273532   3.454   2.356  15.430 -1.4955  0.9624 -1.3600
17373TIP3   OH273533   1.824   1.800   0.433 -0.5904  0.8238 -0.1393
17373TIP3    H173534   1.813   1.809   0.338 -2.1351  1.2585  0.0735
17373TIP3    H273535   1.822   1.889   0.467  0.7333  0.7208  0.2304
17374TIP3   OH273536   4.635   0.855   3.560  0.1267 -0.0782  0.1071
17374TIP3    H173537   4.592   0.878   3.477  0.5366 -2.7179 -0.8987
17374TIP3    H273538   4.596   0.771   3.585  0.4730  0.3706  2.2761
17375TIP3   OH273539   1.215   0.663  12.883  0.5687 -0.1697  0.8471
17375TIP3    H173540   1.267   0.711  12.947  0.6058  2.3105 -0.9320
17375TIP3    H273541   1.177   0.732  12.828  2.8484 -2.2265 -3.5825
17376TIP3   OH273542   2.786   3.674   2.712  0.1464  0.2946 -0.2414
17376TIP3    H173543   2.832   3.682   2.629 -1.1240  0.1000 -0.9819
17376TIP3    H273544   2.821   3.594   2.751  0.6003  0.2725 -0.6873
17377TIP3   OH273545   2.127   4.279   0.382 -0.6128  0.1348 -0.2111
17377TIP3    H173546   2.218   4.297   0.362 -0.4370  1.0413  1.3588
17377TIP3    H273547   2.089   4.365   0.402 -2.0396 -0.1105 -1.7384
17378TIP3   OH273548   5.197   4.777  16.022  0.1474 -0.4747 -0.2022
17378TIP3    H173549   5.112   4.735  16.007  0.4034 -1.2145  0.3871
17378TIP3    H273550   5.213   4.828  15.943 -0.8864 -0.2662 -0.2837
17379TIP3   OH273551   3.936   4.693  11.450  0.0427  0.2408  0.1936
17379TIP3    H173552   3.938   4.609  11.405 -2.7939 -0.7660  1.8228
17379TIP3    H273553   3.849   4.729  11.430 -0.0498  1.2220  2.2212
17380TIP3   OH273554   2.760   2.765   3.284 -0.3462 -0.3615 -1.3053
17380TIP3    H173555   2.756   2.817   3.203 -0.3735 -0.1523 -1.1705
17380TIP3    H273556   2.849   2.778   3.316 -1.1774  1.9573  0.2651
17381TIP3   OH273557   6.705   5.282  12.440  0.2754  0.4879  0.3129
17381TIP3    H173558   6.642   5.265  12.510  0.7276  2.3530  1.2043
17381TIP3    H273559   6.783   5.234  12.465  0.9905  2.4289  1.9676
17382TIP3   OH273560   0.430   6.327  16.992  0.0075  0.0916 -0.3530
17382TIP3    H173561   0.351   6.379  17.003 -0.0149 -0.2393  1.0875
17382TIP3    H273562   0.479   6.373  16.924 -1.7729 -0.1375 -1.8567
17383TIP3   OH273563   2.409   3.474  15.685  0.4861  0.5583 -0.0773
17383TIP3    H173564   2.333   3.466  15.742  1.4174 -0.7195  1.0172
17383TIP3    H273565   2.397   3.405  15.619  0.3191  0.8673 -0.3742
17384TIP3   OH273566   3.859   1.315   3.653 -0.3921 -0.0431 -0.4891
17384TIP3    H173567   3.876   1.316   3.748 -0.1078  1.6865 -0.5366
17384TIP3    H273568   3.875   1.225   3.627 -1.4485 -0.7783  1.2963
17385TIP3   OH273569   3.304   3.694   6.742  0.7206 -0.0100 -0.3114
17385TIP3    H173570   3.270   3.758   6.804  0.9564  0.1153 -0.3139
17385TIP3    H273571   3.317   3.744   6.661 -0.7860 -0.4306 -0.8440
17386TIP3   OH273572   1.231   5.368   0.268 -0.3589 -0.1722  0.2324
17386TIP3    H173573   1.288   5.314   0.323 -2.5276  0.1130  2.8128
17386TIP3    H273574   1.246   5.458   0.298 -1.9361 -0.0649  0.7355
17387TIP3   OH273575   4.632   5.723   1.226  0.0445 -0.3473  0.6248
17387TIP3    H173576   4.602   5.743   1.314 -1.9484  0.1410 -0.1294
17387TIP3    H273577   4.580   5.647   1.200  0.2557 -0.1778 -0.3088
17388TIP3   OH273578   0.450   1.763   0.989 -0.0523  0.0168  0.2607
17388TIP3    H173579   0.451   1.688   0.929  2.0364 -0.4479  0.8504
17388TIP3    H273580   0.378   1.744   1.049  1.0636 -2.0172  1.0107
17389TIP3   OH273581   3.084   0.082   5.761 -0.1873 -0.1555 -0.1247
17389TIP3    H173582   3.130   0.164   5.778  1.2681 -1.1648  0.8982
17389TIP3    H273583   3.131   0.045   5.686  0.9142 -1.3363  1.1177
17390TIP3   OH273584   6.446   4.917   2.541 -0.7962 -0.5690  0.2703
17390TIP3    H173585   6.486   4.920   2.454  0.0957 -0.4934  0.6773
17390TIP3    H273586   6.520   4.906   2.601 -1.3628 -0.1285  1.0592
17391TIP3   OH273587   3.637   6.549   3.107  0.3375  0.6138 -0.1225
17391TIP3    H173588   3.610   6.541   3.198 -1.1666  0.3339 -0.5709
17391TIP3    H273589   3.625   6.642   3.087 -0.3192  0.4871 -0.3257
17392TIP3   OH273590   6.021   2.992   2.947  0.1390  0.5101 -0.1071
17392TIP3    H173591   5.967   3.070   2.935 -1.2186 -0.8671 -3.2742
17392TIP3    H273592   6.075   2.987   2.868  1.3422 -0.9145  0.7708
17393TIP3   OH273593   6.226   0.179   1.704  0.0789 -0.3236 -0.1669
17393TIP3    H173594   6.301   0.123   1.685  1.1888  1.2682 -0.5393
17393TIP3    H273595   6.263   0.267   1.713 -1.8460  0.6215 -1.2131
17394TIP3   OH273596   2.049   3.475  14.943 -0.5138  0.2473  0.2174
17394TIP3    H173597   2.043   3.438  15.031 -0.7668 -0.4075 -0.0679
17394TIP3    H273598   1.995   3.417  14.889  2.6274 -1.6396 -1.0741
17395TIP3   OH273599   2.524   4.349   0.882 -0.2365 -0.5952  0.2968
17395TIP3    H173600   2.585   4.399   0.829 -0.9018 -0.9825 -0.8561
17395TIP3    H273601   2.553   4.363   0.972 -0.0731  1.3891 -0.0488
17396TIP3   OH273602   0.968   3.699   1.099 -0.6743  0.1048 -0.3637
17396TIP3    H173603   1.000   3.728   1.185 -0.2340  0.5814 -0.6903
17396TIP3    H273604   0.878   3.730   1.095 -1.2655 -1.3950  0.6339
17397TIP3   OH273605   1.345   5.235   2.736  0.7104 -0.0959  0.2724
17397TIP3    H173606   1.429   5.217   2.694  0.7593  0.1572  0.2655
17397TIP3    H273607   1.282   5.237   2.664  0.3261 -2.5302  0.4744
17398TIP3   OH273608   0.833   3.029   0.588  0.1193 -0.3083  0.3641
17398TIP3    H173609   0.846   3.109   0.638  1.8501 -0.2974 -0.0966
17398TIP3    H273610   0.826   3.058   0.497  1.2946 -0.7227  0.1377
17399TIP3   OH273611   3.289   1.773  14.397 -0.1978 -0.3714 -0.1898
17399TIP3    H173612   3.298   1.819  14.313 -0.3449 -1.3071 -0.7176
17399TIP3    H273613   3.196   1.753  14.403 -0.5440  1.5187  1.1727
17400TIP3   OH273614   2.540   2.566   1.241  0.5018 -0.1546 -0.4307
17400TIP3    H173615   2.495   2.493   1.284  0.5939 -0.0837 -0.2134
17400TIP3    H273616   2.516   2.643   1.292 -1.1232  0.2624 -1.7810
17401TIP3   OH273617   0.292   1.132  12.905  0.1894  0.0256  0.3184
17401TIP3    H173618   0.216   1.075  12.913 -0.6418  0.9917 -0.5670
17401TIP3    H273619   0.262   1.204  12.850  1.9923 -0.0114 -0.7360
17402TIP3   OH273620   3.067   4.083  12.459 -0.5046 -0.1039 -0.1004
17402TIP3    H173621   3.120   4.121  12.529 -0.6850 -0.2344  0.1086
17402TIP3    H273622   3.016   4.156  12.425 -0.0761  0.0538 -0.4074
17403TIP3   OH273623   1.475   4.066   4.399 -0.4566  0.2123 -0.2246
17403TIP3    H173624   1.403   4.115   4.359 -0.3480 -0.4428 -1.2400
17403TIP3    H273625   1.435   3.986   4.432  0.3469 -1.9669 -4.1397
17404TIP3   OH273626   5.700   4.616  13.835 -0.0153 -0.2055 -0.3784
17404TIP3    H173627   5.774   4.645  13.887 -1.2150  1.2798  0.5577
17404TIP3    H273628   5.724   4.529  13.803  2.3457  0.5034 -0.5712
17405TIP3   OH273629   5.973   0.143  12.774  0.0170 -0.1973  0.8589
17405TIP3    H173630   6.000   0.071  12.716  0.1702  0.8346 -0.3776
17405TIP3    H273631   6.031   0.137  12.849  2.4568  0.7887 -0.8672
17406TIP3   OH273632   2.646   6.296   2.838  0.1280  0.4211 -0.4210
17406TIP3    H173633   2.584   6.334   2.776  0.0442 -1.0031 -1.2202
17406TIP3    H273634   2.607   6.212   2.862  1.0348  0.1719  0.1917
17407TIP3   OH273635   1.156   5.402   3.579 -0.3382  0.3620  0.1937
17407TIP3    H173636   1.226   5.463   3.602 -1.4817  1.3912  1.0078
17407TIP3    H273637   1.109   5.387   3.661 -1.2122 -0.1457 -0.3942
17408TIP3   OH273638   0.430   5.091   2.051  0.5820  0.1179 -0.4006
17408TIP3    H173639   0.376   5.153   2.100  1.5701  0.9829 -0.3784
17408TIP3    H273640   0.376   5.012   2.044  0.1024  0.2526  1.3990
17409TIP3   OH273641   3.741   1.865   5.773 -0.6757  0.4636 -0.3914
17409TIP3    H173642   3.682   1.914   5.831  0.5963 -1.6740  2.8254
17409TIP3    H273643   3.729   1.774   5.799  0.6058 -0.4756 -2.9580
17410TIP3   OH273644   1.063   3.464  14.226  0.3220 -0.3628  0.3179
17410TIP3    H173645   1.011   3.438  14.302 -2.0664 -1.0648 -1.4581
17410TIP3    H273646   1.079   3.382  14.179  2.5047 -0.0519  0.5026
17411TIP3   OH273647   5.221   1.962  16.879  0.0663 -0.0620 -0.7400
17411TIP3    H173648   5.315   1.946  16.889  0.3354  2.0835  0.5121
17411TIP3    H273649   5.216   2.048  16.837 -1.3391  0.3885  0.3220
17412TIP3   OH273650   1.764   0.084   4.106  0.0825 -0.1769 -0.4019
17412TIP3    H173651   1.696   0.142   4.072 -2.0004 -0.8402  2.4413
17412TIP3    H273652   1.842   0.140   4.113 -0.6900  1.1250 -1.7737
17413TIP3   OH273653   2.780   3.463   2.898  0.4399  0.1599  0.5085
17413TIP3    H173654   2.856   3.417   2.862  1.2313  0.7208  1.4577
17413TIP3    H273655   2.706   3.404   2.880  1.0322 -0.2067 -0.7669
17414TIP3   OH273656   3.844   6.070   4.325  0.0431  0.2404  0.4467
17414TIP3    H173657   3.855   6.017   4.247  1.4441  0.5389  0.4308
17414TIP3    H273658   3.912   6.137   4.319 -1.4050  1.7896  0.6818
17415TIP3   OH273659   5.193   6.531  13.427 -0.0731 -0.5304  0.2688
17415TIP3    H173660   5.277   6.543  13.384  0.0983  0.3255  0.8269
17415TIP3    H273661   5.175   6.615  13.470 -1.0497 -0.8095  0.4328
17416TIP3   OH273662   4.496   1.309   4.718  0.2746  0.2231  0.1978
17416TIP3    H173663   4.455   1.264   4.644 -2.0617  0.2803  1.4048
17416TIP3    H273664   4.509   1.399   4.687  2.5242 -0.5757 -1.2997
17417TIP3   OH273665   0.346   0.068  12.586 -0.2040 -0.3786 -0.0832
17417TIP3    H173666   0.306  -0.007  12.630  1.0286 -0.9151  0.1754
17417TIP3    H273667   0.440   0.059  12.606 -0.0842  1.4310  0.2440
17418TIP3   OH273668   1.056   1.018  15.482 -0.3714 -0.3071 -0.2422
17418TIP3    H173669   1.010   1.100  15.463  0.0626  0.0729  0.3230
17418TIP3    H273670   1.117   1.041  15.552 -0.6558 -1.2433  0.3255
17419TIP3   OH273671   4.389   3.504  12.750 -0.7649  0.0726 -0.1091
17419TIP3    H173672   4.393   3.415  12.786  0.0070  0.8634  1.8333
17419TIP3    H273673   4.310   3.504  12.696 -0.7837 -1.7908 -0.1185
17420TIP3   OH273674   5.165   0.561   3.810 -0.4785 -0.1075 -0.2961
17420TIP3    H173675   5.185   0.497   3.878  1.3324  1.2323  0.4546
17420TIP3    H273676   5.131   0.637   3.857 -0.6202  0.2871 -1.0169
17421TIP3   OH273677   3.229   1.605   3.352 -0.2481 -0.2458  0.3383
17421TIP3    H173678   3.311   1.571   3.315 -0.5485  0.3532 -0.8905
17421TIP3    H273679   3.187   1.650   3.279 -1.5662 -0.3433  1.0333
17422TIP3   OH273680   5.883   0.039  16.106  0.2981  0.2358  0.0463
17422TIP3    H173681   5.799   0.039  16.060  0.5250  1.6563 -0.3867
17422TIP3    H273682   5.948   0.025  16.037  0.3521 -2.3106  0.5637
17423TIP3   OH273683   1.302   6.669   6.087  0.0368  0.4080 -0.2670
17423TIP3    H173684   1.359   6.632   6.155  0.6159  0.4829 -0.7038
17423TIP3    H273685   1.348   6.748   6.058  0.2456 -0.1231 -1.3919
17424TIP3   OH273686   2.657   4.242   2.702 -0.3497 -0.0182  0.0450
17424TIP3    H173687   2.597   4.207   2.769  0.1606  0.0789  0.5561
17424TIP3    H273688   2.718   4.170   2.685 -0.2546  0.0854 -0.0518
17425TIP3   OH273689   2.247   1.356   0.261  0.2557  0.1331  0.5377
17425TIP3    H173690   2.296   1.372   0.180 -0.8655 -2.8161 -0.7814
17425TIP3    H273691   2.315   1.349   0.329  1.2502  1.8198 -0.2452
17426TIP3   OH273692   4.673   0.540   2.011  0.2736  0.3263  0.2852
17426TIP3    H173693   4.640   0.580   2.091 -0.0069  0.3095  0.1784
17426TIP3    H273694   4.726   0.466   2.041  1.3489  1.1668  0.5166
17427TIP3   OH273695   3.647   1.569   1.266 -0.1026 -0.2607  0.0543
17427TIP3    H173696   3.593   1.546   1.342 -1.3903 -1.2515 -1.1371
17427TIP3    H273697   3.596   1.540   1.190  1.2215  0.5975 -1.1956
17428TIP3   OH273698   3.461   2.083   0.815  0.3557  0.2748 -0.4752
17428TIP3    H173699   3.443   2.006   0.869 -0.7687  1.1072  0.3736
17428TIP3    H273700   3.499   2.048   0.735  2.2158 -0.9789  0.9112
17429TIP3   OH273701   3.399   2.377  12.824 -0.0016  0.1289 -0.5154
17429TIP3    H173702   3.312   2.392  12.862 -0.1189 -0.0440 -0.7145
17429TIP3    H273703   3.381   2.339  12.738  0.2910 -0.8679 -0.1398
17430TIP3   OH273704   6.485   3.997   5.475 -0.2363 -0.6821  0.8354
17430TIP3    H173705   6.401   4.030   5.445  0.3941 -0.8781 -1.2544
17430TIP3    H273706   6.521   4.067   5.528 -1.1121 -0.0304  0.5793
17431TIP3   OH273707   6.720   0.441  14.844  0.0933 -0.3849 -0.4382
17431TIP3    H173708   6.648   0.466  14.786 -0.4521 -1.1326 -0.0952
17431TIP3    H273709   6.789   0.504  14.825 -0.9847  0.9126 -0.1059
17432TIP3   OH273710   4.807   1.381   2.261  0.4460  0.2439 -0.3063
17432TIP3    H173711   4.887   1.408   2.216 -0.3614 -0.9067 -2.5162
17432TIP3    H273712   4.837   1.343   2.344  2.2039 -0.4044 -1.2261
17433TIP3   OH273713   3.204   1.512   2.522  0.0978 -0.1472 -0.9288
17433TIP3    H173714   3.285   1.464   2.539 -0.8441 -1.9437 -1.4281
17433TIP3    H273715   3.134   1.449   2.539 -1.4001  2.4370  3.1229
17434TIP3   OH273716   1.247   3.837  16.407 -0.5376 -0.8113  0.0748
17434TIP3    H173717   1.295   3.803  16.482 -0.3303  0.5682  0.5797
17434TIP3    H273718   1.158   3.801  16.416 -0.5118 -0.6441  0.9784
17435TIP3   OH273719   5.372   6.121  11.826 -0.1736 -0.4661  0.5640
17435TIP3    H173720   5.326   6.170  11.758 -0.9263 -2.5041 -0.4603
17435TIP3    H273721   5.418   6.187  11.877 -0.0705  1.1650 -1.5771
17436TIP3   OH273722   3.692   1.460  13.688  0.0949 -0.4869  0.4436
17436TIP3    H173723   3.657   1.549  13.680  0.6650 -0.3622 -0.6615
17436TIP3    H273724   3.718   1.453  13.780  1.0014  0.8443  0.3011
17437TIP3   OH273725   0.464   3.646  12.815 -0.4229  0.3329  0.5207
17437TIP3    H173726   0.522   3.571  12.822 -0.1378  0.3178 -1.5282
17437TIP3    H273727   0.490   3.704  12.886  0.2344 -0.9081  1.3055
17438TIP3   OH273728   1.705   4.438  17.140  0.4505 -0.4386  0.1284
17438TIP3    H173729   1.676   4.360  17.094  2.2135 -0.9929 -0.0731
17438TIP3    H273730   1.737   4.497  17.072  1.2829 -0.4852  0.4690
17439TIP3   OH273731   2.622   0.126  15.094  0.3244 -0.0170  0.1733
17439TIP3    H173732   2.637   0.219  15.109  2.8117 -0.1941 -1.0771
17439TIP3    H273733   2.562   0.100  15.164  0.6602  2.2240  1.3244
17440TIP3   OH273734   0.775   5.652   3.205 -0.3981 -0.0181 -0.1842
17440TIP3    H173735   0.799   5.571   3.251  0.9948 -0.3638 -1.4771
17440TIP3    H273736   0.707   5.625   3.144 -1.7164  0.2951  1.1180
17441TIP3   OH273737   3.319   6.537  12.444  0.1873  0.0471 -0.2054
17441TIP3    H173738   3.398   6.539  12.498  0.2962  2.4199 -0.4146
17441TIP3    H273739   3.343   6.581  12.363 -1.0238 -0.2056 -0.7202
17442TIP3   OH273740   5.841   4.589   3.677  0.3210  0.4139 -0.0580
17442TIP3    H173741   5.924   4.573   3.722  0.1410  0.3198  0.2353
17442TIP3    H273742   5.791   4.508   3.687  0.6606  0.0410 -1.2483
17443TIP3   OH273743   3.562   4.357  15.361 -0.1464 -0.6201  0.0673
17443TIP3    H173744   3.616   4.328  15.287 -1.2609  0.7559 -1.3302
17443TIP3    H273745   3.623   4.360  15.435  1.5892  0.4085 -1.3573
17444TIP3   OH273746   2.533   4.023   0.352  0.5275 -0.0916  0.2029
17444TIP3    H173747   2.486   3.949   0.313 -0.3827  0.5580  0.0362
17444TIP3    H273748   2.623   3.994   0.359  0.5633 -0.5003 -1.7018
17445TIP3   OH273749   4.931   0.280  14.888 -0.0848 -0.1505  0.1297
17445TIP3    H173750   4.841   0.311  14.892  0.5706  1.9167 -0.2826
17445TIP3    H273751   4.964   0.289  14.977  0.0763  0.3071  0.0305
17446TIP3   OH273752   1.417   0.066   5.923  0.2047  0.0250  0.0846
17446TIP3    H173753   1.376   0.152   5.929  0.6249  0.2192  0.1858
17446TIP3    H273754   1.508   0.084   5.898  0.0920 -0.4337 -0.6718
17447TIP3   OH273755   5.571   3.763   2.821 -0.5732  0.0689 -0.3678
17447TIP3    H173756   5.571   3.848   2.777 -1.0593  0.7896  0.9637
17447TIP3    H273757   5.573   3.785   2.914  2.2911 -1.4365 -0.0180
17448TIP3   OH273758   5.680   5.753   3.114 -1.0796  0.4581  0.0159
17448TIP3    H173759   5.710   5.805   3.189 -0.0637  0.8853 -0.6789
17448TIP3    H273760   5.664   5.666   3.151 -1.7653  0.9810  0.9734
17449TIP3   OH273761   5.862   2.188   0.157  0.0494  0.2156 -0.0153
17449TIP3    H173762   5.953   2.160   0.170 -0.0224 -0.1220 -0.2359
17449TIP3    H273763   5.819   2.112   0.117  0.3576  1.3524 -2.5903
17450TIP3   OH273764   1.003   1.726   1.543  0.1692 -0.3413 -0.4301
17450TIP3    H173765   0.911   1.711   1.562  0.5043 -0.8319  0.8950
17450TIP3    H273766   1.048   1.648   1.578  1.1700  0.3408 -0.1558
17451TIP3   OH273767   2.264   4.092   1.786 -0.5788  0.3266 -0.4792
17451TIP3    H173768   2.326   4.161   1.809  1.2650 -1.2658 -0.5096
17451TIP3    H273769   2.282   4.073   1.694 -0.3787 -0.8445 -0.2148
17452TIP3   OH273770   3.281   3.047   5.529 -0.5695 -0.3754  0.1795
17452TIP3    H173771   3.215   2.977   5.534 -1.6222  0.6811  1.4334
17452TIP3    H273772   3.234   3.120   5.488  0.5260 -0.3865 -1.1222
17453TIP3   OH273773   2.881   5.923  10.453  0.3506  0.5777 -0.6084
17453TIP3    H173774   2.923   5.923  10.540  1.6292 -0.8004 -1.1978
17453TIP3    H273775   2.828   5.844  10.452 -1.2717  1.6434 -0.3578
17454TIP3   OH273776   3.653   1.061   2.673  0.0709  0.6113  0.1606
17454TIP3    H173777   3.650   1.099   2.761 -2.1261  1.0663 -0.0731
17454TIP3    H273778   3.711   1.119   2.624  1.5978  0.1495  1.3783
17455TIP3   OH273779   1.329   4.268   0.654 -0.0795  0.4636  0.3482
17455TIP3    H173780   1.353   4.252   0.563 -2.1569  0.1804 -0.1916
17455TIP3    H273781   1.332   4.363   0.664 -0.1008  0.5101 -0.0989
17456TIP3   OH273782   0.338   3.711  14.440 -0.2224  0.5209  0.0622
17456TIP3    H173783   0.336   3.626  14.395  0.4818 -0.0667  1.1168
17456TIP3    H273784   0.370   3.773  14.375  1.6719 -0.4804  0.0060
17457TIP3   OH273785   2.935   6.125  13.137  0.5142 -0.3065  0.1595
17457TIP3    H173786   2.996   6.181  13.088 -1.1346 -0.3529 -2.0553
17457TIP3    H273787   2.870   6.186  13.172 -0.1556 -0.6184 -0.5367
17458TIP3   OH273788   4.934   4.963  13.056 -0.2550 -0.1142 -0.2051
17458TIP3    H173789   5.021   4.996  13.075  0.4122 -2.3892  0.8897
17458TIP3    H273790   4.948   4.895  12.990 -1.6107  1.8416 -2.5855
17459TIP3   OH273791   3.170   5.505  13.697 -0.2125 -0.0570  0.3760
17459TIP3    H173792   3.225   5.546  13.765  0.1431 -1.9033  1.2197
17459TIP3    H273793   3.100   5.569  13.682  0.5207  1.0201  1.4205
17460TIP3   OH273794   4.781   6.067   5.930  0.3460  0.2640  0.6003
17460TIP3    H173795   4.715   6.111   5.984 -0.2999 -0.3222  0.3051
17460TIP3    H273796   4.743   6.067   5.842 -1.0121 -3.4401  1.0942
17461TIP3   OH273797   5.751   6.454  17.170 -0.5893 -0.9034 -0.0817
17461TIP3    H173798   5.766   6.361  17.152  0.0286 -0.4138 -2.1929
17461TIP3    H273799   5.781   6.499  17.091 -1.5922  1.0427  0.6203
17462TIP3   OH273800   5.660   4.933   5.094  0.0341  0.1391  0.4685
17462TIP3    H173801   5.644   5.025   5.071  1.3423  0.3714  0.4249
17462TIP3    H273802   5.732   4.937   5.157 -0.1480 -0.8390  0.7446
17463TIP3   OH273803   3.518   3.852  13.786 -0.3872 -0.3321 -0.2210
17463TIP3    H173804   3.488   3.904  13.711  0.0529 -2.0236 -1.5813
17463TIP3    H273805   3.481   3.898  13.862 -2.0418  0.6076 -1.5382
17464TIP3   OH273806   3.037   1.173   0.271 -0.3635  0.0918  0.1295
17464TIP3    H173807   2.996   1.252   0.306  0.2382  0.9081 -0.9810
17464TIP3    H273808   2.970   1.105   0.279 -1.2489  0.9555  0.1135
17465TIP3   OH273809   2.940   0.244  15.338  0.3167  0.3073 -0.2289
17465TIP3    H173810   2.910   0.268  15.251  0.8789  1.7135 -0.0397
17465TIP3    H273811   3.032   0.270  15.340  0.3378  0.1770  0.7403
17466TIP3   OH273812   4.546   5.288  11.381 -0.0173  1.0215 -0.1957
17466TIP3    H173813   4.600   5.214  11.352 -1.1827  1.2515 -3.1533
17466TIP3    H273814   4.496   5.254  11.455  2.5223  0.1527  1.2024
17467TIP3   OH273815   2.317   6.648  12.274  0.0453 -0.0196 -0.5513
17467TIP3    H173816   2.342   6.559  12.302  0.5530  0.1096 -0.5774
17467TIP3    H273817   2.227   6.659  12.305  0.5378  0.0583  0.8964
17468TIP3   OH273818   2.267   3.514   2.490 -0.0928  0.2006  0.0825
17468TIP3    H173819   2.350   3.489   2.531  0.6218 -0.4442 -1.6844
17468TIP3    H273820   2.238   3.435   2.445 -0.6065  0.9959 -1.0200
17469TIP3   OH273821   4.106   1.122  15.801  0.5116 -0.5342 -0.2571
17469TIP3    H173822   4.040   1.138  15.868 -0.0353 -0.2350 -0.8596
17469TIP3    H273823   4.189   1.141  15.844  0.0444  1.5199 -0.2154
17470TIP3   OH273824   3.892   3.384   4.723 -0.3178  0.2235 -0.1053
17470TIP3    H173825   3.987   3.377   4.713 -0.2198  1.0959  0.1864
17470TIP3    H273826   3.876   3.365   4.816 -0.4278  0.1290 -0.1427
17471TIP3   OH273827   3.978   4.388   0.298  0.4341  0.2001 -0.4686
17471TIP3    H173828   3.885   4.381   0.273  0.2894  1.1433 -0.2138
17471TIP3    H273829   4.000   4.480   0.283  1.2908  0.0123 -0.3841
17472TIP3   OH273830   3.549   1.641   2.281  0.4919 -0.0259  0.2788
17472TIP3    H173831   3.553   1.675   2.370  0.3488  1.0581 -0.1213
17472TIP3    H273832   3.455   1.634   2.262  0.5211 -0.3682  0.2574
17473TIP3   OH273833   3.647   1.968   5.510  0.2032  0.1472 -0.2583
17473TIP3    H173834   3.696   1.990   5.589  1.5025 -1.0068 -0.7200
17473TIP3    H273835   3.702   1.999   5.438 -1.1624  1.5630 -0.7185
17474TIP3   OH273836   4.778   6.766  12.683  0.5905  0.4613 -0.5579
17474TIP3    H173837   4.822   6.800  12.761 -0.2295  1.6287 -0.6011
17474TIP3    H273838   4.686   6.790  12.695  0.3352 -0.0101 -1.5357
17475TIP3   OH273839   5.201   4.125   1.953  0.3835  0.0146 -0.3287
17475TIP3    H173840   5.277   4.183   1.964 -0.4710  1.1043 -0.0214
17475TIP3    H273841   5.201   4.071   2.031  0.6529  0.2438 -0.1680
17476TIP3   OH273842   5.471   4.789   2.965  0.3096  0.0226 -0.3888
17476TIP3    H173843   5.394   4.777   2.909  0.6475  1.3005 -1.1492
17476TIP3    H273844   5.435   4.806   3.052 -0.3008  1.1528 -0.8465
17477TIP3   OH273845   4.213   1.509  11.590 -0.4285  0.1944 -0.4024
17477TIP3    H173846   4.264   1.487  11.512  1.4778  0.0386  0.8886
17477TIP3    H273847   4.200   1.604  11.583  2.1536  0.6462  0.5100
17478TIP3   OH273848   6.642   2.795  14.607  0.2344 -0.8666 -0.0739
17478TIP3    H173849   6.619   2.744  14.529 -3.2661 -0.3649  0.5321
17478TIP3    H273850   6.695   2.736  14.660  0.5498 -2.0889 -1.7238
17479TIP3   OH273851   0.811   0.471   5.663  0.2056 -0.0922  0.8601
17479TIP3    H173852   0.774   0.459   5.750 -1.0996 -0.2664  0.2960
17479TIP3    H273853   0.823   0.565   5.654  0.0367 -0.0483  1.1102
17480TIP3   OH273854   0.726   1.789   1.840  0.0044  0.3915 -0.1213
17480TIP3    H173855   0.783   1.840   1.899  1.6411 -0.3616 -1.0264
17480TIP3    H273856   0.750   1.698   1.857 -0.9872  0.0612 -0.4818
17481TIP3   OH273857   1.510   4.180   0.825  0.4958  0.4567  0.6442
17481TIP3    H173858   1.434   4.220   0.784  0.3351  1.4881  1.9189
17481TIP3    H273859   1.557   4.139   0.752 -2.6058 -2.4874  0.1547
17482TIP3   OH273860   0.650   0.600   4.052  0.6005  0.9850 -0.1031
17482TIP3    H173861   0.729   0.579   4.102  0.2958 -0.7010 -0.3011
17482TIP3    H273862   0.578   0.590   4.115  0.2741 -0.5261 -0.7105
17483TIP3   OH273863   1.340   1.075   2.851  0.5943  0.3200  0.2360
17483TIP3    H173864   1.261   1.128   2.843  0.9646  0.8079 -0.2427
17483TIP3    H273865   1.312   0.986   2.832  0.2638  0.5713 -0.4495
17484TIP3   OH273866   1.042   3.664  17.037 -0.2966  0.8226  0.1271
17484TIP3    H173867   0.987   3.714  16.977 -0.5894 -1.1974 -1.3324
17484TIP3    H273868   1.044   3.576  17.001 -0.0598 -0.3417  2.8157
17485TIP3   OH273869   1.226   0.605   1.533  0.2708 -0.1567 -0.7374
17485TIP3    H173870   1.313   0.627   1.564 -0.6339  1.8952  0.4502
17485TIP3    H273871   1.221   0.640   1.444  0.4315  0.3043 -0.5637
17486TIP3   OH273872   4.003   0.846   0.356 -0.0784 -0.6541 -0.4293
17486TIP3    H173873   4.014   0.855   0.262  0.0334  2.0230 -0.2051
17486TIP3    H273874   4.091   0.859   0.391 -0.6052  1.4216  0.1999
17487TIP3   OH273875   1.853   4.173  12.304 -0.1220  0.6442 -0.2835
17487TIP3    H173876   1.894   4.223  12.375 -1.8713 -1.6535  2.4975
17487TIP3    H273877   1.881   4.083  12.319 -0.6148  0.0900 -2.5037
17488TIP3   OH273878   3.211   4.727   0.985  0.1014 -0.0820  0.0814
17488TIP3    H173879   3.122   4.738   1.018 -0.2034 -1.3449 -0.2849
17488TIP3    H273880   3.211   4.772   0.900  0.0863  0.7443  0.5197
17489TIP3   OH273881   3.366   1.090   5.609 -0.0064  0.2638  0.0990
17489TIP3    H173882   3.347   1.054   5.695 -0.7361  0.2667 -0.0607
17489TIP3    H273883   3.456   1.063   5.591 -0.1776 -0.5335  0.4496
17490TIP3   OH273884   1.555   5.787   2.166  0.3829  0.2374  0.1583
17490TIP3    H173885   1.628   5.808   2.108  0.2071  0.1064 -0.1116
17490TIP3    H273886   1.542   5.693   2.155 -0.5733  0.4600 -0.6707
17491TIP3   OH273887   5.343   5.658   6.391 -0.3416 -0.5227  0.0011
17491TIP3    H173888   5.384   5.735   6.352 -1.2593 -1.2529 -2.5527
17491TIP3    H273889   5.416   5.600   6.412  0.1537 -0.8159 -2.3035
17492TIP3   OH273890   3.239   6.378  13.448 -0.7978  0.2370 -0.0625
17492TIP3    H173891   3.201   6.425  13.374 -1.8633 -0.2079  0.1962
17492TIP3    H273892   3.298   6.315  13.408 -0.6596  0.6319 -0.4899
17493TIP3   OH273893   5.388   6.780   1.102  0.9690 -0.0506 -0.4772
17493TIP3    H173894   5.357   6.813   1.018  0.6507  0.1762 -0.2784
17493TIP3    H273895   5.358   6.689   1.105  0.3008  0.1714 -0.2830
17494TIP3   OH273896   4.940   3.029   2.519  0.1612 -0.6895 -0.3094
17494TIP3    H173897   4.997   3.074   2.457 -0.3187 -1.6850 -1.5173
17494TIP3    H273898   4.865   3.087   2.530  1.4782  0.7138  1.4403
17495TIP3   OH273899   3.844   3.497   1.102  0.0424  0.3535 -0.4925
17495TIP3    H173900   3.923   3.515   1.052  0.1483  2.7023  0.4612
17495TIP3    H273901   3.873   3.442   1.175  0.5039 -0.0374 -0.9657
17496TIP3   OH273902   6.721   4.033  16.761 -0.1712 -0.2335  0.3382
17496TIP3    H173903   6.692   3.955  16.714  1.1059  0.2760 -1.3652
17496TIP3    H273904   6.806   4.008  16.798 -0.1397  0.0901  0.4885
17497TIP3   OH273905   5.429   1.522   1.084 -0.0707  0.0327  0.3770
17497TIP3    H173906   5.476   1.458   1.137 -0.4359  0.1733  0.8736
17497TIP3    H273907   5.420   1.599   1.141 -0.8985  0.0073  0.2949
17498TIP3   OH273908   1.930   6.777  16.470  0.2565  0.1967  0.4441
17498TIP3    H173909   1.851   6.760  16.420  0.5644  0.1462 -0.0238
17498TIP3    H273910   1.938   6.872  16.472  1.3934  0.1559 -1.4057
17499TIP3   OH273911   3.349   0.531  15.133 -0.3593 -0.0652  0.3711
17499TIP3    H173912   3.288   0.590  15.176  0.0944  1.0893 -0.5575
17499TIP3    H273913   3.421   0.587  15.104  0.7401 -1.2778  0.6954
17500TIP3   OH273914   3.580   0.071  14.812  0.0541  0.1122  0.0111
17500TIP3    H173915   3.596   0.107  14.725  1.6705 -0.7036 -0.0538
17500TIP3    H273916   3.668   0.056  14.848 -0.4315 -5.0156 -0.5030
17501TIP3   OH273917   5.776   2.409   4.115 -0.2068 -0.3504  0.1808
17501TIP3    H173918   5.854   2.374   4.071 -0.6262 -0.4146 -0.5156
17501TIP3    H273919   5.806   2.491   4.154  0.9011 -1.6630  2.1998
17502TIP3   OH273920   1.851   2.635   1.929 -0.3918 -0.3549 -0.6406
17502TIP3    H173921   1.861   2.713   1.875 -2.5603  0.4748  0.0875
17502TIP3    H273922   1.836   2.564   1.866 -0.6729  0.2198 -1.2288
17503TIP3   OH273923   5.367   0.935   0.778 -0.4542 -0.0250  0.0318
17503TIP3    H173924   5.418   0.991   0.837 -0.3770 -1.4267  1.3153
17503TIP3    H273925   5.333   0.996   0.712  2.0213  1.0951 -0.2853
17504TIP3   OH273926   3.540   6.052   1.115  0.1512 -0.2124 -0.1115
17504TIP3    H173927   3.566   6.138   1.149  0.7312 -1.1913  2.0279
17504TIP3    H273928   3.448   6.044   1.139  0.3658 -0.5973  0.6011
17505TIP3   OH273929   4.764   2.341   1.284 -0.1162  0.1546 -0.3450
17505TIP3    H173930   4.829   2.276   1.260 -0.5487 -0.5419  0.3472
17505TIP3    H273931   4.801   2.384   1.362 -0.7944 -0.7228  0.4718
17506TIP3   OH273932   5.815   4.361   3.895 -0.1089 -0.5948  0.0860
17506TIP3    H173933   5.774   4.274   3.900 -0.2903 -0.5287 -0.2238
17506TIP3    H273934   5.888   4.357   3.956 -1.6404 -0.1408  2.0144
17507TIP3   OH273935   5.842   4.551  15.745  0.1670  0.5529  0.2826
17507TIP3    H173936   5.922   4.504  15.723 -1.7826 -3.8493  2.0380
17507TIP3    H273937   5.779   4.523  15.680 -1.0941  0.5517  1.4708
17508TIP3   OH273938   1.971   2.023  17.131  0.5444 -0.3821  0.7457
17508TIP3    H173939   2.065   2.005  17.120  0.6290 -0.0456  0.9313
17508TIP3    H273940   1.957   2.106  17.085  0.0326 -1.2239 -0.6448
17509TIP3   OH273941   5.989   2.909  12.802 -0.2155  0.0498 -0.2660
17509TIP3    H173942   6.040   2.972  12.853  0.4145  0.1481 -0.9965
17509TIP3    H273943   6.040   2.829  12.804  0.6104  0.4963 -2.0214
17510TIP3   OH273944   2.810   5.183   0.660  0.0689  0.4291 -0.7135
17510TIP3    H173945   2.825   5.201   0.753  0.7494  0.8123 -0.8915
17510TIP3    H273946   2.762   5.259   0.628  0.5601  0.6815 -0.8577
17511TIP3   OH273947   2.135   3.329  16.725 -0.1119 -0.2841 -0.3520
17511TIP3    H173948   2.158   3.337  16.818  3.0569 -2.4252 -0.8928
17511TIP3    H273949   2.121   3.419  16.696  2.2466  0.7057  1.4062
17512TIP3   OH273950   2.689   6.464  15.341  0.4263 -0.5476  0.2010
17512TIP3    H173951   2.748   6.458  15.417 -0.4499 -0.7801  0.8669
17512TIP3    H273952   2.727   6.533  15.287  1.2133 -0.5732  0.7125
17513TIP3   OH273953   3.530   5.363   0.371  0.3864 -0.3293 -0.4063
17513TIP3    H173954   3.439   5.371   0.341  0.0282 -2.4543  0.0305
17513TIP3    H273955   3.548   5.446   0.415 -1.9599 -0.6061  1.1655
17514TIP3   OH273956   5.173   4.442   4.397 -0.1348 -0.2331  0.0628
17514TIP3    H173957   5.219   4.506   4.451 -1.3863  0.2386  0.5856
17514TIP3    H273958   5.132   4.493   4.328  1.5524 -0.8524 -1.4260
17515TIP3   OH273959   2.135   2.381   5.913 -0.4826 -0.3026  0.1461
17515TIP3    H173960   2.060   2.415   5.962  1.0746  1.8264  1.0920
17515TIP3    H273961   2.184   2.459   5.886  2.3342 -1.7063  1.0212
17516TIP3   OH273962   6.441   1.954  13.888 -0.0701  0.0627 -0.0487
17516TIP3    H173963   6.380   1.925  13.956 -1.0732 -1.1692 -1.4381
17516TIP3    H273964   6.444   1.881  13.826  0.7794  1.1877 -1.3631
17517TIP3   OH273965   5.344   2.072   0.251  0.1704  0.5483  0.2110
17517TIP3    H173966   5.289   2.025   0.314 -0.1387 -0.5536 -0.8563
17517TIP3    H273967   5.323   2.164   0.264 -0.1422  0.3024  1.4818
17518TIP3   OH273968   6.214   1.508  11.664  0.0380  0.1551  0.4882
17518TIP3    H173969   6.218   1.592  11.617  1.6525  0.1300  0.5536
17518TIP3    H273970   6.120   1.495  11.681 -0.3159  1.5075 -0.3035
17519TIP3   OH273971   2.180   5.467   0.314  0.6397 -0.1845 -0.2161
17519TIP3    H173972   2.164   5.511   0.230 -2.2999 -0.6099  0.0439
17519TIP3    H273973   2.231   5.390   0.291  0.9073  0.3400 -1.4565
17520TIP3   OH273974   4.032   2.341   3.480  0.6339  0.3821  0.1407
17520TIP3    H173975   4.071   2.423   3.452  2.1094 -0.2077  0.4310
17520TIP3    H273976   4.103   2.277   3.475 -0.6876 -1.0510 -0.8296
17521TIP3   OH273977   1.704   0.626   3.755  0.2279 -0.0636  0.3530
17521TIP3    H173978   1.734   0.711   3.725  1.8827 -0.4922  0.7427
17521TIP3    H273979   1.768   0.564   3.720  1.1491 -0.7671  3.1672
17522TIP3   OH273980   3.239   0.314   5.769  0.3597 -0.4286  0.0428
17522TIP3    H173981   3.173   0.357   5.822  0.9395 -0.3729  0.7263
17522TIP3    H273982   3.296   0.385   5.739  0.8153 -0.6155  0.4611
17523TIP3   OH273983   0.872   4.926  14.671 -0.2679 -0.2752 -0.2502
17523TIP3    H173984   0.785   4.887  14.666 -1.4193  2.1131  0.5191
17523TIP3    H273985   0.892   4.929  14.765 -0.8966  2.3834 -0.1571
17524TIP3   OH273986   2.739   4.730  15.851  0.1879  0.0838  0.3032
17524TIP3    H173987   2.683   4.693  15.784 -2.1798  2.5795  0.8163
17524TIP3    H273988   2.721   4.679  15.930 -0.0669 -0.2256  0.0426
17525TIP3   OH273989   3.147   2.207   5.924  0.1108 -0.5137 -0.2449
17525TIP3    H173990   3.202   2.247   5.991  0.1207  0.0538 -0.5849
17525TIP3    H273991   3.062   2.196   5.966 -0.3177  1.2528 -0.6040
17526TIP3   OH273992   5.106   3.583  13.436 -0.3560  0.0340 -0.8430
17526TIP3    H173993   5.026   3.631  13.416 -1.5524 -1.2255  0.7680
17526TIP3    H273994   5.092   3.548  13.524  1.5538 -1.0520 -0.9395
17527TIP3   OH273995   5.781   5.309   2.735 -0.1927  0.4515  0.0299
17527TIP3    H173996   5.790   5.351   2.821  1.4378  0.7440 -0.2618
17527TIP3    H273997   5.695   5.336   2.704 -0.5816  0.7638  1.3482
17528TIP3   OH273998   4.746   1.173   4.078  0.1042  0.4380  0.0073
17528TIP3    H173999   4.690   1.102   4.044  0.3460  0.3226 -0.1450
17528TIP3    H274000   4.691   1.251   4.073 -1.2071 -0.2323  2.8399
17529TIP3   OH274001   0.282   2.758   3.401  0.0041  0.1696  0.3886
17529TIP3    H174002   0.362   2.796   3.366  0.4702 -0.8700  0.3005
17529TIP3    H274003   0.211   2.810   3.363  0.5354 -0.4751 -1.4906
17530TIP3   OH274004   5.606   2.424  14.966 -0.1214 -0.0822  0.3319
17530TIP3    H174005   5.650   2.499  15.004 -2.2488  0.9517  0.8542
17530TIP3    H274006   5.598   2.445  14.873 -2.1726  1.1362  0.7455
17531TIP3   OH274007   0.450   3.536  11.702  0.4535  0.1390  0.4845
17531TIP3    H174008   0.484   3.485  11.629 -0.2537  0.7031 -0.2413
17531TIP3    H274009   0.361   3.503  11.715 -0.2774  1.6541 -0.4594
17532TIP3   OH274010   1.934   3.763   2.521 -0.5302  0.0951  0.0607
17532TIP3    H174011   1.997   3.745   2.452 -0.4026  0.0490  0.1875
17532TIP3    H274012   1.986   3.759   2.602 -1.1117 -2.1444  0.3553
17533TIP3   OH274013   5.596   0.688  14.989 -0.0320  0.4342  0.0853
17533TIP3    H174014   5.567   0.597  14.998  0.6363  0.2430  0.3806
17533TIP3    H274015   5.516   0.740  14.997 -0.0522  0.0513  3.0818
17534TIP3   OH274016   0.253   3.034  12.933 -0.2024 -0.4500 -0.0047
17534TIP3    H174017   0.206   2.979  12.996  0.2511  1.2985  1.9508
17534TIP3    H274018   0.253   2.983  12.852  1.2935 -3.9129  2.0184
17535TIP3   OH274019   0.779   6.692  11.909 -0.7004 -0.4226  0.4476
17535TIP3    H174020   0.813   6.634  11.978 -0.7257  0.7945  1.4981
17535TIP3    H274021   0.692   6.717  11.940  0.7123  3.1078  1.8537
17536TIP3   OH274022   5.163   0.100   0.932 -0.5146 -0.1168  0.2344
17536TIP3    H174023   5.151   0.126   0.841 -2.1827  0.8396  0.7086
17536TIP3    H274024   5.075   0.080   0.964  0.0762 -0.6815  1.5763
17537TIP3   OH274025   3.981   2.711  16.120 -0.2888 -0.1997 -0.3098
17537TIP3    H174026   4.068   2.725  16.155 -0.2467 -0.4044 -0.3300
17537TIP3    H274027   3.945   2.639  16.172 -0.2727 -0.4216 -0.6017
17538TIP3   OH274028   3.926   4.440  14.102  0.1651  0.5477  0.2371
17538TIP3    H174029   3.894   4.432  14.012  0.9982  2.0343 -0.2054
17538TIP3    H274030   4.021   4.447  14.093  0.2990  0.1570  1.2806
17539TIP3   OH274031   1.511   1.134   0.219 -0.4171 -0.4994  0.5046
17539TIP3    H174032   1.471   1.183   0.147  1.5178  1.6195  0.8319
17539TIP3    H274033   1.466   1.165   0.297 -1.4526 -1.6949  0.4176
17540TIP3   OH274034   0.122   3.123  11.420  0.3940 -0.6450 -0.2955
17540TIP3    H174035   0.034   3.092  11.442 -0.3711 -0.0512 -2.4093
17540TIP3    H274036   0.124   3.214  11.451 -0.3321 -0.1310 -1.7042
17541TIP3   OH274037   5.412   2.267  13.524  0.1641 -0.2260  0.0366
17541TIP3    H174038   5.428   2.188  13.472 -1.2566 -0.6072  0.1646
17541TIP3    H274039   5.482   2.327  13.497 -0.3150 -0.5527 -2.0628
17542TIP3   OH274040   6.254   6.051   0.554  0.4058 -0.1786 -0.8480
17542TIP3    H174041   6.310   5.979   0.580  1.1971  0.4164 -0.8999
17542TIP3    H274042   6.196   6.065   0.629  0.3420 -0.7753 -0.7877
17543TIP3   OH274043   1.271   2.647   4.236 -0.4959 -0.0128  0.2804
17543TIP3    H174044   1.257   2.574   4.176 -1.1229 -0.8857  1.4589
17543TIP3    H274045   1.186   2.689   4.242 -0.1172  0.8668 -0.4481
17544TIP3   OH274046   4.560   6.389  12.986 -0.3863  0.6531  0.2581
17544TIP3    H174047   4.483   6.446  12.983  0.0812  1.3018  0.4056
17544TIP3    H274048   4.630   6.446  13.018 -0.2443 -0.3826  1.8142
17545TIP3   OH274049   2.610   2.742   3.524 -0.0837 -0.3676  0.1117
17545TIP3    H174050   2.634   2.774   3.437 -0.5161 -0.9900 -0.2481
17545TIP3    H274051   2.651   2.656   3.529 -2.2632 -1.4799 -0.5505
17546TIP3   OH274052   5.480   2.871   3.340 -0.5133 -0.3295  0.4936
17546TIP3    H174053   5.542   2.807   3.376  0.8899  0.5719 -0.2733
17546TIP3    H274054   5.492   2.949   3.394 -1.2567 -0.2752  0.5803
17547TIP3   OH274055   6.452   5.128  16.356 -0.1049  0.2057 -0.7107
17547TIP3    H174056   6.541   5.104  16.331  0.0357  0.0359 -0.0746
17547TIP3    H274057   6.455   5.223  16.370 -0.0256  0.2031 -0.7126
17548TIP3   OH274058   4.485   0.749  15.366 -0.1298 -0.5060  0.0403
17548TIP3    H174059   4.549   0.689  15.405 -1.4108 -0.7954  1.7275
17548TIP3    H274060   4.400   0.715  15.393 -0.9370  1.1684 -0.3102
17549TIP3   OH274061   4.020   1.954   1.595  0.5009 -0.3639 -0.3376
17549TIP3    H174062   3.939   1.905   1.610  1.0713 -2.1426 -2.7338
17549TIP3    H274063   3.991   2.045   1.584 -0.6441 -0.2021  3.3868
17550TIP3   OH274064   2.489   2.213  14.431 -0.2525 -0.4758  0.0923
17550TIP3    H174065   2.495   2.236  14.338  3.0142 -2.9271 -0.3926
17550TIP3    H274066   2.403   2.172  14.440 -1.0448  0.7518 -1.5950
17551TIP3   OH274067   0.727   3.520  13.413  0.1795 -0.3110 -0.3567
17551TIP3    H174068   0.814   3.546  13.384  0.3836 -2.8965 -2.2967
17551TIP3    H274069   0.669   3.589  13.381  0.9902 -0.8301 -3.0518
17552TIP3   OH274070   5.155   2.727  11.799 -0.0886  0.1075 -0.3875
17552TIP3    H174071   5.086   2.735  11.866 -0.6176 -2.2966 -0.5950
17552TIP3    H274072   5.160   2.814  11.760 -0.1542  1.4341  2.3828
17553TIP3   OH274073   4.496   6.598  11.172 -0.2610 -0.4095 -0.4067
17553TIP3    H174074   4.447   6.516  11.166  1.3438 -1.4495  0.2921
17553TIP3    H274075   4.512   6.609  11.266 -1.0671  1.0629 -0.4424
17554TIP3   OH274076   1.729   5.392   4.443  0.1484  0.1066  0.1329
17554TIP3    H174077   1.786   5.419   4.371 -0.3570  2.3348  0.5399
17554TIP3    H274078   1.668   5.464   4.454  0.3963 -0.0674  2.9936
17555TIP3   OH274079   4.180   1.955  13.121 -0.4469 -0.3946  0.1928
17555TIP3    H174080   4.193   1.860  13.117 -0.1909 -0.3231 -1.0731
17555TIP3    H274081   4.204   1.985  13.034 -1.3401  0.7442  0.3329
17556TIP3   OH274082   4.633   4.352   4.482 -0.5072 -0.1810 -0.0972
17556TIP3    H174083   4.601   4.441   4.467 -0.8388 -0.2471  0.1988
17556TIP3    H274084   4.556   4.296   4.467  0.1201 -0.5647 -1.9590
17557TIP3   OH274085   4.072   0.606   2.885  0.4823  0.0833  0.1697
17557TIP3    H174086   4.164   0.616   2.908  0.8573 -1.5597 -0.6007
17557TIP3    H274087   4.048   0.689   2.845  1.8363  0.2209 -0.3649
17558TIP3   OH274088   1.264   6.223   5.207 -0.2355 -0.5100  0.3567
17558TIP3    H174089   1.227   6.302   5.247 -0.4794 -1.1728  1.4630
17558TIP3    H274090   1.221   6.151   5.252  0.1979 -1.2862 -0.4494
17559TIP3   OH274091   0.848   3.923   4.661  0.4432 -0.2603 -0.0095
17559TIP3    H174092   0.916   3.942   4.726  0.7767 -0.6741 -0.2297
17559TIP3    H274093   0.776   3.885   4.711 -0.8319  2.8946  0.6526
17560TIP3   OH274094   5.132   6.560   0.141 -0.1538 -0.2784 -0.0692
17560TIP3    H174095   5.051   6.588   0.183 -0.8153 -0.0925 -1.4339
17560TIP3    H274096   5.201   6.589   0.201 -1.0310  0.6295  0.5208
17561TIP3   OH274097   2.837   4.991  14.462  0.4373  0.8469  0.0777
17561TIP3    H174098   2.807   5.065  14.516  1.9028  1.2129  0.4159
17561TIP3    H274099   2.903   5.029  14.404 -0.7911  0.3574 -1.6920
17562TIP3   OH274100   2.750   3.795  11.924 -0.6416  0.3004 -0.5062
17562TIP3    H174101   2.688   3.750  11.866 -2.1377  0.9291  0.5686
17562TIP3    H274102   2.826   3.736  11.929 -0.9897 -0.2951 -2.1561
17563TIP3   OH274103   1.551   4.162   1.692 -0.2619  0.1943  0.4906
17563TIP3    H174104   1.509   4.198   1.770  0.9462  0.8581  0.8446
17563TIP3    H274105   1.577   4.238   1.640  2.1229 -0.1208  1.1520
17564TIP3   OH274106   5.478   2.137   2.128  0.2177  0.5132 -0.0799
17564TIP3    H174107   5.549   2.078   2.105  0.4745  0.5981  0.4749
17564TIP3    H274108   5.485   2.208   2.065  0.6786  0.5563  0.0134
17565TIP3   OH274109   3.058   2.943   3.731  0.5484  0.2013  0.3129
17565TIP3    H174110   2.986   2.986   3.776 -0.1542 -0.5080 -0.1348
17565TIP3    H274111   3.111   2.904   3.801 -0.4805 -0.8096  0.5457
17566TIP3   OH274112   0.437   6.463  15.832  0.3994  0.0985  0.0942
17566TIP3    H174113   0.488   6.543  15.818  0.8515 -0.1039  0.5772
17566TIP3    H274114   0.489   6.412  15.895  0.2477 -0.6986 -0.4207
17567TIP3   OH274115   1.056   6.406  16.792 -0.2130  0.0266 -0.1512
17567TIP3    H174116   1.138   6.446  16.766  0.2376 -1.0630 -0.4247
17567TIP3    H274117   0.993   6.478  16.794  1.2673  1.3188  2.3796
17568TIP3   OH274118   2.970   3.895   4.425  0.4409  0.2158  0.1313
17568TIP3    H174119   3.005   3.806   4.429  0.8750  0.4115  0.8418
17568TIP3    H274120   2.884   3.885   4.383 -0.2304 -0.7758  1.6858
17569TIP3   OH274121   0.771   3.465   0.984  0.3899 -0.2132 -0.1707
17569TIP3    H174122   0.792   3.400   0.917 -0.0774 -1.1396  0.5580
17569TIP3    H274123   0.855   3.503   1.008  0.4043  1.1851 -2.3115
17570TIP3   OH274124   4.931   2.170  16.741  0.9057  0.3770 -0.1521
17570TIP3    H174125   5.002   2.126  16.695 -0.4159 -0.4119 -1.4944
17570TIP3    H274126   4.865   2.101  16.755 -0.7431  1.6717 -1.3630
17571TIP3   OH274127   2.023   3.831   6.853 -0.1670  0.1445 -0.3214
17571TIP3    H174128   1.973   3.851   6.774 -0.1769  0.4570 -0.2365
17571TIP3    H274129   1.971   3.765   6.899 -0.6606  0.7054 -0.0718
17572TIP3   OH274130   6.467   6.716  14.427  0.4202  0.3535 -0.2346
17572TIP3    H174131   6.416   6.650  14.474  0.0950  0.3121 -0.6468
17572TIP3    H274132   6.425   6.723  14.342  3.0336 -2.0739 -1.8181
17573TIP3   OH274133   1.925   0.687   5.179  0.0208 -0.1043  0.5490
17573TIP3    H174134   1.876   0.629   5.121 -1.4869  1.8586 -0.1750
17573TIP3    H274135   1.975   0.744   5.121  1.3438 -0.5105  1.2512
17574TIP3   OH274136   3.862   0.874  16.125  0.3742 -0.0373 -0.1434
17574TIP3    H174137   3.957   0.886  16.122  0.5606 -0.9886  1.3918
17574TIP3    H274138   3.848   0.808  16.193 -1.5375  1.8303  1.3575
17575TIP3   OH274139   3.933   3.857   0.649 -0.3693 -0.0978 -0.0885
17575TIP3    H174140   3.957   3.780   0.701  0.8135 -0.9852 -1.8923
17575TIP3    H274141   3.878   3.823   0.579  1.2224  0.4996 -1.6478
17576TIP3   OH274142   2.325   5.410   4.246 -0.0387 -0.1675  0.6902
17576TIP3    H174143   2.304   5.364   4.164  0.0897 -1.4691  1.3805
17576TIP3    H274144   2.403   5.460   4.226 -1.3474  1.3896 -0.6790
17577TIP3   OH274145   4.249   1.802  13.864  0.5119  1.0064  0.1000
17577TIP3    H174146   4.315   1.814  13.932  0.3753  1.8697  0.0861
17577TIP3    H274147   4.167   1.790  13.912  0.6495  0.0970  0.1129
17578TIP3   OH274148   1.182   3.115  13.243  0.1469  0.6271 -0.6177
17578TIP3    H174149   1.254   3.057  13.269  0.5268  1.3367 -0.0594
17578TIP3    H274150   1.131   3.128  13.323 -0.6170  0.1124 -1.0164
17579TIP3   OH274151   3.604   1.992  12.788 -0.1086  0.0575  0.1365
17579TIP3    H174152   3.548   1.954  12.719  2.6648  0.4851 -2.4746
17579TIP3    H274153   3.545   2.048  12.838 -2.1866 -0.0331 -2.0797
17580TIP3   OH274154   0.266   1.752  13.412  0.1034 -0.3464 -0.2153
17580TIP3    H174155   0.227   1.762  13.499 -0.4001 -1.2444 -0.3354
17580TIP3    H274156   0.242   1.833  13.366 -0.5648 -0.3502  0.1195
17581TIP3   OH274157   1.415   1.066   5.795 -0.8245  0.1638 -0.1226
17581TIP3    H174158   1.472   1.093   5.867  0.2232 -0.4570 -0.7072
17581TIP3    H274159   1.412   1.143   5.738  0.8506 -0.3722 -0.9670
17582TIP3   OH274160   2.667   4.563   0.737 -0.2260 -0.0087  0.1821
17582TIP3    H174161   2.753   4.581   0.699 -0.7704  2.7465  0.1588
17582TIP3    H274162   2.608   4.556   0.662  0.0553 -2.7704  0.1425
17583TIP3   OH274163   1.277   2.383  13.627 -0.1907  0.4073  0.7108
17583TIP3    H174164   1.195   2.367  13.674 -0.8917  0.6257 -0.4214
17583TIP3    H274165   1.337   2.413  13.695 -0.6989 -0.8559  1.7602
17584TIP3   OH274166   1.842   2.037   0.862  0.2285  0.5091  0.1214
17584TIP3    H174167   1.809   1.966   0.807 -1.4623  0.4357  1.2023
17584TIP3    H274168   1.790   2.113   0.838  0.4643  0.8270  0.5924
17585TIP3   OH274169   3.306   5.576   3.643 -0.4193  0.2192  0.0753
17585TIP3    H174170   3.231   5.544   3.594 -0.6334 -0.1482  0.6325
17585TIP3    H274171   3.276   5.580   3.734  0.3647 -0.3473  0.3656
17586TIP3   OH274172   4.278   6.383   6.060 -0.0919 -0.0007  0.1518
17586TIP3    H174173   4.246   6.452   6.003  0.9050 -0.1665 -0.6273
17586TIP3    H274174   4.334   6.429   6.124 -0.8034  0.1210  0.6942
17587TIP3   OH274175   4.192   4.272   3.476  0.0371 -0.2011 -0.3549
17587TIP3    H174176   4.177   4.183   3.508 -2.4713  0.4423  0.4136
17587TIP3    H274177   4.266   4.304   3.527  0.4011 -1.5646 -0.0216
17588TIP3   OH274178   3.137   0.368  14.084  0.3083 -0.8282 -1.1030
17588TIP3    H174179   3.197   0.389  14.013  0.5600 -0.2515 -0.7235
17588TIP3    H274180   3.051   0.393  14.051  0.7232  1.9810 -0.2229
17589TIP3   OH274181   4.598   5.988  12.211  0.0461  0.0086 -0.0532
17589TIP3    H174182   4.590   6.000  12.306  0.5815  0.1289 -0.0178
17589TIP3    H274183   4.601   5.894  12.199  0.9370 -0.0031  0.1478
17590TIP3   OH274184   3.956   1.975  11.578 -0.2383  0.0924  0.0292
17590TIP3    H174185   3.941   1.991  11.485  0.6496 -0.1568 -0.1618
17590TIP3    H274186   3.882   1.921  11.605 -1.4738  1.6762 -0.0976
17591TIP3   OH274187   0.437   5.418   1.577  0.0956  0.7536 -0.6424
17591TIP3    H174188   0.417   5.383   1.664 -0.6688 -1.5883 -1.7229
17591TIP3    H274189   0.519   5.466   1.589  0.9708 -1.0752  1.0261
17592TIP3   OH274190   0.927   0.884  11.597 -0.5270  0.1720  0.9075
17592TIP3    H174191   0.932   0.973  11.632 -1.1961  0.2852  0.7302
17592TIP3    H274192   1.003   0.839  11.634  0.4347  1.1181  0.0953
17593TIP3   OH274193   0.505   3.002   3.662 -0.3512 -0.2508 -0.6008
17593TIP3    H174194   0.510   3.042   3.575  1.9135 -0.1507 -0.4714
17593TIP3    H274195   0.427   2.948   3.660 -0.7649  0.3952 -2.4313
17594TIP3   OH274196   6.357   1.833  15.648  0.7176 -0.4045 -0.0053
17594TIP3    H174197   6.311   1.826  15.732 -0.5181 -2.7094 -0.8183
17594TIP3    H274198   6.445   1.802  15.667  0.2154 -1.6934  0.3085
17595TIP3   OH274199   4.970   1.820  12.953 -0.5094  0.1109  0.8070
17595TIP3    H174200   5.011   1.895  12.996 -0.3369 -0.2849  1.3472
17595TIP3    H274201   4.980   1.837  12.860 -0.2530  0.6396  0.9285
17596TIP3   OH274202   1.990   1.977   4.153  0.2620  0.2884 -0.1496
17596TIP3    H174203   2.006   1.967   4.247 -1.3890 -1.1698 -0.0009
17596TIP3    H274204   2.035   2.058   4.130  2.0129 -0.1542  1.5719
17597TIP3   OH274205   1.993   2.381  15.796 -0.1773  0.4459 -0.6941
17597TIP3    H174206   1.917   2.437  15.780  0.0009  1.4186  1.7098
17597TIP3    H274207   2.069   2.438  15.786  0.0664  0.3263  0.3849
17598TIP3   OH274208   6.582   3.342   5.294  0.3768  0.2280  0.9974
17598TIP3    H174209   6.642   3.352   5.220 -0.8888 -0.3923 -0.1211
17598TIP3    H274210   6.637   3.310   5.365  1.5566  0.5805  0.2550
17599TIP3   OH274211   5.926   5.888  16.408 -0.3685 -0.2658  0.2243
17599TIP3    H174212   5.925   5.925  16.497 -0.1812 -0.5430  0.3433
17599TIP3    H274213   5.930   5.794  16.421  0.2315 -0.2886 -0.0803
17600TIP3   OH274214   0.136   2.900   3.996 -0.3632 -0.7391 -0.4842
17600TIP3    H174215   0.159   2.988   4.025  0.1984 -0.7351 -0.9447
17600TIP3    H274216   0.106   2.855   4.076 -0.8852 -0.0613 -0.2937
17601TIP3   OH274217   5.328   4.787  16.261 -0.1573 -0.8776 -0.4424
17601TIP3    H174218   5.281   4.805  16.179 -2.8110 -3.4409  0.4105
17601TIP3    H274219   5.380   4.710  16.242  0.1398 -0.7719 -0.0433
17602TIP3   OH274220   4.009   1.387  14.031  0.3983  0.5094 -0.2189
17602TIP3    H174221   4.017   1.469  13.983  1.6278  0.0850 -0.7611
17602TIP3    H274222   4.055   1.323  13.977  0.0917 -0.3836  0.5632
17603TIP3   OH274223   6.300   6.551   3.526 -0.5418  0.4207  0.1431
17603TIP3    H174224   6.365   6.618   3.504  1.0330 -0.7232  1.1937
17603TIP3    H274225   6.243   6.592   3.591 -0.8166  1.3957 -0.7100
17604TIP3   OH274226   0.741   6.102   0.872 -0.2187 -0.0383 -0.5406
17604TIP3    H174227   0.764   6.063   0.787 -0.5761  2.4936 -1.8552
17604TIP3    H274228   0.808   6.168   0.887  0.2471 -0.9297  1.5421
17605TIP3   OH274229   6.518   2.025   2.511 -0.0009  0.2497 -0.1927
17605TIP3    H174230   6.496   2.029   2.418  0.3928  0.4817 -0.2777
17605TIP3    H274231   6.460   2.090   2.552  1.0089  1.3682 -0.5144
17606TIP3   OH274232   5.926   2.048  10.825  0.3098  0.0023  0.1552
17606TIP3    H174233   5.847   2.021  10.872  0.0642  0.1384 -0.1780
17606TIP3    H274234   5.936   1.983  10.756 -1.1365  1.5879 -1.5916
17607TIP3   OH274235   5.663   5.203  10.533 -0.4710  0.1557  0.0411
17607TIP3    H174236   5.658   5.287  10.580  1.0483  0.0751  0.3808
17607TIP3    H274237   5.655   5.137  10.602  0.6602  0.0314  0.0528
17608TIP3   OH274238   3.112   0.066  13.828 -0.8070  0.9566 -0.3993
17608TIP3    H174239   3.155  -0.005  13.780  0.7875  0.4905  1.6402
17608TIP3    H274240   3.062   0.022  13.897 -1.7993  1.6954 -0.6335
17609TIP3   OH274241   3.687   5.662   5.311 -0.1864 -0.1933 -0.0158
17609TIP3    H174242   3.721   5.714   5.239 -0.4175 -1.5735 -1.1424
17609TIP3    H274243   3.724   5.575   5.299 -1.1063 -0.7369  0.8858
17610TIP3   OH274244   4.836   5.251   3.069 -0.3625 -0.1146 -0.0642
17610TIP3    H174245   4.751   5.294   3.075 -0.4167 -0.1529 -0.5360
17610TIP3    H274246   4.830   5.197   2.990  0.4542  0.6566 -0.6589
17611TIP3   OH274247   4.731   2.577   1.538 -0.6183  0.1811 -0.4234
17611TIP3    H174248   4.695   2.494   1.567 -0.7622 -0.3658 -2.0765
17611TIP3    H274249   4.681   2.644   1.585 -1.4179 -0.6510 -0.0890
17612TIP3   OH274250   2.541   4.836   2.040  0.1750  0.2150  0.1697
17612TIP3    H174251   2.529   4.766   2.105 -0.0513 -0.4870 -0.6221
17612TIP3    H274252   2.569   4.912   2.092 -0.0831 -0.3145  1.0991
17613TIP3   OH274253   2.359   4.004  14.969  0.5779  0.2589  0.1301
17613TIP3    H174254   2.374   4.017  14.876 -1.6577 -1.1889 -0.4705
17613TIP3    H274255   2.369   3.909  14.982 -0.3700  0.2806  1.0966
17614TIP3   OH274256   0.098   0.830  12.472  0.6777  0.0006  0.1848
17614TIP3    H174257   0.089   0.791  12.385  1.2325 -0.4209  0.3112
17614TIP3    H274258   0.140   0.915  12.456 -1.5867  1.0687 -0.2005
17615TIP3   OH274259   4.447   6.503   1.744 -0.3028  0.7419 -0.1880
17615TIP3    H174260   4.537   6.484   1.768 -0.6628  0.0171  0.5938
17615TIP3    H274261   4.438   6.466   1.656 -0.3576 -0.8050  0.4473
17616TIP3   OH274262   0.810   2.633   0.944  0.1569  0.4564  0.4274
17616TIP3    H174263   0.737   2.624   0.882  1.0282 -1.0860 -0.4066
17616TIP3    H274264   0.786   2.578   1.018  0.6968 -0.4356 -0.0608
17617TIP3   OH274265   3.365   3.933  16.137 -0.9288 -0.2841 -0.3525
17617TIP3    H174266   3.437   3.986  16.170  0.1411 -0.5690 -2.1378
17617TIP3    H274267   3.293   3.994  16.124 -0.1197  0.5094 -1.1590
17618TIP3   OH274268   0.484   1.635   1.477 -0.3049 -0.1126 -0.0359
17618TIP3    H174269   0.446   1.585   1.405  0.4352 -0.4746 -0.1729
17618TIP3    H274270   0.511   1.570   1.541 -1.0019  0.2105  0.6058
17619TIP3   OH274271   1.185   1.705   3.585 -0.4786 -0.3119  0.1777
17619TIP3    H174272   1.270   1.664   3.570  0.3982  1.1334  1.1352
17619TIP3    H274273   1.160   1.675   3.673 -0.8129 -0.4678  0.0316
17620TIP3   OH274274   1.083   2.341   5.513  0.4240  0.1697 -0.4534
17620TIP3    H174275   1.107   2.345   5.420  0.2708  0.2336 -0.4904
17620TIP3    H274276   1.018   2.411   5.524  2.0895  1.6350  0.1941
17621TIP3   OH274277   2.883   2.687  16.533 -0.4935 -0.2413 -0.2436
17621TIP3    H174278   2.935   2.693  16.453  0.4902 -0.7791  0.3450
17621TIP3    H274279   2.800   2.730  16.511 -0.5570 -1.1345 -1.7973
17622TIP3   OH274280   0.584   6.507  13.292  0.2150  0.7268 -0.6714
17622TIP3    H174281   0.557   6.416  13.294  2.0252  0.1747  0.1639
17622TIP3    H274282   0.531   6.549  13.360 -0.1714  0.1773 -0.6286
17623TIP3   OH274283   2.911   5.508  15.921  0.2160  0.0231 -0.7165
17623TIP3    H174284   2.883   5.599  15.927  0.1904  0.0336 -0.9806
17623TIP3    H274285   2.992   5.511  15.869  1.8313  0.2158  1.7234
17624TIP3   OH274286   2.516   2.533  14.667 -0.5086  0.1867 -0.1906
17624TIP3    H174287   2.540   2.600  14.603  2.3553 -0.6453 -0.0497
17624TIP3    H274288   2.505   2.582  14.749  0.4751  0.6438 -0.3227
17625TIP3   OH274289   6.489   3.693  12.699  0.2947  0.2004  0.5077
17625TIP3    H174290   6.413   3.638  12.718  0.7971 -0.6367  0.1646
17625TIP3    H274291   6.453   3.778  12.675 -0.5386 -0.2230  0.2529
17626TIP3   OH274292   1.802   1.616  15.400  0.1801 -0.1458 -0.2291
17626TIP3    H174293   1.817   1.548  15.335  1.0082  0.7731 -1.0328
17626TIP3    H274294   1.831   1.697  15.356 -0.0244  0.5961  0.9847
17627TIP3   OH274295   1.920   4.798   5.335  0.2686  0.1582  0.2961
17627TIP3    H174296   1.849   4.862   5.331  0.4720  0.3964  0.4351
17627TIP3    H274297   1.894   4.738   5.405 -0.5600 -0.6922 -0.7182
17628TIP3   OH274298   0.698   3.828   0.206 -0.3499 -0.5240  0.4314
17628TIP3    H174299   0.698   3.865   0.294  1.0276  0.1888  0.1546
17628TIP3    H274300   0.645   3.749   0.212 -1.5646  0.3546  1.5395
17629TIP3   OH274301   3.651   3.054  12.831 -0.4858 -0.3654  0.5691
17629TIP3    H174302   3.651   3.111  12.908  1.3895 -1.2713  1.2878
17629TIP3    H274303   3.564   3.065  12.792  0.0263  3.4454  0.3191
17630TIP3   OH274304   5.657   1.902   4.578  0.2852 -0.1583  0.0342
17630TIP3    H174305   5.579   1.927   4.527 -0.3514 -1.1888  0.4887
17630TIP3    H274306   5.729   1.907   4.515 -0.0770  1.2067 -0.2890
17631TIP3   OH274307   4.697   1.391   5.170 -0.2201  0.4339  0.6019
17631TIP3    H174308   4.660   1.346   5.246 -0.1663  0.5289  0.6863
17631TIP3    H274309   4.663   1.344   5.095 -0.4801  0.4974  0.6784
17632TIP3   OH274310   0.595   4.222   4.570  0.2708 -0.3107 -0.1622
17632TIP3    H174311   0.655   4.225   4.645 -0.2717 -1.0533  0.3022
17632TIP3    H274312   0.570   4.130   4.562 -0.0561 -0.1618 -0.9603
17633TIP3   OH274313   1.153   0.021   1.369  0.2999 -0.4585  0.4173
17633TIP3    H174314   1.215  -0.036   1.323  1.3542  2.2942 -1.7211
17633TIP3    H274315   1.112   0.073   1.300 -1.7851  0.2942  2.1533
17634TIP3   OH274316   5.842   6.436  12.507  0.3859 -0.1500 -0.2788
17634TIP3    H174317   5.844   6.513  12.564  1.4325 -2.1429  2.4872
17634TIP3    H274318   5.933   6.419  12.485  0.3997 -1.9245  1.0355
17635TIP3   OH274319   4.614   5.883  14.789 -0.4158  0.1398  0.0336
17635TIP3    H174320   4.655   5.913  14.870 -0.1753  0.8922 -0.3621
17635TIP3    H274321   4.522   5.907  14.799 -0.5278 -0.4172  0.3846
17636TIP3   OH274322   0.921   5.130   2.789 -0.1536 -0.5678 -0.5149
17636TIP3    H174323   0.986   5.132   2.719  0.9791  3.4727  0.5261
17636TIP3    H274324   0.954   5.065   2.851  0.8572 -1.3175 -1.8057
17637TIP3   OH274325   5.183   5.699  15.927 -0.0174  0.0048  0.3916
17637TIP3    H174326   5.114   5.762  15.907  0.0627  0.0902  0.3844
17637TIP3    H274327   5.137   5.616  15.939 -0.0965  0.0118  0.1402
17638TIP3   OH274328   5.933   5.978  15.421 -0.0857  1.0919  0.6313
17638TIP3    H174329   6.008   5.932  15.459  0.8714  2.3132  0.2509
17638TIP3    H274330   5.861   5.962  15.483 -0.2616 -2.3048 -0.3346
17639TIP3   OH274331   6.729   5.009   4.637  0.8872 -0.3840 -0.0897
17639TIP3    H174332   6.669   5.066   4.589  1.1108  0.2673  0.3934
17639TIP3    H274333   6.809   5.008   4.584  1.2729  0.6518  0.4444
17640TIP3   OH274334   4.875   2.692   5.772  0.3177  0.1956 -0.5754
17640TIP3    H174335   4.921   2.634   5.712  0.3598 -1.1510  0.7142
17640TIP3    H274336   4.792   2.647   5.790  0.3408  0.5219  0.4139
17641TIP3   OH274337   0.208   1.777   3.748  0.5186  0.2520  0.6860
17641TIP3    H174338   0.242   1.699   3.704  2.0228  1.1051  0.2817
17641TIP3    H274339   0.270   1.846   3.725  0.4656  1.0806  2.8732
17642TIP3   OH274340   6.728   3.556   5.742  0.4677 -0.5333  0.0575
17642TIP3    H174341   6.744   3.462   5.730  2.2594 -0.3636  0.9283
17642TIP3    H274342   6.636   3.568   5.718  0.4866 -2.3397 -1.0185
17643TIP3   OH274343   5.297   3.933  16.143  0.3060  0.7381  0.0886
17643TIP3    H174344   5.232   3.975  16.199 -0.3570 -1.3637  0.9087
17643TIP3    H274345   5.247   3.905  16.066  1.0936  3.0491 -1.3137
17644TIP3   OH274346   5.617   1.266  15.715  0.2911  0.9237 -0.1133
17644TIP3    H174347   5.618   1.300  15.626  2.3325 -0.8837 -0.8195
17644TIP3    H274348   5.691   1.309  15.759  1.9392 -1.3370 -0.5715
17645TIP3   OH274349   3.907   2.124  12.384 -0.3321 -0.1434  0.3165
17645TIP3    H174350   3.948   2.039  12.403 -1.8589 -0.8436  0.6154
17645TIP3    H274351   3.893   2.163  12.470 -1.7468 -0.6265  0.3115
17646TIP3   OH274352   4.399   1.050  10.463  0.4324  0.2956  0.0684
17646TIP3    H174353   4.488   1.082  10.472  0.0915  1.3628 -0.3081
17646TIP3    H274354   4.344   1.125  10.484 -0.3706  0.0637 -1.1184
17647TIP3   OH274355   6.489   1.391   3.545  0.1785 -0.0117 -0.3158
17647TIP3    H174356   6.442   1.424   3.468  1.3110  0.1841 -0.9428
17647TIP3    H274357   6.560   1.454   3.558 -0.4503  0.3716  1.3552
17648TIP3   OH274358   6.778   0.863   3.534  0.4691 -0.1507  0.3075
17648TIP3    H174359   6.733   0.793   3.486  0.6127 -0.0764  0.0619
17648TIP3    H274360   6.798   0.824   3.619 -0.1012 -0.1674  0.4380
17649TIP3   OH274361   4.040   0.981  12.339 -0.2379  0.4286 -0.1320
17649TIP3    H174362   3.985   0.943  12.270 -1.4656  0.6342  0.7213
17649TIP3    H274363   4.064   0.907  12.394  1.2103  0.1749 -1.0844
17650TIP3   OH274364   4.619   3.979   3.605  0.1322  0.1827 -0.0194
17650TIP3    H174365   4.529   3.947   3.597  1.2985 -3.1957 -0.6773
17650TIP3    H274366   4.641   4.012   3.518 -0.4155  0.8417  0.0940
17651TIP3   OH274367   3.073   3.528   1.174 -0.3964 -0.1138  0.2225
17651TIP3    H174368   2.983   3.505   1.150 -0.0893 -0.4462 -0.6176
17651TIP3    H274369   3.128   3.481   1.112  0.3488  0.4951  0.4031
17652TIP3   OH274370   4.847   4.833   5.010 -0.0204 -0.1817 -0.1550
17652TIP3    H174371   4.891   4.853   4.927 -0.6721  3.8873  0.3902
17652TIP3    H274372   4.916   4.840   5.076 -0.2812  0.3051  0.0636
17653TIP3   OH274373   1.799   4.211  13.812 -0.4766  0.1930 -0.0601
17653TIP3    H174374   1.807   4.239  13.903  0.7474  0.0128 -0.1042
17653TIP3    H274375   1.854   4.272  13.763  0.6737 -1.0887 -0.3956
17654TIP3   OH274376   1.098   0.860   2.711  0.0931  0.2533 -0.2068
17654TIP3    H174377   1.035   0.912   2.761  1.0476  1.1275  0.1135
17654TIP3    H274378   1.113   0.782   2.764 -1.5751 -0.5138 -0.8309
17655TIP3   OH274379   1.085   6.021   1.076  0.1171  0.1448 -0.1729
17655TIP3    H174380   1.079   6.084   1.147  2.2808 -1.3858  1.4293
17655TIP3    H274381   1.022   5.952   1.099 -0.1589  0.3139 -0.4270
17656TIP3   OH274382   5.246   1.120   0.605 -0.0313 -0.6330 -0.0746
17656TIP3    H174383   5.214   1.141   0.518 -0.8187 -1.7365 -0.0621
17656TIP3    H274384   5.169   1.128   0.661  0.4450 -0.0373  0.5033
17657TIP3   OH274385   3.887   0.803  11.410  0.2329 -0.0700  0.2023
17657TIP3    H174386   3.879   0.885  11.361  1.0961 -0.3272 -0.3783
17657TIP3    H274387   3.961   0.758  11.370 -0.9441 -1.6690 -0.2561
17658TIP3   OH274388   4.959   5.638  13.834  0.4061  0.2421  0.5595
17658TIP3    H174389   4.962   5.551  13.874 -0.0508 -0.0530 -0.0486
17658TIP3    H274390   4.904   5.689  13.894 -0.2469 -0.1902  0.3296
17659TIP3   OH274391   4.271   4.288   1.016 -0.1909 -0.1356  0.6865
17659TIP3    H174392   4.217   4.362   1.043 -0.4715 -1.0660  2.8019
17659TIP3    H274393   4.359   4.311   1.044 -0.1096 -0.1933  0.4822
17660TIP3   OH274394   2.489   2.594  10.607  0.0220  0.2171 -0.2641
17660TIP3    H174395   2.539   2.628  10.681 -0.1076 -0.8636  0.3285
17660TIP3    H274396   2.491   2.499  10.618 -0.6353  0.0834 -1.2302
17661TIP3   OH274397   0.201   5.947   4.910  0.1383  0.1270  0.1178
17661TIP3    H174398   0.107   5.929   4.905 -0.0818  0.9615  1.0523
17661TIP3    H274399   0.216   6.013   4.843  0.0996 -0.1633 -0.1785
17662TIP3   OH274400   2.453   6.200   1.234 -0.2962 -0.2480  0.2980
17662TIP3    H174401   2.527   6.260   1.238 -0.2117 -0.2506 -1.1479
17662TIP3    H274402   2.448   6.163   1.322  1.3759 -0.2028  0.4313
17663TIP3   OH274403   3.310   3.066  12.681 -0.0961  0.1080 -0.5443
17663TIP3    H174404   3.311   3.026  12.594 -1.5672 -0.5451 -0.2826
17663TIP3    H274405   3.235   3.126  12.678  0.1177  0.4175  0.1313
17664TIP3   OH274406   4.917   6.026   4.926  0.1700  0.8124  0.2551
17664TIP3    H174407   4.963   6.018   5.009 -0.1466  1.8989  0.5488
17664TIP3    H274408   4.986   6.038   4.861  0.3878  0.5768  0.4436
17665TIP3   OH274409   5.212   3.138  10.843 -0.4106 -1.0292  0.0894
17665TIP3    H174410   5.209   3.234  10.839 -2.4840 -1.0901 -0.4069
17665TIP3    H274411   5.235   3.110  10.754 -1.1054 -1.0170 -0.0995
17666TIP3   OH274412   5.850   4.571   1.669 -0.4013 -0.0819 -0.3262
17666TIP3    H174413   5.773   4.518   1.692 -1.3954  1.1882 -0.6442
17666TIP3    H274414   5.889   4.524   1.595 -0.8630 -0.7580 -0.1494
17667TIP3   OH274415   2.922   6.473  16.601  0.0734 -0.7550 -0.5597
17667TIP3    H174416   2.885   6.439  16.520 -0.8761 -0.1988 -0.3605
17667TIP3    H274417   2.872   6.552  16.620 -0.1884 -1.2513  0.9296
17668TIP3   OH274418   5.236   2.636   4.072 -0.4735  0.2406  0.5726
17668TIP3    H174419   5.236   2.718   4.122  0.2566  0.6660 -0.1106
17668TIP3    H274420   5.288   2.655   3.994 -0.0461 -0.9619  0.5475
17669TIP3   OH274421   6.638   6.033   4.552  0.1308  0.0521 -0.3347
17669TIP3    H174422   6.575   5.960   4.554 -0.4732  0.5540 -0.8306
17669TIP3    H274423   6.585   6.110   4.573  1.0830  0.1281  1.9299
17670TIP3   OH274424   0.682   2.091  15.913 -0.8370 -0.1435  0.7406
17670TIP3    H174425   0.767   2.134  15.906 -1.4041  0.8172 -0.4636
17670TIP3    H274426   0.703   2.000  15.934  0.4446  0.2965  1.4312
17671TIP3   OH274427   5.191   5.827   3.025  0.1878  1.1120 -0.2170
17671TIP3    H174428   5.240   5.759   3.071 -1.2679  0.1935  0.0001
17671TIP3    H274429   5.118   5.781   2.984 -0.6948  2.5043 -0.2390
17672TIP3   OH274430   1.563   2.978   1.887 -0.4045  0.1548  0.4793
17672TIP3    H174431   1.555   2.887   1.913  0.9631 -0.7514 -2.0639
17672TIP3    H274432   1.642   3.009   1.932 -0.7849  0.0376  1.2258
17673TIP3   OH274433   0.690   3.332  13.750 -0.0661 -0.5296  0.3964
17673TIP3    H174434   0.709   3.426  13.758  2.6652 -0.8735 -1.4839
17673TIP3    H274435   0.625   3.315  13.819 -1.8858  3.0530 -0.3310
17674TIP3   OH274436   4.419   0.778  13.056  0.1691  0.1601 -0.1490
17674TIP3    H174437   4.407   0.698  13.107 -0.5185  1.1791  1.3318
17674TIP3    H274438   4.508   0.807  13.076  0.1986  0.1128 -0.2084
17675TIP3   OH274439   3.437   0.208  12.866 -0.3419  0.4471 -0.4458
17675TIP3    H174440   3.444   0.165  12.780 -0.3632  2.3991 -1.4492
17675TIP3    H274441   3.514   0.177  12.914  0.3866  0.3581 -1.6490
17676TIP3   OH274442   2.536   3.115  12.633  0.2121 -0.2842  0.6315
17676TIP3    H174443   2.495   3.181  12.689 -1.3035  0.8326 -1.7306
17676TIP3    H274444   2.630   3.130  12.644 -0.0910  1.1587  1.4068
17677TIP3   OH274445   6.670   6.519   2.509  0.1014 -0.3512  0.2130
17677TIP3    H174446   6.676   6.511   2.604 -0.8486 -0.5958  0.2525
17677TIP3    H274447   6.640   6.608   2.494  1.1865  0.0111  0.0960
17678TIP3   OH274448   3.074   2.836  15.438  0.2301 -0.4944 -0.5053
17678TIP3    H174449   3.144   2.849  15.373 -1.2519 -1.2489 -2.2971
17678TIP3    H274450   3.073   2.742  15.453 -1.6755 -0.7252 -1.9607
17679TIP3   OH274451   1.734   5.331  11.753 -0.1920  0.4078 -0.1910
17679TIP3    H174452   1.825   5.348  11.728  0.6388 -2.8991  0.3420
17679TIP3    H274453   1.718   5.392  11.825  2.1988 -0.0995  0.8421
17680TIP3   OH274454   4.176   2.544   1.397  0.6976  0.2051  0.0178
17680TIP3    H174455   4.200   2.631   1.363  1.0178  0.2041  0.2381
17680TIP3    H274456   4.155   2.493   1.319 -1.7746  1.1553  0.0150
17681TIP3   OH274457   0.483   3.068   1.782  0.4626  0.2752 -0.3824
17681TIP3    H174458   0.420   3.122   1.830  0.6658  0.7674 -0.6616
17681TIP3    H274459   0.454   2.978   1.796 -1.4393  0.5913 -2.1211
17682TIP3   OH274460   5.744   2.518  12.536  0.4367  0.1621  0.2828
17682TIP3    H174461   5.780   2.476  12.458 -0.9051 -0.5468  0.0228
17682TIP3    H274462   5.711   2.602  12.505 -0.6940 -0.3979 -0.0638
17683TIP3   OH274463   5.585   5.712   0.938 -0.1966  0.1144 -0.0837
17683TIP3    H174464   5.652   5.666   0.888 -1.8959 -1.3272 -1.0850
17683TIP3    H274465   5.606   5.692   1.030  0.2827 -0.9900 -0.4219
17684TIP3   OH274466   2.290   0.630  13.726  0.0526  0.2857 -0.0504
17684TIP3    H174467   2.275   0.722  13.747 -1.0607 -0.3135  1.8709
17684TIP3    H274468   2.368   0.606  13.775 -1.1637 -0.4766  1.5405
17685TIP3   OH274469   5.106   1.941  12.540  0.2579  0.2691  0.3121
17685TIP3    H174470   5.145   1.947  12.453 -1.1475 -2.8993 -0.6131
17685TIP3    H274471   5.016   1.970  12.529  0.3068  0.6325  0.8659
17686TIP3   OH274472   0.666   4.000   3.072 -0.5662  0.2765  0.1338
17686TIP3    H174473   0.659   3.933   3.140  0.8964  1.2503  1.2765
17686TIP3    H274474   0.694   4.079   3.119 -1.8159  1.5725 -1.2620
17687TIP3   OH274475   1.603   3.610   1.090 -0.2120  0.1602  0.0949
17687TIP3    H174476   1.556   3.562   1.022 -0.2492  0.0401  0.2035
17687TIP3    H274477   1.693   3.580   1.082 -0.5929 -1.4526  1.4632
17688TIP3   OH274478   1.871   0.071  15.093  0.3766  0.5489  0.2931
17688TIP3    H174479   1.901   0.048  15.181 -0.6715  0.8496  0.7316
17688TIP3    H274480   1.907   0.158  15.078  1.8328 -0.1113 -0.1874
17689TIP3   OH274481   5.090   3.545  13.750  0.5634 -0.3066 -0.3102
17689TIP3    H174482   5.127   3.471  13.798  1.4013 -0.6776 -1.5058
17689TIP3    H274483   5.002   3.517  13.726  1.2224 -1.3047 -1.5974
17690TIP3   OH274484   4.757   1.285   2.940 -0.0286 -0.4736 -0.4466
17690TIP3    H174485   4.804   1.353   2.987 -0.6025  0.1550 -0.7749
17690TIP3    H274486   4.815   1.262   2.867  1.4327 -2.3674  1.2907
17691TIP3   OH274487   2.808   0.024  13.397  0.6767 -0.2263 -0.4657
17691TIP3    H174488   2.862   0.060  13.467 -2.3375  1.4790  1.0996
17691TIP3    H274489   2.761  -0.048  13.439 -0.1439 -0.0582 -1.1055
17692TIP3   OH274490   2.004   1.548   4.163  0.0578  0.8275 -0.2812
17692TIP3    H174491   2.091   1.508   4.171 -0.4903  0.1343  2.6767
17692TIP3    H274492   1.944   1.474   4.154 -0.3417  1.2738 -1.4029
17693TIP3   OH274493   6.779   2.852  11.188  0.3474  0.7489  0.0904
17693TIP3    H174494   6.821   2.810  11.113  1.2950  1.1145  0.4052
17693TIP3    H274495   6.852   2.879  11.244 -0.3412  0.7197  1.0139
17694TIP3   OH274496   0.327   5.511  12.944 -0.0810  0.0561  1.1822
17694TIP3    H174497   0.290   5.481  12.860  0.7431 -0.3936  0.9721
17694TIP3    H274498   0.421   5.511  12.929 -0.0603  3.3818  0.9673
17695TIP3   OH274499   4.174   4.850  15.127 -0.8913  0.0449 -0.0729
17695TIP3    H174500   4.100   4.873  15.184  0.0601  0.4025  1.0541
17695TIP3    H274501   4.134   4.828  15.043 -2.5040 -2.5795  1.3174
17696TIP3   OH274502   1.496   5.116  11.256 -0.4585 -0.0847 -0.0632
17696TIP3    H174503   1.580   5.159  11.272 -1.0131  1.4953 -1.3129
17696TIP3    H274504   1.433   5.187  11.250 -2.1086 -1.3088  1.9284
17697TIP3   OH274505   0.370   5.534   1.087  0.1366  0.0497  0.1213
17697TIP3    H174506   0.374   5.452   1.136 -1.0772  0.2302  0.5430
17697TIP3    H274507   0.287   5.529   1.039  0.8302  0.3138 -1.1378
17698TIP3   OH274508   5.163   4.374   3.507 -0.4327  0.2633  0.0984
17698TIP3    H174509   5.213   4.302   3.469 -0.9883 -0.8972  1.5280
17698TIP3    H274510   5.072   4.343   3.508 -0.5848  0.7140  1.3116
17699TIP3   OH274511   0.203   5.521   0.364 -0.4043 -0.4707  0.1530
17699TIP3    H174512   0.214   5.475   0.447 -0.4605  3.0691  2.1808
17699TIP3    H274513   0.116   5.493   0.333 -1.3679 -0.0656  2.4157
17700TIP3   OH274514   2.934   5.941  10.712 -0.0854  0.0254 -0.1077
17700TIP3    H174515   2.845   5.927  10.744  0.1226  1.0787  0.9491
17700TIP3    H274516   2.986   5.874  10.756  0.1999  1.4746  1.7969
17701TIP3   OH274517   2.335   5.222   3.415  0.3204  0.6147  0.1908
17701TIP3    H174518   2.394   5.296   3.426  1.7036 -0.0526 -2.4069
17701TIP3    H274519   2.250   5.261   3.395  0.8822  1.5073 -0.4545
17702TIP3   OH274520   1.661   2.064   1.264  0.4206  0.0206 -0.0277
17702TIP3    H174521   1.675   2.156   1.240 -1.3464 -0.0117 -1.3024
17702TIP3    H274522   1.591   2.067   1.330 -0.3318 -0.4677 -0.7966
17703TIP3   OH274523   5.790   3.418   2.308 -0.2999  0.2685 -0.0888
17703TIP3    H174524   5.770   3.373   2.226 -1.7746 -1.6991  1.3065
17703TIP3    H274525   5.859   3.366   2.348 -1.5993 -0.4642  1.2573
17704TIP3   OH274526   4.138   1.702  15.388  0.2692 -0.1015 -0.2189
17704TIP3    H174527   4.106   1.710  15.477 -1.6949 -1.1757 -0.7968
17704TIP3    H274528   4.227   1.667  15.397 -0.7902 -2.5738  1.2736
17705TIP3   OH274529   2.381   3.990   2.908  0.3910 -0.4121 -0.6322
17705TIP3    H174530   2.431   3.921   2.864  0.1222 -1.3174  0.4822
17705TIP3    H274531   2.347   3.949   2.988  0.3676  1.0524  0.1243
17706TIP3   OH274532   2.797   0.709   1.124 -0.3880 -0.1536  0.6007
17706TIP3    H174533   2.824   0.632   1.075  1.3245  0.2560  0.8809
17706TIP3    H274534   2.705   0.693   1.146 -0.1243 -1.9785  0.4004
17707TIP3   OH274535   6.169   2.954  13.736  0.0429 -0.8769  0.0819
17707TIP3    H174536   6.194   2.900  13.811 -0.1456 -0.9540  0.0889
17707TIP3    H274537   6.250   3.000  13.712 -0.1024 -0.1867  0.8797
17708TIP3   OH274538   0.749   3.604  12.552 -0.2493  0.0949 -0.1916
17708TIP3    H174539   0.722   3.695  12.553  2.0443  0.8197  2.3749
17708TIP3    H274540   0.751   3.579  12.645  0.6905 -2.0765 -0.7690
17709TIP3   OH274541   4.494   2.541  16.190  0.1191  0.2522  0.0568
17709TIP3    H174542   4.535   2.615  16.236  1.5506 -0.5946  0.1709
17709TIP3    H274543   4.568   2.490  16.156 -0.8262 -1.6921  0.8772
17710TIP3   OH274544   0.398   0.325   0.773  0.1637 -0.2753 -0.6893
17710TIP3    H174545   0.327   0.389   0.768 -0.0512 -0.6031 -1.9653
17710TIP3    H274546   0.354   0.240   0.778  0.4175 -0.6535 -3.7017
17711TIP3   OH274547   3.914   2.519   5.891  0.0959  0.3188 -0.1501
17711TIP3    H174548   3.839   2.498   5.835 -0.2238 -0.9669  0.7298
17711TIP3    H274549   3.892   2.481   5.976  1.7022  0.0002  0.1458
17712TIP3   OH274550   6.211   3.854   3.890 -0.2880 -0.3990  0.3160
17712TIP3    H174551   6.184   3.765   3.914 -0.1052 -0.7049 -0.6095
17712TIP3    H274552   6.143   3.911   3.928  1.2012 -0.6779  3.5943
17713TIP3   OH274553   0.016   3.455   5.989 -0.1919  0.1496  0.0249
17713TIP3    H174554  -0.036   3.504   6.053 -2.4201 -1.8844 -0.1769
17713TIP3    H274555   0.006   3.504   5.907 -1.6169 -0.1014  0.0447
17714TIP3   OH274556   0.730   4.568  11.167 -0.3032 -0.2551 -0.4157
17714TIP3    H174557   0.774   4.649  11.194  2.9066 -2.4020  1.1188
17714TIP3    H274558   0.723   4.576  11.071  0.6677  1.5071 -0.3746
17715TIP3   OH274559   5.534   0.834   3.833  0.5294  0.5750  0.3934
17715TIP3    H174560   5.493   0.748   3.844 -0.5092  0.9714 -0.2421
17715TIP3    H274561   5.571   0.831   3.745  0.1291  0.9259  0.2148
17716TIP3   OH274562   3.734   2.934   0.640 -0.2832 -0.0278 -0.3054
17716TIP3    H174563   3.785   2.983   0.705  1.9509 -3.3892  0.6169
17716TIP3    H274564   3.754   2.976   0.557  1.3276  0.8317  0.4946
17717TIP3   OH274565   2.050   6.367  12.207 -0.2250 -0.1339 -0.5623
17717TIP3    H174566   1.995   6.293  12.231 -0.9087  1.0867  1.7373
17717TIP3    H274567   2.128   6.327  12.167 -2.5429 -1.8776 -3.5232
17718TIP3   OH274568   5.021   3.292  16.524  0.1844 -0.1552 -0.2655
17718TIP3    H174569   4.976   3.259  16.603  1.6716 -1.6765 -0.0235
17718TIP3    H274570   5.097   3.339  16.557 -0.4601  1.2088 -0.7228
17719TIP3   OH274571   0.378   4.682   2.947  0.4669  0.1270  0.9139
17719TIP3    H174572   0.434   4.606   2.931 -1.3658 -1.7457  3.0452
17719TIP3    H274573   0.343   4.667   3.035 -2.5102  1.7893  0.0511
17720TIP3   OH274574   2.956   4.356   4.267 -0.0700  0.0455 -0.2515
17720TIP3    H174575   2.914   4.367   4.353  1.6691 -1.3485  0.7989
17720TIP3    H274576   2.903   4.410   4.208 -1.9473  0.1557  1.4734
17721TIP3   OH274577   2.841   6.312   2.461  0.7284  0.1323 -0.6625
17721TIP3    H174578   2.838   6.229   2.509  0.0192  0.1708 -0.6407
17721TIP3    H274579   2.807   6.290   2.374 -1.2712  0.8065 -0.0615
17722TIP3   OH274580   6.427   5.963   2.147 -0.1698  0.0114 -0.8053
17722TIP3    H174581   6.477   5.931   2.222  0.4255  0.2142 -1.1146
17722TIP3    H274582   6.379   6.039   2.180  2.7146  2.1787 -1.4790
17723TIP3   OH274583   1.651   3.359   1.546 -0.2850  0.0821  0.2353
17723TIP3    H174584   1.728   3.411   1.569  0.6667  0.0057 -2.5158
17723TIP3    H274585   1.687   3.278   1.509 -1.7204 -0.7489  0.6004
17724TIP3   OH274586   1.764   3.617  11.561  0.5458  0.0307 -0.5062
17724TIP3    H174587   1.766   3.693  11.503  0.0348 -1.1297 -2.1196
17724TIP3    H274588   1.687   3.630  11.617  0.3614  0.6189 -0.8988
17725TIP3   OH274589   2.260   2.162  13.829 -0.1014  0.1987  0.5110
17725TIP3    H174590   2.233   2.214  13.905  1.3943  0.3654  0.9526
17725TIP3    H274591   2.195   2.092  13.824 -1.1003  1.0666  1.0012
17726TIP3   OH274592   4.665   6.623   5.351  0.2892  0.0914 -0.0693
17726TIP3    H174593   4.700   6.686   5.414 -0.4510  0.5984 -0.1620
17726TIP3    H274594   4.586   6.589   5.393 -1.8802  2.6050 -1.9456
17727TIP3   OH274595   5.306   1.058   6.337 -0.0670  0.0408 -0.3017
17727TIP3    H174596   5.339   1.024   6.420 -0.5806 -0.6116 -0.3674
17727TIP3    H274597   5.367   1.129   6.315  1.2584 -1.1068 -0.3896
17728TIP3   OH274598   3.142   1.821  17.092  1.0635  0.4292 -0.3081
17728TIP3    H174599   3.195   1.743  17.111 -1.2079 -0.9916  0.4834
17728TIP3    H274600   3.138   1.824  16.996  0.8849 -0.6277 -0.3414
17729TIP3   OH274601   5.922   6.293  16.486  0.1848  0.0854 -0.5928
17729TIP3    H174602   5.850   6.230  16.485 -0.7517  1.1527 -1.2210
17729TIP3    H274603   5.984   6.259  16.422  1.1595 -1.8524  1.2952
17730TIP3   OH274604   5.919   2.461  11.466 -0.4782  0.0527 -0.3739
17730TIP3    H174605   5.910   2.472  11.561 -1.5659 -2.2340 -0.1830
17730TIP3    H274606   5.830   2.439  11.436 -0.3889  1.8892 -2.1035
17731TIP3   OH274607   4.047   2.353   6.690  0.2477  0.1065  0.1469
17731TIP3    H174608   4.083   2.402   6.763  0.3586  0.8694 -0.4088
17731TIP3    H274609   3.953   2.348   6.708  0.4777 -0.9198  1.0392
17732TIP3   OH274610   5.964   6.354   3.134 -0.2432  0.7621 -0.1509
17732TIP3    H174611   5.984   6.386   3.046 -2.2197  1.7270 -0.2563
17732TIP3    H274612   6.035   6.389   3.188  1.1776 -0.1227 -1.4014
17733TIP3   OH274613   6.743   4.495  13.909  0.3525  0.7417 -1.2644
17733TIP3    H174614   6.699   4.510  13.826 -0.2171 -0.0284 -1.1066
17733TIP3    H274615   6.827   4.456  13.885  0.2494  0.6527 -1.4756
17734TIP3   OH274616   2.248   0.076   3.796 -0.3321 -0.3631 -0.1097
17734TIP3    H174617   2.327   0.079   3.850  0.3365 -1.2877 -1.0154
17734TIP3    H274618   2.281   0.087   3.706 -1.5498  2.7138 -0.2567
17735TIP3   OH274619   3.286   4.964   1.697 -0.5736 -0.3616 -0.1541
17735TIP3    H174620   3.270   4.957   1.603  0.3141 -1.6426 -0.2142
17735TIP3    H274621   3.203   4.998   1.733 -1.0754 -0.3241 -1.3349
17736TIP3   OH274622   2.864   1.412  17.238  0.7418 -0.1784  0.1216
17736TIP3    H174623   2.891   1.407  17.329  0.8076 -0.4381  0.0876
17736TIP3    H274624   2.909   1.489  17.203  1.5766 -0.7122  0.0173
17737TIP3   OH274625   2.904   6.098   2.836  0.1498  0.2128 -0.6614
17737TIP3    H174626   2.836   6.110   2.770 -0.1616 -0.1424 -0.4065
17737TIP3    H274627   2.964   6.034   2.798  0.0227  0.0821 -0.6411
17738TIP3   OH274628   6.391   3.711  15.147 -0.0773  0.2533  0.2159
17738TIP3    H174629   6.414   3.627  15.185  2.4668  1.1028  0.6480
17738TIP3    H274630   6.390   3.772  15.220  0.2643  1.0171 -0.4049
17739TIP3   OH274631   1.780   4.788  14.462  0.1359  0.0018 -0.1981
17739TIP3    H174632   1.751   4.706  14.504  1.2608 -0.1513  0.2887
17739TIP3    H274633   1.711   4.807  14.399 -0.3085 -1.1556 -0.0916
17740TIP3   OH274634   3.374   6.136   2.430 -0.4602 -0.1498 -0.5353
17740TIP3    H174635   3.366   6.223   2.468  0.2893 -0.8377  1.2061
17740TIP3    H274636   3.319   6.080   2.485  0.5858 -1.1431 -0.4828
17741TIP3   OH274637   4.637   4.388  12.529  0.2172  0.7404 -0.5032
17741TIP3    H174638   4.657   4.301  12.562  1.9755  1.2350 -0.1952
17741TIP3    H274639   4.563   4.375  12.470 -1.6118 -0.4693  1.9629
17742TIP3   OH274640   4.775   3.039   5.834 -0.2966 -0.2982 -0.4228
17742TIP3    H174641   4.680   3.025   5.834 -0.2855 -0.4355 -1.7312
17742TIP3    H274642   4.804   3.010   5.747  1.3224 -2.8705  0.9118
17743TIP3   OH274643   4.790   0.744  16.522  0.7670  0.5400 -0.4152
17743TIP3    H174644   4.731   0.796  16.577  1.0043 -0.1760  0.5258
17743TIP3    H274645   4.782   0.655  16.556  2.4238  0.4377 -0.2332
17744TIP3   OH274646   6.273   1.985  11.404  0.0399  0.7782 -0.8492
17744TIP3    H174647   6.239   2.071  11.380 -1.0905  0.8676  0.9686
17744TIP3    H274648   6.342   2.003  11.468  0.1845  0.3585 -0.8835
17745TIP3   OH274649   1.943   3.249  12.554  1.2775  0.5481  0.2510
17745TIP3    H174650   1.925   3.172  12.500  0.3579  0.6497  0.4020
17745TIP3    H274651   2.023   3.286  12.517  0.0318  1.2761 -1.8296
17746TIP3   OH274652   1.070   0.141  11.677 -0.0147  0.4117 -0.3315
17746TIP3    H174653   1.055   0.144  11.772  0.5408  2.6680 -0.3112
17746TIP3    H274654   0.982   0.136  11.640 -0.2644  0.2590  0.2666
17747TIP3   OH274655   5.974   3.820   5.436 -0.0027  0.1397  0.0909
17747TIP3    H174656   5.932   3.906   5.434  0.0833  0.1599 -1.2961
17747TIP3    H274657   5.972   3.794   5.528 -1.4869  0.9101  0.2865
17748TIP3   OH274658   4.489   3.336   0.372  0.0014 -0.5166  0.1715
17748TIP3    H174659   4.445   3.412   0.334  0.0484 -0.5333  0.0830
17748TIP3    H274660   4.454   3.262   0.323 -0.1857 -0.5686  0.3859
17749TIP3   OH274661   6.174   5.427   3.868 -0.4271  0.1118  0.2517
17749TIP3    H174662   6.093   5.414   3.819 -0.5007  1.0005  0.1259
17749TIP3    H274663   6.158   5.385   3.953 -0.0025 -2.1449 -0.7629
17750TIP3   OH274664   2.579   1.058  13.888  0.1974 -0.4909 -0.0521
17750TIP3    H174665   2.520   1.101  13.826 -0.2578 -1.9603 -0.6653
17750TIP3    H274666   2.527   0.985  13.923  0.9522 -0.5517  0.9500
17751TIP3   OH274667   5.733   2.961  11.466 -0.2414  0.1271 -0.1842
17751TIP3    H174668   5.720   2.992  11.376 -1.1510 -1.8297 -0.7468
17751TIP3    H274669   5.828   2.947  11.472  0.2652  3.2850  0.2131
17752TIP3   OH274670   4.412   3.132  10.852 -0.2062 -0.3479  0.0005
17752TIP3    H174671   4.356   3.070  10.807  0.6587 -0.2529 -1.2341
17752TIP3    H274672   4.356   3.208  10.868 -1.5902 -1.8183  2.5215
17753TIP3   OH274673   4.382   5.961   0.184 -0.1779 -0.2342 -0.0680
17753TIP3    H174674   4.476   5.977   0.195  0.0917 -0.9451 -1.3117
17753TIP3    H274675   4.357   6.016   0.110 -0.8402  0.2420  0.4921
17754TIP3   OH274676   5.890   0.753  11.685  0.0446  0.3419  0.0860
17754TIP3    H174677   5.894   0.809  11.608  0.1397  0.1543 -0.0453
17754TIP3    H274678   5.817   0.788  11.737  1.3774  1.8563  0.9846
17755TIP3   OH274679   1.927   1.130  11.911 -0.6172  0.8351  0.0561
17755TIP3    H174680   1.907   1.037  11.921 -0.2958  0.4931 -2.1647
17755TIP3    H274681   1.967   1.137  11.824 -0.8055  3.0772  0.1064
17756TIP3   OH274682   4.844   0.786   1.598 -0.6223  0.1442  0.1589
17756TIP3    H174683   4.777   0.839   1.555  0.5515  0.3267 -1.5211
17756TIP3    H274684   4.927   0.826   1.572  0.2345 -1.6819 -0.0344
17757TIP3   OH274685   5.024   0.075   5.758 -0.0186 -0.2838  0.0197
17757TIP3    H174686   4.970   0.088   5.836 -0.9705 -0.2746 -0.6345
17757TIP3    H274687   4.969   0.106   5.685  1.0091  0.0754 -0.6114
17758TIP3   OH274688   6.671   5.725  14.852  0.1796 -0.5494  0.0122
17758TIP3    H174689   6.766   5.728  14.844  0.2488 -2.4617 -0.1417
17758TIP3    H274690   6.647   5.812  14.883  2.0967 -0.4484  1.3078
17759TIP3   OH274691   4.222   6.086  15.225 -0.5321  0.3524  0.6304
17759TIP3    H174692   4.171   6.132  15.291 -0.3703  0.0687  0.9503
17759TIP3    H274693   4.249   6.005  15.267  0.1190  0.4661  0.4350
17760TIP3   OH274694   2.676   3.112  16.914 -0.0915 -0.2103  0.2429
17760TIP3    H174695   2.752   3.165  16.888  0.6466  1.1902  4.8044
17760TIP3    H274696   2.705   3.021  16.903  1.1383  0.3203 -0.9876
17761TIP3   OH274697   1.928   0.068   5.709 -0.0626  0.0324  0.1585
17761TIP3    H174698   1.954   0.032   5.794  0.7119  2.1570  0.8639
17761TIP3    H274699   2.002   0.122   5.681 -1.6753  2.1977 -0.1571
17762TIP3   OH274700   5.365   4.215  12.012 -0.0574 -0.2142  0.0050
17762TIP3    H174701   5.308   4.285  12.046  0.2093  0.5422 -1.0571
17762TIP3    H274702   5.334   4.136  12.055 -0.7460  0.4715  0.8001
17763TIP3   OH274703   6.715   3.126   6.305 -0.0058 -0.5779 -0.1391
17763TIP3    H174704   6.797   3.079   6.295  0.1236 -0.2222 -0.7844
17763TIP3    H274705   6.741   3.214   6.334 -0.0782 -0.1355 -1.3652
17764TIP3   OH274706   0.776   3.603   1.562 -0.3016 -0.1002  0.2450
17764TIP3    H174707   0.851   3.565   1.517 -1.4359  0.9574 -2.7028
17764TIP3    H274708   0.706   3.539   1.549 -0.0398 -0.9100  2.6476
17765TIP3   OH274709   0.798   6.026   1.473 -0.6397  0.1295 -0.1942
17765TIP3    H174710   0.806   6.068   1.388  1.0496 -0.4748 -0.3532
17765TIP3    H274711   0.816   6.096   1.536  3.0597 -0.4561 -0.4744
17766TIP3   OH274712   5.724   2.371  16.286  0.2418 -0.2876  0.3785
17766TIP3    H174713   5.646   2.351  16.234  0.8868 -0.9338 -0.3358
17766TIP3    H274714   5.745   2.462  16.263 -0.6691  0.1148  1.0686
17767TIP3   OH274715   4.186   1.550   5.286 -0.5621  0.6282 -0.5422
17767TIP3    H174716   4.234   1.504   5.217  1.1725  1.1184  0.2971
17767TIP3    H274717   4.152   1.481   5.343 -0.2619  0.2929 -0.7696
17768TIP3   OH274718   5.705   2.063   6.449  0.0337  0.2394  0.1183
17768TIP3    H174719   5.670   2.114   6.522  2.9863  1.5500  0.6701
17768TIP3    H274720   5.744   1.986   6.490  1.4236  0.8262 -0.1075
17769TIP3   OH274721   2.942   1.108  13.792  0.6430  0.1832 -0.0093
17769TIP3    H174722   2.938   1.203  13.803  0.4476  0.1291  0.3986
17769TIP3    H274723   2.852   1.082  13.773  0.7238  0.0980 -0.2776
17770TIP3   OH274724   3.985   1.659   0.854  0.3880 -0.4565  0.3783
17770TIP3    H174725   4.058   1.669   0.915  1.6703  0.2384 -1.2017
17770TIP3    H274726   3.920   1.723   0.883  2.3858  2.2825 -0.9138
17771TIP3   OH274727   1.133   6.147  12.798  0.1826  0.6322  0.4933
17771TIP3    H174728   1.201   6.125  12.735 -0.7752 -1.4530  0.1486
17771TIP3    H274729   1.051   6.137  12.749 -0.6322 -1.9196  2.2475
17772TIP3   OH274730   2.023   4.281  11.690  0.3856  0.3717  0.2608
17772TIP3    H174731   1.961   4.266  11.761 -1.8292 -0.1439 -1.7003
17772TIP3    H274732   2.065   4.195  11.677 -0.7834 -0.1033 -0.4653
17773TIP3   OH274733   4.240   1.925  16.959 -0.3768 -0.1271 -0.3684
17773TIP3    H174734   4.276   1.871  16.888  0.2762  0.6485 -0.6276
17773TIP3    H274735   4.146   1.909  16.956 -0.2766 -0.6308 -0.9659
17774TIP3   OH274736   5.959   3.309  15.561 -0.6092  0.5647 -0.2814
17774TIP3    H174737   5.892   3.276  15.621  2.6747 -0.7399  2.8948
17774TIP3    H274738   5.981   3.396  15.596  0.0611  0.5522 -0.6677
17775TIP3   OH274739   1.945   0.241  11.421  0.4498  0.2987 -0.3164
17775TIP3    H174740   1.986   0.169  11.374  0.7579  0.8128 -0.8483
17775TIP3    H274741   2.015   0.306  11.432  0.3969  0.1584  0.9087
17776TIP3   OH274742   2.812   6.717  14.570  0.0077  0.5241  0.2692
17776TIP3    H174743   2.827   6.623  14.560  3.2616  0.9458  0.5312
17776TIP3    H274744   2.780   6.726  14.660 -2.8757 -0.5373 -0.5881
17777TIP3   OH274745   3.584   3.028   4.835 -0.0991  0.5158 -0.1769
17777TIP3    H174746   3.515   2.966   4.856  0.3768  0.3943  1.0370
17777TIP3    H274747   3.662   2.993   4.878  0.0566  2.2458  1.0019
17778TIP3   OH274748   1.831   1.256   3.935  0.1504  0.0469 -0.3640
17778TIP3    H174749   1.917   1.298   3.944  1.0306 -1.7611 -0.3072
17778TIP3    H274750   1.799   1.247   4.025 -0.0034  0.4903 -0.3707
17779TIP3   OH274751   4.387   3.061  16.624  0.4037 -0.2602  0.5124
17779TIP3    H174752   4.326   3.064  16.550  0.5585 -0.4809  0.3777
17779TIP3    H274753   4.463   3.111  16.594  1.0629 -1.5686 -0.0048
17780TIP3   OH274754   0.456   0.485  11.303  0.8103 -0.3395 -0.1382
17780TIP3    H174755   0.414   0.403  11.278  0.1149  0.4677 -1.6933
17780TIP3    H274756   0.385   0.549  11.305  1.5500  0.5015 -0.2450
17781TIP3   OH274757   1.402   0.917  13.906 -0.0955  0.3246 -0.6506
17781TIP3    H174758   1.418   0.897  13.998 -0.5139 -0.9966 -0.8493
17781TIP3    H274759   1.319   0.872  13.886 -0.3315  1.1221 -1.4973
17782TIP3   OH274760   2.304   1.646  12.332  0.5652 -0.6839 -0.2776
17782TIP3    H174761   2.285   1.713  12.398  0.9939 -0.7294 -0.1091
17782TIP3    H274762   2.265   1.566  12.366  0.8860 -0.7327 -0.0235
17783TIP3   OH274763   6.188   5.872  12.951  0.2295 -0.1560 -0.3870
17783TIP3    H174764   6.114   5.819  12.921 -0.7048  0.2919  1.0451
17783TIP3    H274765   6.222   5.914  12.872 -3.4740  2.6849 -0.5837
17784TIP3   OH274766   2.081   5.561   1.050 -0.5656 -0.5441  0.2938
17784TIP3    H174767   2.124   5.505   1.114 -2.8188 -0.7137  1.7175
17784TIP3    H274768   2.146   5.627   1.027  0.8025 -1.4484  1.5315
17785TIP3   OH274769   1.170   4.479  16.660  0.4145  0.1171  0.1668
17785TIP3    H174770   1.182   4.525  16.743  0.8079 -1.4410  1.0124
17785TIP3    H274771   1.167   4.386  16.686 -2.6671 -0.2131 -1.1927
17786TIP3   OH274772   1.100   2.253  15.254  0.4361 -0.2758  0.2047
17786TIP3    H174773   1.130   2.302  15.178  1.4407 -3.0653 -1.2532
17786TIP3    H274774   1.007   2.236  15.236  0.0430  1.1232  0.7846
17787TIP3   OH274775   5.884   1.448  13.691 -0.1658  0.1191  0.0686
17787TIP3    H174776   5.891   1.358  13.724  0.4533  0.1666  0.0813
17787TIP3    H274777   5.796   1.476  13.714 -0.8067 -0.9296 -1.0387
17788TIP3   OH274778   6.369   2.138  12.685 -0.6302  0.6612  0.1797
17788TIP3    H174779   6.401   2.055  12.720  0.0440  1.2292  0.9363
17788TIP3    H274780   6.321   2.114  12.606 -2.7239 -0.7167  1.7888
17789TIP3   OH274781   4.373   5.008   5.387  0.1167 -0.1290 -0.4415
17789TIP3    H174782   4.458   5.030   5.351 -0.6098  0.2307 -1.9833
17789TIP3    H274783   4.368   5.057   5.469  1.2119  0.1703 -0.5505
17790TIP3   OH274784   6.247   4.277   5.869 -0.1954 -0.0543  0.4047
17790TIP3    H174785   6.314   4.339   5.896 -0.0118 -0.0707 -0.0119
17790TIP3    H274786   6.296   4.202   5.835 -0.4148 -0.3959  0.8323
17791TIP3   OH274787   6.086   6.712   1.280  0.2487 -0.7409 -0.5635
17791TIP3    H174788   6.172   6.716   1.321 -0.9821  1.1671  1.9566
17791TIP3    H274789   6.060   6.620   1.287  0.5413 -0.6571  2.0289
17792TIP3   OH274790   1.865   0.356   2.309 -0.4908 -0.1748  0.2811
17792TIP3    H174791   1.901   0.422   2.250 -1.4890  0.2361  0.1192
17792TIP3    H274792   1.931   0.346   2.378 -1.4094  2.8198  1.6628
17793TIP3   OH274793   6.202   0.723  16.562 -0.8769  0.2612 -0.3228
17793TIP3    H174794   6.248   0.640  16.573 -0.0017  1.1022  2.9272
17793TIP3    H274795   6.155   0.714  16.479  0.2716 -2.9388 -0.6857
17794TIP3   OH274796   2.154   2.164  15.846 -0.7023 -0.4297  0.2114
17794TIP3    H174797   2.106   2.085  15.819 -2.6168  0.4638  0.9190
17794TIP3    H274798   2.088   2.233  15.847  0.8544  1.0842  0.1163
17795TIP3   OH274799   6.776   0.274  13.557 -0.0858 -0.2131  0.2841
17795TIP3    H174800   6.730   0.303  13.479 -0.9163  0.4187  0.9922
17795TIP3    H274801   6.868   0.274  13.532 -0.3322  0.1658 -0.6358
17796TIP3   OH274802   3.051   2.453   4.596  0.2064  0.2491  0.1187
17796TIP3    H174803   3.112   2.450   4.522  0.8514 -3.6688  0.7338
17796TIP3    H274804   2.983   2.389   4.573 -0.5321  0.2941  2.1157
17797TIP3   OH274805   2.505   1.003  12.781 -0.0041 -0.1951  0.5394
17797TIP3    H174806   2.530   0.943  12.852 -0.3769  0.8049  1.5465
17797TIP3    H274807   2.411   0.990  12.771  0.1508 -0.7757 -0.2040
17798TIP3   OH274808   1.596   1.121   2.973 -0.0534 -0.6895  0.0083
17798TIP3    H174809   1.653   1.169   2.914  0.5833 -1.7170 -0.2324
17798TIP3    H274810   1.511   1.119   2.929  0.1500 -0.5440 -0.3893
17799TIP3   OH274811   4.673   4.430   5.778 -0.2877 -0.2352 -0.4204
17799TIP3    H174812   4.697   4.437   5.686 -1.4055 -1.3114 -0.8075
17799TIP3    H274813   4.723   4.355   5.811  0.6386  0.5677  0.0395
17800TIP3   OH274814   5.379   6.659  12.895 -0.2989  0.1358  0.2471
17800TIP3    H174815   5.461   6.645  12.848  1.2295  2.2632  2.1248
17800TIP3    H274816   5.366   6.579  12.945  0.1461 -0.5686 -0.7424
17801TIP3   OH274817   3.450   4.106  16.764 -0.1818  0.4994 -0.6030
17801TIP3    H174818   3.471   4.038  16.700 -1.6208 -1.4195  0.9377
17801TIP3    H274819   3.505   4.180  16.738  0.3926 -0.7519 -3.1372
17802TIP3   OH274820   3.723   6.280  15.311  0.1574 -0.7492 -0.0767
17802TIP3    H174821   3.668   6.298  15.387  1.2995 -0.8065  0.7646
17802TIP3    H274822   3.743   6.367  15.275 -1.6037 -0.7741 -1.2186
17803TIP3   OH274823   1.316   2.924  12.079  0.3410 -0.6654  0.0886
17803TIP3    H174824   1.338   2.852  12.138  0.1765  0.2340  1.2620
17803TIP3    H274825   1.264   2.883  12.010  0.7882 -1.7784  0.4009
17804TIP3   OH274826   3.760   4.119   2.679  0.2165  0.0427 -0.3997
17804TIP3    H174827   3.808   4.155   2.604 -0.8597  0.2680 -0.9910
17804TIP3    H274828   3.674   4.161   2.675 -0.5272 -1.4360 -0.1857
17805TIP3   OH274829   0.588   3.053  11.793  0.6140 -0.4023 -0.4962
17805TIP3    H174830   0.510   3.098  11.759 -0.1514 -1.7665 -0.5852
17805TIP3    H274831   0.632   3.021  11.714 -1.3717 -3.9156 -0.2655
17806TIP3   OH274832   1.596   2.897   2.501  0.6063 -0.0131 -0.1230
17806TIP3    H174833   1.554   2.831   2.447  1.6549 -1.9684  1.4025
17806TIP3    H274834   1.673   2.854   2.538  0.3718  1.4780  2.2725
17807TIP3   OH274835   5.181   5.478  16.243 -0.0904  0.0960 -0.0019
17807TIP3    H174836   5.240   5.550  16.219 -1.0792  0.9726  0.1475
17807TIP3    H274837   5.150   5.501  16.331 -1.2048  0.0161 -0.3654
17808TIP3   OH274838   5.636   4.661   1.917 -0.6101  0.5053  0.2309
17808TIP3    H174839   5.550   4.683   1.882 -1.4779 -0.4652  1.7296
17808TIP3    H274840   5.658   4.577   1.877 -0.7540  0.3155  0.5546
17809TIP3   OH274841   3.111   4.945   5.695 -0.5743  0.3053 -0.3190
17809TIP3    H174842   3.205   4.938   5.677 -0.5088 -0.2409  0.2647
17809TIP3    H274843   3.089   4.866   5.743 -1.5496 -0.0630 -1.3501
17810TIP3   OH274844   0.807   2.391   6.171  0.6359 -0.1616 -0.2736
17810TIP3    H174845   0.788   2.305   6.133  2.4907 -0.6124 -0.1928
17810TIP3    H274846   0.773   2.453   6.107  1.2895 -0.9455 -1.4009
17811TIP3   OH274847   6.764   5.906  16.557 -0.0337 -0.0001  0.1340
17811TIP3    H174848   6.824   5.927  16.629  0.1093 -0.6192  0.1966
17811TIP3    H274849   6.711   5.834  16.591 -0.2165 -0.0459 -0.2486
17812TIP3   OH274850   0.688   6.455   5.145  0.1803 -0.0505 -0.0314
17812TIP3    H174851   0.689   6.380   5.206  1.0717  0.0953  0.1439
17812TIP3    H274852   0.622   6.432   5.080 -0.1501 -0.6166  0.4942
17813TIP3   OH274853   0.867   2.118  14.687 -0.2378  0.1236  0.2981
17813TIP3    H174854   0.854   2.177  14.614 -1.1060  0.6434  0.8681
17813TIP3    H274855   0.782   2.078  14.703 -0.3319  0.8560  1.7396
17814TIP3   OH274856   5.394   3.574   6.077 -0.0258  0.0874  0.4197
17814TIP3    H174857   5.488   3.586   6.067 -0.0304 -0.4322 -0.3294
17814TIP3    H274858   5.372   3.618   6.159  0.3923  2.6153 -0.7753
17815TIP3   OH274859   2.087   5.819  14.676  0.0346 -0.5443 -0.2236
17815TIP3    H174860   2.096   5.914  14.663  0.6660 -0.7234 -1.1219
17815TIP3    H274861   2.131   5.780  14.601 -0.8520 -1.5535 -0.2410
17816TIP3   OH274862   2.874   1.098   2.325  0.2612  0.1466 -0.2968
17816TIP3    H174863   2.813   1.024   2.313  1.5762 -0.6111 -2.5966
17816TIP3    H274864   2.960   1.057   2.333  0.6766  1.3042  1.4399
17817TIP3   OH274865   2.799   5.081   6.981  0.0016 -0.5201 -0.2024
17817TIP3    H174866   2.860   5.068   6.907 -0.0574 -0.7471 -0.2120
17817TIP3    H274867   2.811   5.173   7.005  0.5095 -0.6186 -0.0658
17818TIP3   OH274868   2.425   2.600  12.689 -0.1531  0.0577 -0.2158
17818TIP3    H174869   2.374   2.681  12.688  1.8105  1.3440  1.7200
17818TIP3    H274870   2.511   2.625  12.657  1.2599 -0.7016  2.8789
17819TIP3   OH274871   6.302   0.916  12.603  0.9586 -1.3326 -0.0584
17819TIP3    H174872   6.359   0.986  12.571  0.2095 -1.6043 -2.0888
17819TIP3    H274873   6.314   0.917  12.698  0.2085  2.1964  0.0702
17820TIP3   OH274874   0.435   1.236  16.526 -0.1094  0.0184 -0.2166
17820TIP3    H174875   0.438   1.332  16.534  0.1415  0.0283 -0.3991
17820TIP3    H274876   0.472   1.204  16.608  2.4312  0.1142 -1.2831
17821TIP3   OH274877   0.658   4.426  17.030 -0.3969  0.4428 -0.0739
17821TIP3    H174878   0.713   4.351  17.004  0.0866  0.3653  1.1279
17821TIP3    H274879   0.607   4.447  16.952 -1.1594 -1.6930 -0.1717
17822TIP3   OH274880   2.360   0.584   4.632 -0.5445 -0.1821  0.3247
17822TIP3    H174881   2.374   0.518   4.565  2.0362  1.1160 -0.4597
17822TIP3    H274882   2.265   0.596   4.634 -0.8222 -1.8944 -1.4572
17823TIP3   OH274883   6.268   2.686   0.490  0.3941 -0.8010 -0.1626
17823TIP3    H174884   6.288   2.774   0.460 -0.0969 -0.0162  1.7441
17823TIP3    H274885   6.263   2.634   0.410 -0.8504  1.2005 -1.4392
17824TIP3   OH274886   4.177   4.884   2.331 -0.1328 -0.2993  0.2576
17824TIP3    H174887   4.097   4.855   2.288 -1.1233  1.5033  0.8303
17824TIP3    H274888   4.228   4.926   2.262 -0.8659  0.8839  0.4229
17825TIP3   OH274889   3.706   0.693  15.932 -0.1194  0.1146  0.1556
17825TIP3    H174890   3.766   0.742  15.988  1.6585 -0.6954 -0.9960
17825TIP3    H274891   3.720   0.728  15.844 -0.5616 -0.8050 -0.2957
17826TIP3   OH274892   3.332   0.950   4.915  0.7241  0.1978 -0.1014
17826TIP3    H174893   3.397   1.009   4.952  0.2645  2.1314 -2.2767
17826TIP3    H274894   3.328   0.973   4.823 -1.3972 -1.4583 -0.4669
17827TIP3   OH274895   6.296   6.785   3.350 -0.0307  0.0057  0.0295
17827TIP3    H174896   6.351   6.849   3.305 -0.5668  0.2022 -0.3368
17827TIP3    H274897   6.217   6.779   3.297  0.0432 -1.0160  0.0099
17828TIP3   OH274898   3.096   0.897  13.679  0.2243  0.4616  0.0581
17828TIP3    H174899   3.153   0.948  13.622 -0.4525  0.1693 -0.8959
17828TIP3    H274900   3.027   0.959  13.704 -0.3390  0.1488 -0.7170
17829TIP3   OH274901   6.337   2.653  16.020 -0.3821 -0.7467 -0.0319
17829TIP3    H174902   6.275   2.668  15.949  0.7683  2.8765 -0.3751
17829TIP3    H274903   6.417   2.624  15.976 -0.8114 -2.2704  0.1525
17830TIP3   OH274904   4.777   2.033   4.343  0.3173  0.1880 -0.0909
17830TIP3    H174905   4.847   2.040   4.407 -0.9015 -0.1494  1.3197
17830TIP3    H274906   4.761   1.939   4.335  0.1271  0.2547 -0.5165
17831TIP3   OH274907   3.225   5.129  16.127  0.0687  0.3565 -0.2652
17831TIP3    H174908   3.198   5.043  16.159  1.4312  0.3254  0.8663
17831TIP3    H274909   3.144   5.179  16.118 -0.6586 -0.8157 -0.2262
17832TIP3   OH274910   4.290   0.028  11.477 -0.1572 -0.5230  0.2497
17832TIP3    H174911   4.370  -0.025  11.475 -0.6623 -1.2891 -2.2014
17832TIP3    H274912   4.220  -0.034  11.454 -0.9381  0.9182 -1.3524
17833TIP3   OH274913   1.420   2.679  14.209  0.6101  0.2051 -0.4940
17833TIP3    H174914   1.341   2.732  14.197  0.7897  0.4147 -0.7644
17833TIP3    H274915   1.396   2.592  14.175 -0.0621 -0.2240  1.0258
17834TIP3   OH274916   2.702   0.230  14.121 -0.4777 -0.7169 -0.0693
17834TIP3    H174917   2.680   0.175  14.196  0.3626 -2.1383 -0.8445
17834TIP3    H274918   2.634   0.212  14.056 -0.1400 -0.9379 -0.3681
17835TIP3   OH274919   6.665   0.921  17.146  0.2711 -0.2294  0.0612
17835TIP3    H174920   6.691   0.957  17.061  0.1673  1.1396  0.5839
17835TIP3    H274921   6.685   0.991  17.208 -2.2330 -0.1461  0.8071
17836TIP3   OH274922   6.091   1.981   1.945  0.0187  0.1888 -0.2427
17836TIP3    H174923   6.091   2.073   1.971  0.1040 -0.1115  0.8652
17836TIP3    H274924   6.029   1.976   1.872  0.7759  1.3004 -0.9749
17837TIP3   OH274925   0.449   0.541  14.065  0.7943  0.4833  0.0519
17837TIP3    H174926   0.464   0.622  14.016 -0.6610  1.5071  1.2691
17837TIP3    H274927   0.386   0.492  14.012 -0.0526  1.1634  0.4276
17838TIP3   OH274928   5.513   3.043  14.119 -0.0147  0.1024  0.8638
17838TIP3    H174929   5.422   3.029  14.145 -0.2453  2.3178  1.3716
17838TIP3    H274930   5.564   3.023  14.197 -0.2299  0.6622  1.1539
17839TIP3   OH274931   1.640   0.032   5.672  0.3974  0.0978 -0.5534
17839TIP3    H174932   1.702   0.088   5.720  0.1399 -0.0076 -0.0914
17839TIP3    H274933   1.686   0.009   5.592  1.3702 -0.8224  0.2528
17840TIP3   OH274934   5.544   4.828   3.230  0.4188  0.3532 -0.2514
17840TIP3    H174935   5.580   4.796   3.147  0.5231 -0.7064  0.2078
17840TIP3    H274936   5.599   4.790   3.297 -1.0748 -0.6502  0.4259
17841TIP3   OH274937   4.590   4.911  15.112  0.2970 -0.0329 -0.1081
17841TIP3    H174938   4.546   4.995  15.124 -1.3469 -1.1275  1.8104
17841TIP3    H274939   4.580   4.893  15.018 -1.7502  0.6246 -0.0456
17842TIP3   OH274940   3.770   0.701   1.644 -0.3484  0.3340 -0.1185
17842TIP3    H174941   3.769   0.666   1.555 -1.9703 -0.7031  0.2884
17842TIP3    H274942   3.744   0.793   1.634 -1.2689  0.0226 -0.6422
17843TIP3   OH274943   3.523   2.712  14.287 -0.3336  0.2935 -0.8165
17843TIP3    H174944   3.492   2.621  14.284  0.4132 -0.0913  1.9884
17843TIP3    H274945   3.443   2.764  14.287 -0.7677 -0.3280 -2.5204
17844TIP3   OH274946   5.605   2.891   5.357 -0.5771  0.3626  0.2266
17844TIP3    H174947   5.552   2.920   5.283 -1.2925 -0.4772  0.4006
17844TIP3    H274948   5.632   2.802   5.334  0.1028  0.4930  0.4953
17845TIP3   OH274949   2.655   0.236   2.247  0.2287  0.2855 -0.1597
17845TIP3    H174950   2.737   0.226   2.295  0.5297  0.7571 -0.5579
17845TIP3    H274951   2.657   0.327   2.217  1.0726 -0.5901 -2.9075
17846TIP3   OH274952   5.147   1.961   3.278  0.2337 -0.0255 -0.4863
17846TIP3    H174953   5.106   1.983   3.361 -0.9438  1.6383 -1.4809
17846TIP3    H274954   5.186   2.043   3.248  0.3147 -0.5144 -1.7549
17847TIP3   OH274955   6.237   3.752   3.378 -0.3887 -0.8652  0.6647
17847TIP3    H174956   6.146   3.727   3.361 -0.4402 -0.7711  0.8048
17847TIP3    H274957   6.285   3.723   3.300 -0.4094 -1.6273  0.9258
17848TIP3   OH274958   1.510   3.387  12.247 -0.4115 -0.0307  0.3219
17848TIP3    H174959   1.453   3.315  12.222 -0.4346 -0.1473  0.7144
17848TIP3    H274960   1.451   3.453  12.283 -0.5406  0.7120 -1.2097
17849TIP3   OH274961   1.309   4.489  13.872 -0.3298  0.0708 -0.5808
17849TIP3    H174962   1.381   4.468  13.812 -0.2307  0.8585 -0.7414
17849TIP3    H274963   1.236   4.435  13.841  0.0984 -0.4823 -0.6243
17850TIP3   OH274964   6.045   2.954   4.078  0.1301 -0.0510 -0.0000
17850TIP3    H174965   6.052   2.861   4.096 -1.7769 -0.3964 -0.9259
17850TIP3    H274966   6.029   2.994   4.164  0.5480 -0.6004  0.3393
17851TIP3   OH274967   2.749   3.731   0.822 -0.0148  0.3777 -0.1682
17851TIP3    H174968   2.755   3.765   0.732 -0.4389 -0.6071 -0.5797
17851TIP3    H274969   2.677   3.669   0.819  0.2572  0.0098  0.7577
17852TIP3   OH274970   6.331   1.956   0.887 -0.4205 -0.5184  0.6770
17852TIP3    H174971   6.343   2.025   0.952  2.4818 -1.5595  1.3314
17852TIP3    H274972   6.334   1.874   0.937 -2.4794 -1.1902 -0.2542
17853TIP3   OH274973   5.580   3.500   5.792  0.0292 -0.3020 -0.4391
17853TIP3    H174974   5.499   3.538   5.758  1.0194  1.8094 -0.5691
17853TIP3    H274975   5.554   3.454   5.872 -1.2592  0.5481 -0.3541
17854TIP3   OH274976   1.828   0.303   1.868  0.0266 -0.7337  0.2107
17854TIP3    H174977   1.842   0.250   1.946  0.7996  0.0793  0.6228
17854TIP3    H274978   1.902   0.362   1.865 -2.5644  2.7752  1.7266
17855TIP3   OH274979   1.872   0.814  11.047  0.1752 -0.6271  0.0626
17855TIP3    H174980   1.826   0.734  11.021 -1.1602  0.5538 -1.2574
17855TIP3    H274981   1.842   0.830  11.137  2.6304 -3.1373  1.4149
17856TIP3   OH274982   1.048   4.752  14.223  0.2018  0.5935  0.1383
17856TIP3    H174983   1.124   4.739  14.279  1.7160  1.6895 -1.6253
17856TIP3    H274984   1.030   4.665  14.186  0.4215  0.2851  0.7525
17857TIP3   OH274985   4.296   0.440   0.848 -0.0152 -0.4950  0.2096
17857TIP3    H174986   4.356   0.368   0.825  0.6165  0.3439 -0.8089
17857TIP3    H274987   4.227   0.435   0.782  1.1789  1.1795 -1.2033
17858TIP3   OH274988   2.981   5.586   2.793 -0.2435  0.7014 -0.2668
17858TIP3    H174989   3.045   5.528   2.752 -0.6904  1.2919 -1.8513
17858TIP3    H274990   3.013   5.598   2.882  0.6597 -0.7728 -0.3713
17859TIP3   OH274991   6.131   5.247   2.753 -0.1268 -0.4237 -0.2115
17859TIP3    H174992   6.109   5.273   2.663 -1.0673  1.7768  0.6192
17859TIP3    H274993   6.068   5.178   2.774  1.3605 -2.3562 -1.9011
17860TIP3   OH274994   0.628   6.660  14.199  0.5280 -0.0302 -0.4007
17860TIP3    H174995   0.663   6.662  14.109 -0.4335  2.4863 -0.7755
17860TIP3    H274996   0.661   6.741  14.238 -2.2275  0.8194  0.2581
17861TIP3   OH274997   1.672   0.592   1.891  0.1286  0.6528  0.3708
17861TIP3    H174998   1.727   0.666   1.865 -3.2347  2.5614 -1.7900
17861TIP3    H274999   1.719   0.515   1.861  2.1038  2.1611 -0.5107
17862TIP3   OH275000   0.303   5.811   5.554  0.6453  0.2543 -0.0212
17862TIP3    H175001   0.207   5.804   5.552  0.6104  0.7229 -0.1919
17862TIP3    H275002   0.321   5.891   5.505  1.1884 -0.4411 -0.9715
17863TIP3   OH275003   6.167   4.538  13.020 -0.3258  0.0117  0.4726
17863TIP3    H175004   6.226   4.569  12.951 -0.8940  1.5957  0.6773
17863TIP3    H275005   6.080   4.543  12.980 -0.3342 -2.3852  0.1436
17864TIP3   OH275006   4.868   3.317   5.197 -0.1709 -0.3396  0.3566
17864TIP3    H175007   4.882   3.259   5.272 -1.3373 -0.7690  0.2571
17864TIP3    H275008   4.776   3.343   5.204 -0.4167 -0.7342 -1.1565
17865TIP3   OH275009   5.176   2.368   5.365  0.0718  0.3732  0.4156
17865TIP3    H175010   5.097   2.420   5.357 -0.4587 -0.7018 -1.9341
17865TIP3    H275011   5.227   2.410   5.434 -0.5858  3.6620 -1.0214
17866TIP3   OH275012   1.188   1.747  10.908  0.5028  0.2948 -0.0477
17866TIP3    H175013   1.158   1.801  10.835  1.2669  1.4372  0.4686
17866TIP3    H275014   1.163   1.658  10.884 -4.1504  1.2495  0.7238
17867TIP3   OH275015   6.603   4.770  16.421  0.0839  0.2232  0.1056
17867TIP3    H175016   6.591   4.855  16.464 -0.6022 -0.0068  0.3668
17867TIP3    H275017   6.664   4.788  16.350 -0.5175  1.0519 -0.2025
17868TIP3   OH275018   2.731   1.841   5.919  0.0663 -0.4173 -0.0478
17868TIP3    H175019   2.669   1.912   5.932  0.2850 -0.5053  1.6036
17868TIP3    H275020   2.816   1.877   5.946  0.1985 -1.2468  0.6891
17869TIP3   OH275021   5.896   0.801   5.699  0.0561 -0.2562 -0.1034
17869TIP3    H175022   5.886   0.755   5.783 -1.2107  1.0958  0.4978
17869TIP3    H275023   5.956   0.746   5.649  0.0429 -1.5972  1.3195
17870TIP3   OH275024   5.054   2.246  13.410  0.1778 -0.3306  0.0269
17870TIP3    H175025   5.053   2.333  13.451  2.1451 -0.5156  0.4978
17870TIP3    H275026   5.005   2.258  13.329  0.4831  1.2380  0.0565
17871TIP3   OH275027   2.357   1.173  12.194  0.8241 -0.3038 -0.3176
17871TIP3    H175028   2.310   1.138  12.270 -0.4852 -0.3361 -1.1381
17871TIP3    H275029   2.409   1.245  12.230 -0.2487  0.0735  0.5140
17872TIP3   OH275030   2.390   5.414   2.754  0.0731 -0.0456  0.0990
17872TIP3    H175031   2.310   5.458   2.784 -0.3222 -0.3646 -0.4780
17872TIP3    H275032   2.461   5.461   2.797 -0.4519 -0.0528  0.9831
17873TIP3   OH275033   0.029   2.581   2.894  0.4519 -0.0576 -0.7875
17873TIP3    H175034   0.118   2.612   2.878  0.0671  1.4846 -0.0601
17873TIP3    H275035   0.019   2.586   2.989 -0.5493  0.2213 -0.8934
17874TIP3   OH275036   1.822   5.334  14.062  0.8129 -0.4295 -0.1857
17874TIP3    H175037   1.877   5.345  13.984 -1.8124 -0.7918 -2.1669
17874TIP3    H275038   1.742   5.383  14.042 -0.1080 -0.9393  2.1017
17875TIP3   OH275039   4.409   0.033   5.113 -0.7319 -0.2109 -0.5407
17875TIP3    H175040   4.476  -0.004   5.171 -1.3914 -1.1660 -0.3852
17875TIP3    H275041   4.398  -0.031   5.043  0.2437  1.0593 -1.8867
17876TIP3   OH275042   3.543   5.420   4.893  0.2030 -0.3249  0.0953
17876TIP3    H175043   3.611   5.357   4.867  2.2166  1.3323  1.2258
17876TIP3    H275044   3.505   5.383   4.973  1.2360 -0.2296  0.6386
17877TIP3   OH275045   1.147   6.466  10.797 -0.4116  0.6422  0.0575
17877TIP3    H175046   1.220   6.520  10.827  1.1600 -1.3821 -0.0281
17877TIP3    H275047   1.084   6.471  10.869  0.6643  0.8250  1.0129
17878TIP3   OH275048   6.482   0.142   3.834  0.0218 -0.4069 -0.3498
17878TIP3    H175049   6.502   0.191   3.754  1.1950 -0.3732 -0.0505
17878TIP3    H275050   6.432   0.067   3.804 -0.4106  0.1302 -1.0003
17879TIP3   OH275051   4.050   6.766  15.888 -0.2168  0.7688  0.0360
17879TIP3    H175052   4.025   6.792  15.799 -0.8162 -0.4827 -0.1662
17879TIP3    H275053   3.976   6.792  15.942 -1.7653 -2.4445 -0.4828
17880TIP3   OH275054   4.268   5.657  13.348  0.2729  0.0419  0.0468
17880TIP3    H175055   4.300   5.568  13.330 -1.2134 -0.8661  1.8168
17880TIP3    H275056   4.177   5.656  13.319  0.2776  1.0301 -0.0213
17881TIP3   OH275057   0.587   0.493   5.167  0.0608  0.5194 -0.1685
17881TIP3    H175058   0.549   0.567   5.214 -0.5301  0.2744 -0.2496
17881TIP3    H275059   0.615   0.432   5.235 -1.8239 -0.3429 -0.1416
17882TIP3   OH275060   0.601   6.336  15.022  0.2321 -0.3105 -0.2789
17882TIP3    H175061   0.517   6.298  15.048  0.1032  0.1067 -0.0857
17882TIP3    H275062   0.662   6.309  15.091 -0.5892  2.6991  1.7123
17883TIP3   OH275063   1.661   4.992   0.252  0.0856  0.3614  0.7824
17883TIP3    H175064   1.685   4.925   0.189 -1.3994 -0.1118  0.6844
17883TIP3    H275065   1.661   5.074   0.202  0.3960  0.2046  0.5275
17884TIP3   OH275066   3.942   0.533   3.218 -0.3208  0.1821 -0.2280
17884TIP3    H175067   4.030   0.570   3.222 -0.2183  0.2144 -2.3117
17884TIP3    H275068   3.956   0.440   3.199 -0.7568  0.7428 -3.6287
17885TIP3   OH275069   1.167   6.208  11.292 -0.1035 -0.1052  0.1445
17885TIP3    H175070   1.077   6.222  11.266 -0.5301 -1.3519  0.9028
17885TIP3    H275071   1.206   6.159  11.220  0.4843  1.9941 -1.0040
17886TIP3   OH275072   4.886   2.234  15.845 -0.6797 -0.1307  0.2087
17886TIP3    H175073   4.864   2.254  15.937 -0.3296 -2.7756  0.8957
17886TIP3    H275074   4.980   2.223  15.845 -0.3740  2.1056 -0.9715
17887TIP3   OH275075   2.534   4.697  15.342  0.4348 -0.0660 -0.9153
17887TIP3    H175076   2.571   4.703  15.254  2.0410 -1.4349 -0.3571
17887TIP3    H275077   2.478   4.775  15.349 -0.7984 -0.6205 -3.6163
17888TIP3   OH275078   5.362   3.035  16.356  0.1534  0.5800  0.2135
17888TIP3    H175079   5.312   3.064  16.280  0.6554  1.2211  0.1202
17888TIP3    H275080   5.297   3.024  16.425 -0.4083 -0.7143 -0.4985
17889TIP3   OH275081   4.993   4.229   1.480 -0.4015  0.3319  0.2829
17889TIP3    H175082   4.920   4.276   1.519 -0.5373 -0.2413  0.7272
17889TIP3    H275083   5.068   4.288   1.490 -0.3134 -0.0503  1.9403
17890TIP3   OH275084   1.509   1.823  16.941  0.0114 -0.3211 -0.0880
17890TIP3    H175085   1.456   1.903  16.932  1.8507  0.8259 -1.2677
17890TIP3    H275086   1.457   1.766  16.997 -2.0957  1.0692 -0.5375
17891TIP3   OH275087   5.356   4.892  11.170  0.1347  0.6901 -0.0753
17891TIP3    H175088   5.358   4.931  11.257 -0.0715  1.0213 -0.2130
17891TIP3    H275089   5.448   4.881  11.146  0.2005 -1.7584  1.2067
17892TIP3   OH275090   4.174   5.481  15.884 -0.4225  0.0729 -0.3655
17892TIP3    H175091   4.181   5.396  15.841  0.3770  0.9396 -2.0311
17892TIP3    H275092   4.080   5.497  15.891 -0.6284 -1.8801  1.9373
17893TIP3   OH275093   5.719   4.298   2.210  0.1497 -0.1760  0.0959
17893TIP3    H175094   5.742   4.322   2.120  0.2722  0.1785  0.2187
17893TIP3    H275095   5.766   4.215   2.225 -0.2310 -0.4677 -0.3141
17894TIP3   OH275096   0.108   4.154   1.257 -0.1327  0.4565  0.4022
17894TIP3    H175097   0.156   4.074   1.232 -0.8816  0.3445 -0.7104
17894TIP3    H275098   0.166   4.198   1.319  0.3013 -0.9441  1.0194
17895TIP3   OH275099   0.909   0.560  11.547  0.7039  0.1258  0.5627
17895TIP3    H175100   0.880   0.523  11.630  0.2288 -0.3596  0.1841
17895TIP3    H275101   0.920   0.654  11.565  1.5758 -0.1376  1.4270
17896TIP3   OH275102   5.761   6.034   3.607  0.0859  0.4650 -0.6013
17896TIP3    H175103   5.753   5.946   3.571 -1.5361  0.5237 -0.4109
17896TIP3    H275104   5.771   6.091   3.531 -1.2518  0.3587 -0.8739
17897TIP3   OH275105   4.561   4.578   5.299  0.0117  0.2032 -0.0207
17897TIP3    H175106   4.552   4.660   5.251 -1.0558  2.5720  3.9709
17897TIP3    H275107   4.655   4.559   5.297  0.1882  1.1624 -1.5024
17898TIP3   OH275108   5.498   1.496   1.400  0.0002 -0.2393  0.0308
17898TIP3    H175109   5.538   1.410   1.385 -0.2605 -0.0761 -1.6984
17898TIP3    H275110   5.496   1.506   1.495 -0.8775 -2.5718  0.2711
17899TIP3   OH275111   4.369   4.095   5.941  0.5132  0.2215 -0.2892
17899TIP3    H175112   4.331   4.082   6.028 -0.2707  0.7762 -0.5447
17899TIP3    H275113   4.438   4.029   5.935 -0.2847 -0.6653  0.2442
17900TIP3   OH275114   5.755   2.296  16.559  0.1101  0.0766 -0.2038
17900TIP3    H175115   5.745   2.348  16.479 -0.4560 -1.2837 -1.0183
17900TIP3    H275116   5.716   2.211  16.539  1.7064 -0.9457  0.8657
17901TIP3   OH275117   1.045   2.682   5.510  0.2939  0.3255 -0.3551
17901TIP3    H175118   1.125   2.699   5.459  1.1251 -0.5275  0.6504
17901TIP3    H275119   1.076   2.670   5.600 -0.7754 -1.8494 -0.2505
17902TIP3   OH275120   4.339   3.661  16.509  0.4193 -0.2224 -0.6422
17902TIP3    H175121   4.390   3.642  16.588 -2.0650 -4.0755  0.1571
17902TIP3    H275122   4.293   3.742  16.529  1.5199  0.0281  0.9915
17903TIP3   OH275123   2.011   0.147   0.819 -0.2136  0.2969 -0.5181
17903TIP3    H175124   1.998   0.052   0.807 -0.0085  0.2652 -0.4839
17903TIP3    H275125   1.940   0.187   0.769 -0.1973  0.1285 -0.6772
17904TIP3   OH275126   6.293   6.325  13.932 -0.2123 -0.0134  0.4375
17904TIP3    H175127   6.286   6.261  13.861  1.7210  0.6105 -0.3560
17904TIP3    H275128   6.212   6.376  13.926 -1.3810 -1.7902  0.5277
17905TIP3   OH275129   6.535   5.839   2.646 -0.2121 -0.1689  0.3784
17905TIP3    H175130   6.486   5.856   2.726 -1.3283  1.4725 -0.6104
17905TIP3    H275131   6.531   5.744   2.634  0.7952 -0.5510  2.7597
17906TIP3   OH275132   4.217   1.464  11.309 -0.2055 -0.3708 -0.0097
17906TIP3    H175133   4.160   1.428  11.241 -1.5458  2.2018 -0.2838
17906TIP3    H275134   4.261   1.538  11.267  0.6661 -0.1670  1.2532
17907TIP3   OH275135   2.447   1.385  14.442 -0.0796  0.1174  0.3547
17907TIP3    H175136   2.468   1.478  14.432  1.3229 -0.0956  1.1398
17907TIP3    H275137   2.472   1.364  14.532 -1.9440 -0.6376  0.7257
17908TIP3   OH275138   4.507   2.571  14.619 -0.0316  0.2209 -0.0388
17908TIP3    H175139   4.425   2.569  14.570  0.3377  1.7801 -0.7525
17908TIP3    H275140   4.480   2.580  14.710 -0.6669  0.0132 -0.2036
17909TIP3   OH275141   6.548   0.891   1.550 -0.5517 -0.0482  0.9113
17909TIP3    H175142   6.573   0.866   1.639 -0.3623  0.5296  1.0178
17909TIP3    H275143   6.614   0.954   1.523 -1.8497  1.4827  1.1865
17910TIP3   OH275144   2.777   5.134   0.946  0.5953 -0.3719 -0.7482
17910TIP3    H175145   2.733   5.055   0.915 -1.7865  1.5401 -2.4701
17910TIP3    H275146   2.708   5.182   0.994  1.9539  0.7405  0.1368
17911TIP3   OH275147   4.132   0.266  16.737 -0.0994 -0.1521 -0.1064
17911TIP3    H175148   4.132   0.197  16.804 -0.0135  0.9542  1.0392
17911TIP3    H275149   4.040   0.273  16.711 -0.2554 -0.0020  0.4893
17912TIP3   OH275150   0.313   0.124   2.966 -0.2338  0.4342 -0.3915
17912TIP3    H175151   0.241   0.180   2.936 -0.8442  0.7207  1.5303
17912TIP3    H275152   0.273   0.068   3.032  1.4414  1.0344  1.1678
17913TIP3   OH275153   4.040   0.400   5.235 -0.3052  0.8465  0.5705
17913TIP3    H175154   4.118   0.347   5.221  0.3462  2.0140 -0.3302
17913TIP3    H275155   3.979   0.342   5.279  0.0151 -0.9790 -1.3021
17914TIP3   OH275156   3.882   3.948   1.057 -0.0632 -0.5046 -0.7259
17914TIP3    H175157   3.815   3.885   1.084 -0.1263 -1.1187 -2.2759
17914TIP3    H275158   3.910   3.989   1.138 -2.6184  0.0634 -0.0618
17915TIP3   OH275159   0.715   1.536  11.976 -0.0173  0.1509 -0.2207
17915TIP3    H175160   0.644   1.473  11.983 -0.3906  0.2841 -2.3560
17915TIP3    H275161   0.678   1.608  11.925  1.2812  0.7626 -0.3147
17916TIP3   OH275162   6.240   3.580  12.782 -0.1085 -0.3915 -0.1639
17916TIP3    H175163   6.165   3.585  12.723  0.0048  0.7739 -0.2310
17916TIP3    H275164   6.205   3.605  12.868 -0.3130 -2.2553  0.3163
17917TIP3   OH275165   2.025   1.934  12.518 -0.3575  0.2715  0.1580
17917TIP3    H175166   1.990   1.902  12.435  2.3108  1.7389 -1.6059
17917TIP3    H275167   2.107   1.977  12.495 -0.4499  2.3441  3.3222
17918TIP3   OH275168   4.200   3.430  13.508 -0.1812  0.1275 -0.3800
17918TIP3    H175169   4.113   3.429  13.548  0.3729 -1.1022  0.8425
17918TIP3    H275170   4.205   3.515  13.464 -2.0478  0.1559 -0.6129
17919TIP3   OH275171   3.560   0.203   4.464  0.8499  0.1935  0.1729
17919TIP3    H175172   3.559   0.119   4.418  1.2933  0.4882 -0.3853
17919TIP3    H275173   3.572   0.268   4.395  1.7332  0.6280  0.7272
17920TIP3   OH275174   3.164   5.018   0.106 -0.7879  0.2455  0.3785
17920TIP3    H175175   3.098   4.996   0.041 -1.2304  1.4036  0.4217
17920TIP3    H275176   3.246   4.982   0.071 -1.4277 -1.2046  0.3388
17921TIP3   OH275177   4.990   3.401   1.735  0.3372 -0.2654  0.2682
17921TIP3    H175178   4.921   3.433   1.794 -0.2949 -1.2924  0.0929
17921TIP3    H275179   5.062   3.376   1.793 -0.5825 -2.0137  0.6706
17922TIP3   OH275180   1.044   4.362  13.573  0.0403  0.0840  0.3360
17922TIP3    H175181   1.002   4.279  13.595 -0.5062  0.5480  1.0868
17922TIP3    H275182   1.127   4.360  13.620 -0.3582  0.3304  1.0598
17923TIP3   OH275183   5.644   0.058  15.955  0.4526 -0.1568 -0.0384
17923TIP3    H175184   5.667   0.090  15.868 -0.2156 -0.2090 -0.2392
17923TIP3    H275185   5.598  -0.024  15.939  0.4315 -0.2267  0.3679
17924TIP3   OH275186   1.021   2.487   1.775  0.3628  0.9321  0.9963
17924TIP3    H175187   0.973   2.532   1.705 -0.8944  1.3444  2.0818
17924TIP3    H275188   0.953   2.439   1.822  1.3138  0.0400  1.4636
17925TIP3   OH275189   5.140   3.639  15.336 -0.2706  0.3337  0.7252
17925TIP3    H175190   5.122   3.699  15.263  0.5426  1.0073  1.0740
17925TIP3    H275191   5.055   3.630  15.380 -0.7950 -0.1502 -0.3456
17926TIP3   OH275192   5.425   6.401  13.031  0.3803  0.7339  0.5670
17926TIP3    H175193   5.483   6.325  13.019  0.3141  0.2394  3.1326
17926TIP3    H275194   5.443   6.431  13.120 -0.5461  2.9604  0.0304
17927TIP3   OH275195   4.329   4.875  16.745 -0.9484  0.0295 -0.1114
17927TIP3    H175196   4.349   4.934  16.672 -3.0558 -0.3348 -1.0314
17927TIP3    H275197   4.375   4.912  16.820  0.2300  1.1149 -1.3442
17928TIP3   OH275198   2.178   2.021  16.303 -0.1463 -0.2621  0.2542
17928TIP3    H175199   2.150   1.988  16.389 -1.1219  0.1062  0.0745
17928TIP3    H275200   2.106   1.999  16.244  0.0570  0.4433 -0.2617
17929TIP3   OH275201   2.439   2.250  15.081 -0.2718  0.1693  0.2061
17929TIP3    H175202   2.472   2.334  15.050 -1.5006  0.4722 -0.3265
17929TIP3    H275203   2.423   2.200  15.001  1.6936 -1.0768  0.5618
17930TIP3   OH275204   4.426   6.394  13.928 -0.4258  0.2695 -0.3023
17930TIP3    H175205   4.362   6.411  13.997  0.0029  3.3853 -0.6328
17930TIP3    H275206   4.509   6.426  13.963 -0.0344  1.0420 -1.9136
17931TIP3   OH275207   5.295   6.450  15.678 -0.4906  0.3561 -0.0459
17931TIP3    H175208   5.330   6.364  15.656 -1.4433  0.4997 -2.2462
17931TIP3    H275209   5.354   6.512  15.634 -1.7395  0.6905 -1.2947
17932TIP3   OH275210   3.103   6.344   4.910  0.0856  0.0286 -0.1495
17932TIP3    H175211   3.037   6.282   4.940  0.7570 -1.2047 -1.1809
17932TIP3    H275212   3.170   6.342   4.979 -1.4488  2.1481  1.4731
17933TIP3   OH275213   6.356   1.602  12.277 -0.1145  0.5131 -0.2491
17933TIP3    H175214   6.288   1.656  12.236 -0.2402  1.1976  0.8248
17933TIP3    H275215   6.308   1.530  12.318 -0.0729  0.3128 -0.5522
17934TIP3   OH275216   4.048   3.547   0.051  0.5279  0.0232 -0.0535
17934TIP3    H175217   3.977   3.516  -0.006  1.9192  0.2935 -1.9887
17934TIP3    H275218   4.109   3.589  -0.009  1.4767  1.3607  1.8311
17935TIP3   OH275219   2.157   3.467  14.171 -0.2499  0.7710  0.1094
17935TIP3    H175220   2.175   3.391  14.226 -2.4901  1.0790  1.2915
17935TIP3    H275221   2.134   3.430  14.086  1.6157  0.2454 -0.1906
17936TIP3   OH275222   0.693   0.390   5.920 -0.4669 -0.1094  0.6754
17936TIP3    H175223   0.608   0.376   5.962 -0.2580  2.5913  2.0875
17936TIP3    H275224   0.704   0.485   5.920  3.1136 -0.4740  1.5996
17937TIP3   OH275225   2.057   2.328  12.554 -0.2599 -0.2900 -0.4384
17937TIP3    H175226   1.963   2.323  12.573 -0.0472 -2.2932  0.2199
17937TIP3    H275227   2.073   2.255  12.494  0.8727  0.0584 -0.5664
17938TIP3   OH275228   5.353   6.625   0.790 -0.2944 -0.2864 -0.2921
17938TIP3    H175229   5.273   6.614   0.739 -0.8071 -1.4916  0.7262
17938TIP3    H275230   5.339   6.572   0.869  1.0938  0.3015  0.3833
17939TIP3   OH275231   5.970   2.734  13.125 -0.1360  0.2220  0.2314
17939TIP3    H175232   5.883   2.767  13.146 -0.0759  0.7075 -0.2615
17939TIP3    H275233   5.983   2.758  13.033 -0.0021 -0.9979 -0.0719
17940TIP3   OH275234   6.069   1.210  14.102 -0.2580 -0.1169 -0.2993
17940TIP3    H175235   6.095   1.143  14.038 -2.1980  0.0917 -1.3385
17940TIP3    H275236   6.036   1.160  14.177  1.8977 -0.3601  0.5103
17941TIP3   OH275237   0.391   4.558  17.041 -0.3201 -0.2709  0.4681
17941TIP3    H175238   0.301   4.587  17.060 -0.5565 -0.6219 -0.1135
17941TIP3    H275239   0.380   4.483  16.983  0.3841  0.2828 -0.3806
17942TIP3   OH275240   0.000   3.988   4.810 -0.1625 -0.2158  0.8706
17942TIP3    H175241  -0.025   3.962   4.898 -1.8921 -2.1820 -0.1672
17942TIP3    H275242  -0.074   3.962   4.755  1.0700  0.5807 -1.2266
17943TIP3   OH275243   0.085   6.372  11.339 -0.0252 -0.8224  0.0968
17943TIP3    H175244   0.037   6.363  11.257 -0.2757  0.6902  0.0568
17943TIP3    H275245   0.021   6.407  11.401  1.1464  1.8236 -0.1164
17944TIP3   OH275246   0.537   3.241  16.893  0.1063 -0.4191 -0.2585
17944TIP3    H175247   0.543   3.325  16.938 -0.3472 -1.1786  1.2527
17944TIP3    H275248   0.606   3.244  16.826  0.9937  0.6129  0.6860
17945TIP3   OH275249   5.216   0.470  14.699  0.2122 -0.1178 -0.0340
17945TIP3    H175250   5.121   0.466  14.704  0.1707  2.2796  2.4155
17945TIP3    H275251   5.247   0.390  14.741 -0.6885 -0.5135 -0.1237
17946TIP3   OH275252   4.339   2.464  16.412 -0.6059  0.5198  0.4767
17946TIP3    H175253   4.377   2.522  16.477  0.5595 -0.0036  0.2807
17946TIP3    H275254   4.390   2.480  16.333 -0.6389 -0.3575  0.2698
17947TIP3   OH275255   5.282   6.566   2.196 -0.6267 -0.0522  0.0745
17947TIP3    H175256   5.285   6.593   2.288  0.8779 -0.2846  0.1072
17947TIP3    H275257   5.345   6.623   2.153  0.9685 -2.0031 -0.2490
17948TIP3   OH275258   1.681   2.860   3.559 -0.7269 -0.0226  0.1783
17948TIP3    H175259   1.600   2.901   3.590 -1.1060  0.5111 -1.4665
17948TIP3    H275260   1.751   2.909   3.602 -1.1460  3.0399 -2.4707
17949TIP3   OH275261   4.839   2.441  15.629 -0.2039 -0.2026  0.6973
17949TIP3    H175262   4.772   2.467  15.692 -0.6043 -0.2734  0.3039
17949TIP3    H275263   4.879   2.362  15.667 -0.6631 -0.4320  0.7062
17950TIP3   OH275264   3.311   4.195  14.703  0.1313 -0.5436  0.0757
17950TIP3    H175265   3.246   4.236  14.759 -0.4697 -0.6387 -0.5446
17950TIP3    H275266   3.320   4.106  14.738  0.6456 -0.2324  0.7553
17951TIP3   OH275267   6.469   4.755   0.492  0.4188 -0.2686  0.8635
17951TIP3    H175268   6.515   4.756   0.408 -0.5174 -0.4803  0.3329
17951TIP3    H275269   6.486   4.668   0.528  3.1029  0.7575  2.2116
17952TIP3   OH275270   3.076   5.539  12.871  0.1898  0.0739  0.3860
17952TIP3    H175271   3.143   5.553  12.938  0.2461  0.6354  0.2158
17952TIP3    H275272   3.099   5.456  12.831  0.1263 -0.2911  1.1052
17953TIP3   OH275273   5.690   4.983  17.180 -0.3405 -0.8117  0.7227
17953TIP3    H175274   5.709   5.016  17.093 -0.8928 -0.6557  0.6590
17953TIP3    H275275   5.644   5.054  17.224 -0.2029 -0.9461  1.0904
17954TIP3   OH275276   4.474   5.144  10.741 -0.2436  1.2373  0.5400
17954TIP3    H175277   4.409   5.102  10.797 -1.0525  0.6308 -0.8535
17954TIP3    H275278   4.442   5.132  10.652  1.1913  1.9295 -0.0946
17955TIP3   OH275279   4.006   0.238  16.000 -1.0544 -0.1817 -0.2651
17955TIP3    H175280   4.085   0.292  16.009  0.5648 -2.5815  0.5393
17955TIP3    H275281   3.998   0.222  15.906  0.0158 -0.7498 -0.2683
17956TIP3   OH275282   2.171   3.942  16.650 -0.0647 -0.5226  0.2657
17956TIP3    H175283   2.260   3.956  16.618  0.1596 -2.0922  0.1616
17956TIP3    H275284   2.141   4.029  16.677  1.5534 -0.0060  0.4566
17957TIP3   OH275285   5.474   6.420   5.885 -0.1327 -0.0713  0.5065
17957TIP3    H175286   5.401   6.364   5.912  0.3256 -0.5071  0.8581
17957TIP3    H275287   5.479   6.488   5.952  0.2403 -0.4573  0.8720
17958TIP3   OH275288   4.943   0.637   1.353 -0.8051 -0.0592  0.0376
17958TIP3    H175289   4.928   0.653   1.446 -0.6000  0.4575 -0.0167
17958TIP3    H275290   5.013   0.572   1.351 -2.0639 -1.4295  0.2718
17959TIP3   OH275291   6.019   6.485  14.265 -0.4165  0.4088  0.1571
17959TIP3    H175292   5.973   6.505  14.184 -0.1729 -0.4443 -0.1909
17959TIP3    H275293   5.972   6.535  14.332 -3.1660 -2.0487  0.1466
17960TIP3   OH275294   4.660   1.496  14.542  0.1705 -0.5338  0.0422
17960TIP3    H175295   4.624   1.548  14.614  0.2299 -0.8697  0.3157
17960TIP3    H275296   4.732   1.446  14.581 -0.6475 -1.7318  0.0649
17961TIP3   OH275297   6.441   3.848  12.347 -0.1679 -0.0341  0.1126
17961TIP3    H175298   6.472   3.798  12.271 -2.6860 -1.4184 -0.0541
17961TIP3    H275299   6.381   3.789  12.391 -0.8759  1.7919  1.6308
17962TIP3   OH275300   4.421   2.504   1.498  0.4724 -0.4012 -0.4690
17962TIP3    H175301   4.327   2.501   1.480  0.0892  1.1773  1.1069
17962TIP3    H275302   4.455   2.567   1.434  0.7215 -1.9939 -1.9556
17963TIP3   OH275303   2.837   3.288   2.605 -0.2435 -0.2785  0.2540
17963TIP3    H175304   2.859   3.381   2.597 -0.7844 -0.0927  0.8451
17963TIP3    H275305   2.867   3.249   2.524 -3.2862  1.0620 -1.6139
17964TIP3   OH275306   3.756   2.039  15.822 -0.4018  0.4184  0.3024
17964TIP3    H175307   3.812   2.017  15.897 -2.0956 -2.5107  0.8146
17964TIP3    H275308   3.707   2.116  15.851  0.0759  0.2435  1.6084
17965TIP3   OH275309   1.135   1.339  14.418  0.1584  0.0571 -0.1865
17965TIP3    H175310   1.230   1.346  14.423  0.2887 -2.2922  1.9808
17965TIP3    H275311   1.103   1.418  14.462  1.0990  0.5230 -0.3246
17966TIP3   OH275312   1.624   2.319  10.817 -0.2897 -0.0377  0.4666
17966TIP3    H175313   1.674   2.294  10.894  0.0421 -2.1239 -0.3928
17966TIP3    H275314   1.624   2.415  10.818  2.4002 -0.0176  1.3240
17967TIP3   OH275315   3.559   4.706   1.485 -0.4489 -0.0241  0.0754
17967TIP3    H175316   3.612   4.769   1.437  0.1194  0.0114  0.7396
17967TIP3    H275317   3.557   4.740   1.574 -3.2269  1.0252 -0.3499
17968TIP3   OH275318   2.271   1.305   4.878  0.5432 -0.4147  0.4660
17968TIP3    H175319   2.367   1.311   4.876  0.5858 -1.1280 -3.0948
17968TIP3    H275320   2.242   1.394   4.898  1.9683  0.5013 -1.3245
17969TIP3   OH275321   4.858   6.047  12.149  0.2708 -0.2856 -0.7412
17969TIP3    H175322   4.781   6.087  12.189  1.1888 -0.6894  1.5381
17969TIP3    H275323   4.824   5.972  12.100 -0.9875  0.7463 -1.4821
17970TIP3   OH275324   1.226   3.169   5.099  0.5875  0.1522  0.2108
17970TIP3    H175325   1.205   3.257   5.131 -2.3862 -0.5066  0.1723
17970TIP3    H275326   1.240   3.117   5.178 -0.2002  0.0642  0.2936
17971TIP3   OH275327   1.263   2.636  13.164 -0.3218 -0.0562  0.0272
17971TIP3    H175328   1.234   2.672  13.080 -0.1683  1.0341  0.4285
17971TIP3    H275329   1.207   2.678  13.229  1.0681  0.8616  0.6690
17972TIP3   OH275330   4.759   5.665   0.002  0.2404 -0.5361  0.0620
17972TIP3    H175331   4.811   5.604   0.056 -1.0806  0.4517  2.5329
17972TIP3    H275332   4.810   5.746   0.003  0.5122 -0.6861 -0.7428
17973TIP3   OH275333   5.853   0.642   4.335  0.0001  0.2170  0.0792
17973TIP3    H175334   5.766   0.681   4.322  0.5197  1.2722 -0.3546
17973TIP3    H275335   5.890   0.690   4.410  0.1523 -0.3248  0.3523
17974TIP3   OH275336   5.378   2.397   4.171 -0.4034 -0.1376  0.0233
17974TIP3    H175337   5.368   2.492   4.174  1.2828  0.0331  1.0472
17974TIP3    H275338   5.415   2.374   4.256 -1.6336 -1.8273  0.1215
17975TIP3   OH275339   3.846   5.424   5.929  0.2311 -0.0420  0.1876
17975TIP3    H175340   3.935   5.458   5.923  0.2576  0.0253  0.9505
17975TIP3    H275341   3.845   5.374   6.010 -0.4191 -0.0685  0.1630
17976TIP3   OH275342   6.629   3.033   3.908 -0.3536 -0.0825  0.3103
17976TIP3    H175343   6.662   2.956   3.955  0.3981 -0.0657 -0.1898
17976TIP3    H275344   6.606   3.000   3.822  2.3693  0.7209 -0.7861
17977TIP3   OH275345   0.443   6.137  13.524  0.0298  0.1665 -0.3928
17977TIP3    H175346   0.456   6.154  13.618  0.4861 -1.0264 -0.2319
17977TIP3    H275347   0.352   6.111  13.516 -0.3039  1.3235 -0.4439
17978TIP3   OH275348   5.527   3.805  12.346 -0.0951  0.1264  0.1587
17978TIP3    H175349   5.497   3.789  12.436 -1.8279 -0.6902 -0.5524
17978TIP3    H275350   5.529   3.901  12.339 -0.3361  0.1972  0.9326
17979TIP3   OH275351   6.040   5.692  16.107 -0.5183  0.0060 -0.4385
17979TIP3    H175352   6.085   5.773  16.086  0.1702 -0.2065  0.2036
17979TIP3    H275353   6.082   5.661  16.187  0.3332 -1.8103 -1.5348
17980TIP3   OH275354   4.314   4.722   0.270 -0.0319 -0.4499 -0.0683
17980TIP3    H175355   4.261   4.800   0.285  1.5709  0.6044  0.1856
17980TIP3    H275356   4.250   4.655   0.245 -1.5338  0.6720  0.6389
17981TIP3   OH275357   6.363   2.510  13.585 -0.3781  0.5469  0.2012
17981TIP3    H175358   6.411   2.584  13.622  1.8008  0.3306 -2.0545
17981TIP3    H275359   6.429   2.441  13.576 -1.0934  0.1720 -2.7823
17982TIP3   OH275360   1.546   1.417   4.797  0.2469 -0.6385  0.3104
17982TIP3    H175361   1.486   1.385   4.864  0.8199 -0.1976  1.0395
17982TIP3    H275362   1.550   1.512   4.812  1.4112 -0.7097  0.5080
17983TIP3   OH275363   4.456   3.623   1.923  0.5719  0.5233 -0.0284
17983TIP3    H175364   4.380   3.631   1.865 -0.8468 -1.1005  1.5230
17983TIP3    H275365   4.492   3.711   1.928 -1.6169  1.4679 -0.2871
17984TIP3   OH275366   3.340   5.231  11.847 -0.0773  0.0370  0.7383
17984TIP3    H175367   3.267   5.292  11.834  0.3789  0.6916  1.1752
17984TIP3    H275368   3.411   5.268  11.794  0.5335  0.4889  1.8507
17985TIP3   OH275369   3.094   1.970  12.033  0.1526 -0.0765 -0.3914
17985TIP3    H175370   3.066   1.903  11.970 -0.5419  0.8060 -1.0343
17985TIP3    H275371   3.189   1.971  12.026  0.0191  1.0212 -2.4895
17986TIP3   OH275372   2.503   5.526  15.403  0.3313 -0.3034  0.1576
17986TIP3    H175373   2.534   5.436  15.415  0.2551 -0.2681  0.5926
17986TIP3    H275374   2.574   5.581  15.436  0.2798 -0.2038  0.1036
17987TIP3   OH275375   5.611   6.519   0.693 -0.2835 -0.1403 -0.5061
17987TIP3    H175376   5.572   6.454   0.752 -0.4736 -0.1449 -0.6358
17987TIP3    H275377   5.543   6.586   0.684 -1.3619 -1.5011 -2.9277
17988TIP3   OH275378   4.266   3.432   6.024  0.0694 -0.0856 -1.3257
17988TIP3    H175379   4.359   3.409   6.030 -0.2384 -1.0737 -0.3264
17988TIP3    H275380   4.250   3.488   6.099 -0.1693  0.0281 -1.4611
17989TIP3   OH275381   5.878   5.907   0.678  0.3543 -0.4017  0.0799
17989TIP3    H175382   5.840   5.822   0.700  1.3792 -0.7858  0.3685
17989TIP3    H275383   5.865   5.916   0.584 -0.9242 -0.2908  0.2570
17990TIP3   OH275384   2.375   4.102  15.419  0.0047  0.6081 -0.4896
17990TIP3    H175385   2.390   4.184  15.465  0.3754  0.9870 -1.2781
17990TIP3    H275386   2.441   4.100  15.350 -0.6086  0.1070 -1.0775
17991TIP3   OH275387   0.052   3.821  13.209 -0.1295  0.2237  0.0788
17991TIP3    H175388   0.041   3.916  13.203  0.2831  0.2935  0.4455
17991TIP3    H275389   0.132   3.809  13.259 -1.4508 -0.3442  2.1125
17992TIP3   OH275390   5.854   6.236  10.828  0.6403  0.1468  0.0715
17992TIP3    H175391   5.771   6.284  10.827 -1.6763 -3.4040  3.8279
17992TIP3    H275392   5.843   6.170  10.760  0.7417  0.2028  0.0004
17993TIP3   OH275393   3.029   1.471   3.525  0.1374 -0.5218  0.2207
17993TIP3    H175394   3.068   1.540   3.471  1.6469 -1.7926 -0.3517
17993TIP3    H275395   3.047   1.390   3.477  0.7623 -1.5935  2.2124
17994TIP3   OH275396   2.824   2.401  12.764  0.2254  0.4317  0.1647
17994TIP3    H175397   2.887   2.332  12.786 -1.2212 -0.3617  1.9340
17994TIP3    H275398   2.789   2.430  12.849 -0.5132  2.0760 -0.6759
17995TIP3   OH275399   2.115   5.083   3.628 -0.4186 -0.3681 -0.2240
17995TIP3    H175400   2.080   5.125   3.549  0.8466  0.6076 -0.2836
17995TIP3    H275401   2.186   5.141   3.656  0.3649 -1.6962  0.5711
17996TIP3   OH275402   6.644   6.218  13.143  0.3444  0.0268  0.3411
17996TIP3    H175403   6.621   6.267  13.222  1.0799  2.7168 -1.0516
17996TIP3    H275404   6.559   6.192  13.107 -0.1423  1.3719  0.4608
17997TIP3   OH275405   6.126   1.873   2.724  0.5492  0.0711 -0.2520
17997TIP3    H175406   6.151   1.860   2.816 -2.5082 -0.3886  0.5605
17997TIP3    H275407   6.101   1.965   2.719  0.9156  0.1483 -0.6867
17998TIP3   OH275408   3.382   1.667  10.923  0.1177 -0.1141  0.2445
17998TIP3    H175409   3.292   1.699  10.924  0.0326 -0.3229 -0.5941
17998TIP3    H275410   3.423   1.714  10.850  0.4419 -0.7075  0.0455
17999TIP3   OH275411   1.692   5.508  11.221 -0.4819 -0.2988  0.4056
17999TIP3    H175412   1.774   5.494  11.173 -0.4218  2.5710 -0.4255
17999TIP3    H275413   1.709   5.475  11.309  1.0059 -1.2247 -0.2100
18000TIP3   OH275414   4.740   5.089   5.957 -0.1460 -0.2591  0.1269
18000TIP3    H175415   4.664   5.141   5.985 -1.0771 -0.6784 -1.5265
18000TIP3    H275416   4.704   5.001   5.946  1.1859 -1.0389  1.8875
18001TIP3   OH275417   4.627   3.469  14.394  0.8338 -0.3539  0.0766
18001TIP3    H175418   4.537   3.500  14.405 -0.1548 -2.1300 -2.5390
18001TIP3    H275419   4.646   3.423  14.476  0.7307  3.1364  2.1409
18002TIP3   OH275420   4.478   3.277   4.829  0.3209  0.5362  0.5273
18002TIP3    H175421   4.465   3.371   4.824 -1.5404  0.2411 -0.8643
18002TIP3    H275422   4.572   3.266   4.843  0.5772  2.5877  0.5472
18003TIP3   OH275423   5.626   1.837   4.965  0.0152 -0.5347  0.3364
18003TIP3    H175424   5.633   1.785   4.885 -0.3213 -0.6591  0.3881
18003TIP3    H275425   5.669   1.920   4.943 -0.0373 -0.5855  0.0419
18004TIP3   OH275426   0.199   2.943   3.014  0.5209  0.1650  0.4051
18004TIP3    H175427   0.249   3.002   3.070 -0.4034  0.7989  0.5741
18004TIP3    H275428   0.147   2.890   3.075 -0.4094  0.7850  0.1586
18005TIP3   OH275429   3.240   5.352  15.027 -0.1726  0.8181  0.7559
18005TIP3    H175430   3.253   5.351  15.122  0.3064  0.3413  0.6873
18005TIP3    H275431   3.279   5.434  14.999  1.1291  0.2117  0.7731
18006TIP3   OH275432   2.708   6.334   0.774 -0.0815 -0.3347  0.3400
18006TIP3    H175433   2.662   6.279   0.711 -0.2795 -0.2152  0.3778
18006TIP3    H275434   2.762   6.392   0.720  0.8570 -1.2009  0.3361
18007TIP3   OH275435   3.338   3.358  11.944  0.1123  0.1547  0.3992
18007TIP3    H175436   3.291   3.342  11.862 -1.4490  0.3741  1.2314
18007TIP3    H275437   3.358   3.452  11.943 -2.6037  0.7911  1.6279
18008TIP3   OH275438   5.695   3.141  14.759 -0.2865  0.1839 -0.1721
18008TIP3    H175439   5.772   3.158  14.704 -2.4749 -1.2408 -3.8686
18008TIP3    H275440   5.641   3.219  14.748 -1.3053 -0.6364 -1.1249
18009TIP3   OH275441   0.137   4.957   3.694  0.3116 -0.6200 -0.3238
18009TIP3    H175442   0.167   5.003   3.614  1.0667 -0.9468 -0.2359
18009TIP3    H275443   0.142   4.864   3.671 -0.6668 -0.6734 -0.3073
18010TIP3   OH275444   1.880   2.163  12.266  0.1404  0.2769 -0.5129
18010TIP3    H175445   1.873   2.149  12.172  2.2805 -1.8960 -0.3925
18010TIP3    H275446   1.852   2.080  12.305  1.1407  0.4906  0.6892
18011TIP3   OH275447   1.356   0.779   2.748 -0.5778  0.4507  0.2204
18011TIP3    H175448   1.423   0.733   2.697  0.5683  1.4142  0.8292
18011TIP3    H275449   1.296   0.813   2.682 -0.2614 -0.0899 -0.3594
18012TIP3   OH275450   0.874   0.754   1.599  0.2314  0.0504  0.1677
18012TIP3    H175451   0.903   0.823   1.658  0.9575 -0.7499  0.7571
18012TIP3    H275452   0.919   0.773   1.517 -0.7952  1.1772 -0.1505
18013TIP3   OH275453   1.815   4.406   3.464 -0.2202 -0.0476 -0.0747
18013TIP3    H175454   1.735   4.444   3.426  0.2105  1.1825  0.2132
18013TIP3    H275455   1.783   4.354   3.538 -0.8392 -0.3017 -0.5198
18014TIP3   OH275456   0.623   3.829   1.507  0.3153  0.2040  0.6785
18014TIP3    H175457   0.673   3.747   1.506 -1.6378 -1.0137  0.8925
18014TIP3    H275458   0.603   3.844   1.599 -2.0080 -0.7835  0.3784
18015TIP3   OH275459   6.058   0.685  13.504 -0.0278 -0.0527 -0.3195
18015TIP3    H175460   6.045   0.777  13.484  1.0880  0.2272  0.2043
18015TIP3    H275461   5.994   0.639  13.449  0.6979  0.9079 -2.0102
18016TIP3   OH275462   0.191   0.619   0.231 -1.0079  0.2392 -0.0039
18016TIP3    H175463   0.185   0.528   0.260 -0.8875  0.0187 -0.6566
18016TIP3    H275464   0.102   0.640   0.201 -1.3156  0.7102  1.2389
18017TIP3   OH275465   4.321   0.825   5.099 -0.1883  0.0256 -0.4330
18017TIP3    H175466   4.414   0.843   5.116 -0.2470  1.5542 -1.7056
18017TIP3    H275467   4.301   0.873   5.019 -2.3983  0.6493  0.4614
18018TIP3   OH275468   4.464   2.893   5.543  0.4363 -0.6772  0.1720
18018TIP3    H175469   4.537   2.836   5.519  2.3294  2.0229 -0.7384
18018TIP3    H275470   4.403   2.886   5.469  0.5984 -1.5669  0.1136
18019TIP3   OH275471   6.437   0.338   0.525  0.4896  0.0309  0.2623
18019TIP3    H175472   6.475   0.254   0.552 -0.5250  0.2332  2.3835
18019TIP3    H275473   6.362   0.313   0.471  0.9015 -0.4102 -0.1154
18020TIP3   OH275474   3.631   4.015  14.970  0.3443  0.7244 -0.0990
18020TIP3    H175475   3.581   4.094  14.992 -2.0859 -0.6273 -0.6120
18020TIP3    H275476   3.675   3.992  15.052 -3.5601 -0.6293  1.7658
18021TIP3   OH275477   0.965   0.895   1.809  0.5956 -0.1112 -0.4859
18021TIP3    H175478   1.003   0.979   1.833  2.2604 -1.1803  0.7523
18021TIP3    H275479   1.038   0.833   1.814 -0.3981 -1.4865 -2.2528
18022TIP3   OH275480   0.877   3.321   3.887 -0.8468  0.2435 -0.4004
18022TIP3    H175481   0.900   3.356   3.973  0.4869 -0.5414 -0.4200
18022TIP3    H275482   0.912   3.385   3.825 -0.4931  0.0621 -0.3881
18023TIP3   OH275483   5.820   3.669   1.864  0.2691  0.0339  0.4833
18023TIP3    H175484   5.892   3.686   1.804 -0.8714 -0.2969 -0.9941
18023TIP3    H275485   5.784   3.585   1.836 -2.5966  1.6024 -0.7177
18024TIP3   OH275486   4.291   1.381   2.508 -0.2574  0.1191  0.8381
18024TIP3    H175487   4.299   1.289   2.481 -1.4438  0.2486  0.0334
18024TIP3    H275488   4.370   1.423   2.473  0.3860 -0.6191  1.3756
18025TIP3   OH275489   4.215   1.687  12.776 -0.1339 -0.5131 -0.4461
18025TIP3    H175490   4.286   1.708  12.836 -0.6764  1.8018 -0.5840
18025TIP3    H275491   4.237   1.600  12.742  1.2497 -0.9358  1.4871
18026TIP3   OH275492   3.908   2.106  15.262  0.0094 -0.1659  0.3673
18026TIP3    H175493   3.883   2.061  15.343 -1.2360  1.2546  0.7869
18026TIP3    H275494   3.983   2.160  15.286 -0.2728  0.1484  0.5497
18027TIP3   OH275495   6.739   1.795  12.893 -0.3477  0.5694 -0.3362
18027TIP3    H175496   6.738   1.881  12.851  0.2007  0.4570 -0.5835
18027TIP3    H275497   6.709   1.812  12.982 -0.6116  0.9571 -0.4946
18028TIP3   OH275498   1.876   1.932   1.199 -0.6112  0.1592  0.3350
18028TIP3    H175499   1.858   1.851   1.245  0.9939  1.3996  3.2648
18028TIP3    H275500   1.796   1.984   1.208 -1.8615 -1.2524 -2.0648
18029TIP3   OH275501   3.472   2.847  11.872 -0.8060  0.2001 -0.1717
18029TIP3    H175502   3.411   2.775  11.858 -1.2846  0.8892 -1.7669
18029TIP3    H275503   3.417   2.920  11.902 -0.7409  0.7483 -1.3686
18030TIP3   OH275504   5.460   1.055  14.736 -0.8314 -0.2625 -0.0381
18030TIP3    H175505   5.441   0.972  14.780 -0.1505 -0.2031  0.3779
18030TIP3    H275506   5.529   1.033  14.673 -1.6119 -0.2917 -0.9154
18031TIP3   OH275507   1.787   3.715   5.866  0.1303  0.3151  0.3193
18031TIP3    H175508   1.728   3.790   5.853  0.1268  0.1483 -0.6593
18031TIP3    H275509   1.747   3.666   5.938 -0.7108  0.4270 -0.0609
18032TIP3   OH275510   0.699   6.384   4.710  0.0894 -0.3730 -0.4191
18032TIP3    H175511   0.757   6.312   4.684 -0.3939 -0.8585 -0.1789
18032TIP3    H275512   0.672   6.424   4.628  1.7319  0.6390 -0.4804
18033TIP3   OH275513   1.545   1.295  11.906  0.0084  0.0837 -0.7447
18033TIP3    H175514   1.464   1.257  11.940 -0.0919  1.7409  0.9091
18033TIP3    H275515   1.564   1.243  11.827 -0.6535 -2.7469  0.8804
18034TIP3   OH275516   4.118   5.871  16.259  0.4522  0.3131 -0.2028
18034TIP3    H175517   4.209   5.847  16.244  0.0478 -1.7514  0.4387
18034TIP3    H275518   4.102   5.852  16.351 -0.7544  0.1277 -0.4328
18035TIP3   OH275519   6.686   5.654  15.373  0.2125 -0.4898 -0.3871
18035TIP3    H175520   6.666   5.607  15.291  0.5553 -0.1971 -0.6374
18035TIP3    H275521   6.780   5.643  15.385  0.1564 -0.5654 -0.0098
18036TIP3   OH275522   3.931   3.423  13.574  0.1679 -0.6581  0.0848
18036TIP3    H175523   3.903   3.458  13.658  1.1402 -1.9056  0.9469
18036TIP3    H275524   3.849   3.402  13.528 -0.3549 -1.6057  1.4194
18037TIP3   OH275525   6.388   4.657  13.973 -0.2883  0.4545  0.2009
18037TIP3    H175526   6.317   4.596  13.953  0.3134 -0.2511  0.2142
18037TIP3    H275527   6.389   4.718  13.899 -0.7642  0.3437  0.0989
18038TIP3   OH275528   5.975   0.546  15.685  0.4298  0.5130  0.2224
18038TIP3    H175529   6.059   0.585  15.710  0.5961  0.3842 -0.1291
18038TIP3    H275530   5.981   0.535  15.590 -0.6805  2.1440 -0.0469
18039TIP3   OH275531   4.779   1.601   5.937 -0.1915 -0.1533  0.2177
18039TIP3    H175532   4.757   1.679   5.886 -0.1116  0.0807  0.5452
18039TIP3    H275533   4.723   1.533   5.899 -0.0849  0.0045 -0.2275
18040TIP3   OH275534   4.719   6.160  14.926 -0.1685  0.5458  0.3066
18040TIP3    H175535   4.642   6.200  14.887 -1.6794 -0.5609  2.1105
18040TIP3    H275536   4.685   6.090  14.982  2.0586  0.8324  2.1078
18041TIP3   OH275537   6.688   3.947   2.397  0.8328  0.2792  0.1342
18041TIP3    H175538   6.694   3.999   2.477 -2.5734  0.3228  0.4617
18041TIP3    H275539   6.687   4.011   2.327 -0.6306  0.5391  0.3702
18042TIP3   OH275540   3.852   2.955  16.675 -0.6164 -0.2985 -0.6205
18042TIP3    H175541   3.772   2.928  16.630 -0.8691 -0.6980  0.0513
18042TIP3    H275542   3.876   3.038  16.634 -1.5112 -0.0572 -0.6675
18043TIP3   OH275543   0.787   2.929  12.909 -0.3192 -0.7442 -0.0986
18043TIP3    H175544   0.704   2.958  12.871 -1.1756 -0.9605  1.5586
18043TIP3    H275545   0.804   2.991  12.979  1.1279 -0.4881 -0.6532
18044TIP3   OH275546   6.172   0.130  15.224  0.0771 -0.3512  0.5955
18044TIP3    H175547   6.120   0.051  15.207  0.1729 -0.3248  0.1679
18044TIP3    H275548   6.222   0.109  15.303  0.8190 -1.0906 -0.0484
18045TIP3   OH275549   5.199   6.298   6.226 -0.3888 -0.3325  0.4613
18045TIP3    H175550   5.107   6.272   6.224 -0.5620  0.2576  0.5196
18045TIP3    H275551   5.202   6.381   6.179  0.4396 -1.3126 -1.2536
18046TIP3   OH275552   1.833   4.705   2.122 -0.2754 -0.2846  0.3424
18046TIP3    H175553   1.740   4.688   2.112 -0.3767  0.2969  0.2676
18046TIP3    H275554   1.868   4.702   2.033 -0.3737  0.3439  0.2807
18047TIP3   OH275555   5.564   3.297   3.677 -0.3906  0.3070  0.0426
18047TIP3    H175556   5.533   3.353   3.749  1.3945  1.3991 -0.0358
18047TIP3    H275557   5.647   3.261   3.709 -1.6186 -2.5252  0.1994
18048TIP3   OH275558   1.436   2.088  16.892  0.3431  0.1384 -0.2036
18048TIP3    H175559   1.496   2.147  16.846  0.5266 -0.9106 -1.3387
18048TIP3    H275560   1.405   2.139  16.967  1.1703  1.3664 -0.6757
18049TIP3   OH275561   5.279   5.353  16.534 -0.1451  0.1949 -0.4965
18049TIP3    H175562   5.245   5.377  16.620  0.2529 -1.7858  0.2398
18049TIP3    H275563   5.362   5.400  16.527  0.1361 -0.1380  0.4863
18050TIP3   OH275564   0.324   4.000  11.740  0.5305  0.1672  0.7180
18050TIP3    H175565   0.328   3.910  11.772  1.5323  0.0841  0.3855
18050TIP3    H275566   0.232   4.015  11.720  0.6252 -1.4300 -1.0140
18051TIP3   OH275567   1.269   3.150   2.472  0.3492 -0.8951  0.0027
18051TIP3    H175568   1.278   3.224   2.412  1.6649 -1.9735 -1.1615
18051TIP3    H275569   1.274   3.073   2.416 -0.9686 -1.8878  1.2076
18052TIP3   OH275570   0.083   4.121  15.919 -0.1614  0.1601  0.5461
18052TIP3    H175571   0.014   4.182  15.943 -0.6828 -0.7605  1.4296
18052TIP3    H275572   0.037   4.045  15.884  0.4003 -0.3947  0.9871
18053TIP3   OH275573   2.844   3.375   3.300  0.9340 -0.2808 -0.0634
18053TIP3    H175574   2.931   3.358   3.263  0.3549  0.2905 -1.7436
18053TIP3    H275575   2.846   3.467   3.324  0.1700  0.2349 -1.9028
18054TIP3   OH275576   0.757   2.585   0.307  0.7087  0.3104  0.2739
18054TIP3    H175577   0.664   2.594   0.285  0.7164 -0.4957 -0.1070
18054TIP3    H275578   0.771   2.650   0.376 -0.2854  0.0075  0.7820
18055TIP3   OH275579   6.044   5.482   4.390 -0.3540 -0.5217 -0.3879
18055TIP3    H175580   6.053   5.493   4.295 -0.0576 -0.1817 -0.3207
18055TIP3    H275581   6.017   5.568   4.421 -0.7069 -0.7011 -0.1920
18056TIP3   OH275582   5.296   3.019  15.683  0.1050  0.6218  0.2266
18056TIP3    H175583   5.381   3.020  15.638  1.2264 -0.4508  2.2188
18056TIP3    H275584   5.231   3.028  15.613  1.7761 -0.6915 -1.5441
18057TIP3   OH275585   1.579   5.175   2.587  0.1924 -0.0323 -0.0021
18057TIP3    H175586   1.608   5.085   2.602  0.6222  0.1428  0.2318
18057TIP3    H275587   1.655   5.228   2.609 -0.7782  0.5400  2.0224
18058TIP3   OH275588   4.343   1.515   0.819  0.1403  0.1226 -0.6210
18058TIP3    H175589   4.269   1.530   0.759 -0.8583 -3.0250 -0.2262
18058TIP3    H275590   4.318   1.561   0.899 -0.2753  1.0714 -1.2701
18059TIP3   OH275591   3.344   1.766   5.161 -0.9506 -0.3697 -0.1865
18059TIP3    H175592   3.293   1.687   5.178 -1.9743  0.3512  0.1764
18059TIP3    H275593   3.355   1.767   5.066  0.8186 -1.9982 -0.0178
18060TIP3   OH275594   4.225   6.076  15.689 -0.7556 -0.1354  0.2072
18060TIP3    H175595   4.277   6.036  15.758 -0.9466 -1.0100 -0.1477
18060TIP3    H275596   4.138   6.037  15.698 -1.2397  0.9896  0.5248
18061TIP3   OH275597   3.819   4.184   3.674  0.0918  0.1627 -0.1222
18061TIP3    H175598   3.745   4.237   3.705 -0.0885 -0.0214 -0.2382
18061TIP3    H275599   3.889   4.202   3.737 -0.9055 -1.8261  1.5981
18062TIP3   OH275600   4.732   5.398  14.554 -0.6252  0.1987 -0.1293
18062TIP3    H175601   4.737   5.324  14.494 -0.0993 -0.1525  0.3390
18062TIP3    H275602   4.705   5.360  14.637 -0.2986  0.5163  0.1278
18063TIP3   OH275603   2.448   6.603   1.004 -0.2740  0.2159 -0.2588
18063TIP3    H175604   2.417   6.514   1.020  1.6327 -0.6926 -1.4473
18063TIP3    H275605   2.368   6.655   0.997 -1.4434 -1.5596 -0.5053
18064TIP3   OH275606   4.972   0.916   0.243  0.0255  0.1401  0.1351
18064TIP3    H175607   5.039   0.847   0.245  2.0611  2.0980  1.8977
18064TIP3    H275608   4.945   0.920   0.152  1.2067 -1.7254 -0.3375
18065TIP3   OH275609   3.358   1.954  15.924 -0.0838 -0.5996 -0.4399
18065TIP3    H175610   3.284   1.895  15.907  0.0933 -0.7306 -0.7527
18065TIP3    H275611   3.414   1.945  15.848 -0.3114  0.3695 -0.7309
18066TIP3   OH275612   3.620   4.457  11.884 -0.0409 -0.6139  0.3659
18066TIP3    H175613   3.570   4.409  11.818  1.0153 -1.2852  0.0377
18066TIP3    H275614   3.703   4.476  11.841  0.1816  0.0436  1.0820
18067TIP3   OH275615   2.225   0.818   5.592 -0.2393  0.0023  0.2907
18067TIP3    H175616   2.283   0.855   5.659 -2.2552  0.3804  1.8740
18067TIP3    H275617   2.200   0.893   5.538  0.1720 -0.0322  0.0531
18068TIP3   OH275618   1.609   5.546  13.755  0.8438 -0.0527 -0.2546
18068TIP3    H175619   1.572   5.597  13.683  1.0595  2.1750  1.1680
18068TIP3    H275620   1.536   5.531  13.815  1.2331  0.4102  0.3438
18069TIP3   OH275621   4.183   6.440   1.781 -0.0262 -0.5697 -0.2389
18069TIP3    H175622   4.152   6.382   1.851 -0.0333 -1.1558 -0.7286
18069TIP3    H275623   4.277   6.427   1.778 -0.1341 -1.1875 -0.9206
18070TIP3   OH275624   3.052   0.868  12.235  0.2333  0.5020 -0.6411
18070TIP3    H175625   3.104   0.881  12.156  0.2080 -0.0558 -0.7550
18070TIP3    H275626   2.961   0.870  12.204  0.2206  0.4116 -0.6113
18071TIP3   OH275627   0.535   6.763   5.241 -0.0429 -0.0084 -0.0189
18071TIP3    H175628   0.612   6.725   5.198 -1.0424 -2.0976  0.0099
18071TIP3    H275629   0.504   6.830   5.179  2.5073  1.7660  0.5289
18072TIP3   OH275630   0.043   2.205   3.887  0.3762 -0.7634  0.4163
18072TIP3    H175631   0.096   2.135   3.925  2.1075  0.5869  0.5601
18072TIP3    H275632   0.107   2.273   3.864 -0.9368 -0.4190 -2.3670
18073TIP3   OH275633   3.483   0.753   5.928 -0.1035  1.2275 -0.2218
18073TIP3    H175634   3.542   0.828   5.933  0.4527  0.7789  0.0093
18073TIP3    H275635   3.436   0.753   6.011  1.6719 -0.1237  0.8106
18074TIP3   OH275636   5.411   4.066  14.936  0.2902  0.5750 -0.4277
18074TIP3    H175637   5.326   4.046  14.977 -1.2402  3.7980 -1.8342
18074TIP3    H275638   5.474   4.059  15.007 -1.2246 -1.3159  0.7890
18075TIP3   OH275639   0.646   5.870   3.048  0.5733  0.7849  0.5732
18075TIP3    H175640   0.639   5.961   3.078  1.5149  1.0564  0.0039
18075TIP3    H275641   0.738   5.847   3.061  0.3252 -0.1123  0.7725
18076TIP3   OH275642   0.680   1.047  11.098 -0.0383  0.5361 -0.0468
18076TIP3    H175643   0.708   1.007  11.180  0.4337  0.9050 -0.0244
18076TIP3    H275644   0.671   0.974  11.037  2.8428  0.5785 -0.5966
18077TIP3   OH275645   0.016   2.960  15.335 -0.0171 -1.0082 -0.2095
18077TIP3    H175646  -0.013   2.893  15.273  0.3714  1.7237 -3.5361
18077TIP3    H275647   0.020   3.040  15.282  1.0787  1.3002  3.2350
18078TIP3   OH275648   6.358   5.338   2.885  0.6191  0.1011 -0.0925
18078TIP3    H175649   6.278   5.297   2.854  0.4209  0.8718 -0.6069
18078TIP3    H275650   6.428   5.291   2.839  0.4948 -0.8564  0.6753
18079TIP3   OH275651   5.912   5.556  11.695  0.0248  0.0362  0.2195
18079TIP3    H175652   5.938   5.464  11.690  1.0948  0.2200  1.9818
18079TIP3    H275653   5.817   5.554  11.705 -0.0112 -0.8590 -0.2839
18080TIP3   OH275654   1.140   3.370   4.638  0.2161  0.3404 -0.1508
18080TIP3    H175655   1.048   3.345   4.638  0.9131 -2.4390  0.0658
18080TIP3    H275656   1.163   3.377   4.731  0.3846  0.3656 -0.1942
18081TIP3   OH275657   4.896   6.017   1.783  0.1562  0.2005 -0.1930
18081TIP3    H175658   4.902   6.110   1.763  0.5536  0.1910 -0.1335
18081TIP3    H275659   4.845   5.979   1.712  3.1682 -0.1556 -2.2818
18082TIP3   OH275660   3.445   4.399  15.793 -0.1722 -0.0303  0.6565
18082TIP3    H175661   3.444   4.310  15.830  0.2190 -0.4611 -0.3529
18082TIP3    H275662   3.450   4.456  15.869  1.5670 -0.9325  1.2537
18083TIP3   OH275663   3.350   2.476  14.291  0.3489  0.1522 -0.3901
18083TIP3    H175664   3.430   2.423  14.287  0.5295  0.5310 -2.1580
18083TIP3    H275665   3.294   2.441  14.221 -0.4688  0.8055 -0.0781
18084TIP3   OH275666   4.501   5.589  14.560 -0.0894 -0.5372 -0.2463
18084TIP3    H175667   4.488   5.530  14.634 -0.8270 -0.7030 -0.4991
18084TIP3    H275668   4.590   5.623  14.571 -0.4035 -0.0901  1.0544
18085TIP3   OH275669   4.577   6.638   2.300  0.0731  0.3497 -0.0669
18085TIP3    H175670   4.598   6.554   2.342  1.0524  0.3084 -0.6190
18085TIP3    H275671   4.662   6.675   2.276 -0.3706  1.3233 -0.1840
18086TIP3   OH275672   3.009   2.205   0.604  0.4011 -0.1591 -0.5346
18086TIP3    H175673   3.073   2.177   0.538  2.1031 -0.1668  1.0931
18086TIP3    H275674   3.055   2.194   0.687 -1.3941  0.7918  0.5838
18087TIP3   OH275675   5.619   4.839  11.058  0.0149 -0.5909  0.2964
18087TIP3    H175676   5.669   4.852  10.978 -0.7003 -1.8854 -0.3556
18087TIP3    H275677   5.625   4.745  11.076  0.1800 -0.3189  1.7754
18088TIP3   OH275678   0.175   5.240   2.246 -0.3964 -0.3576  0.4973
18088TIP3    H175679   0.228   5.171   2.285  1.3105  0.7305  0.1531
18088TIP3    H275680   0.234   5.315   2.238 -2.2485  1.2252  1.0281
18089TIP3   OH275681   2.235   5.965  16.275  0.2441  0.5628 -0.3308
18089TIP3    H175682   2.219   6.040  16.333  2.3058  1.3006 -0.6724
18089TIP3    H275683   2.329   5.968  16.258  0.2143 -1.6798 -0.9646
18090TIP3   OH275684   3.518   6.512  11.947 -0.2555  0.2660  0.2133
18090TIP3    H175685   3.439   6.553  11.911 -1.6160 -1.0988  1.5643
18090TIP3    H275686   3.581   6.514  11.875 -1.9525  0.1854 -1.3079
18091TIP3   OH275687   0.036   5.864  12.033 -0.5149  0.3970  0.0478
18091TIP3    H175688   0.088   5.943  12.018 -2.2835  2.0144  2.1740
18091TIP3    H275689   0.082   5.818  12.104 -0.3558  0.2996 -0.1166
18092TIP3   OH275690   5.022   3.732  17.086 -0.2244  0.2507  0.5508
18092TIP3    H175691   4.970   3.655  17.062  1.8998 -1.8585  2.4746
18092TIP3    H275692   5.112   3.708  17.064  0.5847  1.8022  2.0601
18093TIP3   OH275693   6.280   1.466  15.325 -0.4374 -0.1857  0.2311
18093TIP3    H175694   6.230   1.389  15.298 -1.5605  0.0572  1.5581
18093TIP3    H275695   6.214   1.531  15.348  0.4843  1.3811 -1.3320
18094TIP3   OH275696   3.130   3.490  16.353  0.5303  0.4590 -0.5672
18094TIP3    H175697   3.131   3.394  16.354 -1.1662  0.4294 -0.2568
18094TIP3    H275698   3.146   3.515  16.444  0.9738  0.4775 -0.6480
18095TIP3   OH275699   0.635   5.326   3.904  0.1663 -0.7847  0.8419
18095TIP3    H175700   0.699   5.280   3.850 -0.4745  0.5492 -1.1270
18095TIP3    H275701   0.673   5.327   3.991  1.6238 -2.2626  0.2466
18096TIP3   OH275702   2.310   6.694   4.306 -0.2758  0.5926 -0.8574
18096TIP3    H175703   2.314   6.780   4.265 -2.1955  1.1419  0.0461
18096TIP3    H275704   2.279   6.635   4.236 -1.2580  1.0843 -0.8417
18097TIP3   OH275705   2.699   0.847   4.052  0.4129  0.1733  0.3515
18097TIP3    H175706   2.761   0.779   4.078  0.7007  0.4373  0.3505
18097TIP3    H275707   2.736   0.884   3.972 -1.0415 -1.4174 -1.1208
18098TIP3   OH275708   2.311   6.067   1.729 -0.3346 -0.4635 -0.6992
18098TIP3    H175709   2.282   5.978   1.751 -0.9864  0.2675  1.5352
18098TIP3    H275710   2.333   6.106   1.814  1.1460  1.1034 -1.7855
18099TIP3   OH275711   3.208   2.896   3.952 -0.3251 -0.3911 -0.3647
18099TIP3    H175712   3.266   2.821   3.941  0.0984 -0.5790  2.6959
18099TIP3    H275713   3.265   2.973   3.946  0.3260 -0.5831  2.8539
18100TIP3   OH275714   4.219   5.080  16.953 -0.2572  0.4572 -0.2756
18100TIP3    H175715   4.304   5.101  16.915  0.0511  1.9088  1.1128
18100TIP3    H275716   4.156   5.126  16.897 -0.0707  0.0262 -0.8438
18101TIP3   OH275717   2.451   4.225   1.266  0.0146  0.1913  0.1151
18101TIP3    H175718   2.364   4.262   1.247  0.4819  1.8137  1.0450
18101TIP3    H275719   2.512   4.291   1.237  0.9449 -0.7370 -0.0635
18102TIP3   OH275720   3.529   2.494   6.107 -0.3067  0.1640  0.1381
18102TIP3    H175721   3.616   2.487   6.145 -0.4660 -2.0712  0.1282
18102TIP3    H275722   3.532   2.575   6.056  1.6916  0.2112  0.2943
18103TIP3   OH275723   1.672   1.545  16.410 -0.4383  0.2646 -0.1225
18103TIP3    H175724   1.586   1.563  16.447  0.4808  0.8521  1.7725
18103TIP3    H275725   1.655   1.487  16.336 -2.4036 -0.0866  0.5908
18104TIP3   OH275726   3.293   0.899   0.376 -0.7322 -0.4220  0.3650
18104TIP3    H175727   3.385   0.871   0.371 -0.9768 -1.0790 -0.5309
18104TIP3    H275728   3.253   0.865   0.296 -1.7109  0.0578  0.6420
18105TIP3   OH275729   0.749   3.870   2.164  0.3206  0.2721  0.2329
18105TIP3    H175730   0.796   3.912   2.236 -0.4175  0.7115  0.4627
18105TIP3    H275731   0.661   3.909   2.166  0.0789 -0.2191 -0.4658
18106TIP3   OH275732   5.869   5.535   4.707 -0.1179 -0.5034 -0.0153
18106TIP3    H175733   5.937   5.601   4.693  1.5237 -2.0864  0.2571
18106TIP3    H275734   5.820   5.534   4.624  0.3629  0.4509 -0.3270
18107TIP3   OH275735   6.763   0.459  12.560 -0.2387  0.0283 -0.1861
18107TIP3    H175736   6.752   0.551  12.536 -1.0887  0.0636  0.3252
18107TIP3    H275737   6.681   0.436  12.604  0.7798 -0.3807  1.5332
18108TIP3   OH275738   2.717   3.085  13.324 -0.5231 -0.3856 -0.6826
18108TIP3    H175739   2.648   3.030  13.360 -0.4383  0.6439  1.1362
18108TIP3    H275740   2.790   3.074  13.385 -0.7220  2.1968  0.0938
18109TIP3   OH275741   6.785   6.751  11.597  0.3690 -0.5167 -0.2284
18109TIP3    H175742   6.872   6.750  11.557  0.1885  0.2777 -0.6474
18109TIP3    H275743   6.780   6.669  11.647  1.1857 -0.7715 -0.5683
18110TIP3   OH275744   5.375   3.746  14.876 -0.3627 -0.1230 -0.6968
18110TIP3    H175745   5.284   3.733  14.903 -0.7131 -0.5437 -2.0147
18110TIP3    H275746   5.390   3.840  14.883 -0.4546 -0.2166  0.8724
18111TIP3   OH275747   3.768   6.109   3.295 -0.1560 -0.8215 -0.6132
18111TIP3    H175748   3.677   6.138   3.289 -0.1085 -0.6664 -0.5837
18111TIP3    H275749   3.805   6.129   3.209  0.6738  1.8898  0.3204
18112TIP3   OH275750   0.117   5.681  10.574 -0.2506 -0.3512  0.6064
18112TIP3    H175751   0.140   5.592  10.601  2.4431  0.0069 -0.3666
18112TIP3    H275752   0.141   5.685  10.481  0.4138  1.6472  0.8458
18113TIP3   OH275753   2.700   1.753   0.498 -0.1765 -0.0624 -0.2083
18113TIP3    H175754   2.751   1.833   0.513  0.6393 -0.1305 -2.4433
18113TIP3    H275755   2.609   1.782   0.501  0.0806  0.7069  0.3009
18114TIP3   OH275756   1.670   3.486   2.285  0.3287  0.5294 -0.0235
18114TIP3    H175757   1.602   3.465   2.221  0.7215 -0.4663 -0.1281
18114TIP3    H275758   1.725   3.408   2.287 -0.3092  0.1084  2.3749
18115TIP3   OH275759   5.087   3.610   4.953 -0.4071  0.6142  0.3151
18115TIP3    H175760   5.104   3.664   4.875  1.9959 -0.8511 -0.2518
18115TIP3    H275761   5.155   3.637   5.015  1.4307 -2.2834 -0.3109
18116TIP3   OH275762   4.104   5.821  17.169  0.2371  0.6475 -0.6048
18116TIP3    H175763   4.143   5.802  17.084 -1.3580 -0.2789 -1.1507
18116TIP3    H275764   4.013   5.845  17.149 -0.2234  0.1499  0.8455
18117TIP3   OH275765   0.745   3.062  10.976 -0.4751  0.4691  0.0174
18117TIP3    H175766   0.758   3.152  11.008  0.6149  0.4201 -0.2620
18117TIP3    H275767   0.769   3.066  10.883 -0.4008 -0.1200  0.0081
18118TIP3   OH275768   4.745   6.310   4.829 -0.0429 -0.0127  0.3156
18118TIP3    H175769   4.808   6.266   4.886  0.5364 -1.1874 -1.2166
18118TIP3    H275770   4.661   6.297   4.872  0.5538  0.2252  1.5661
18119TIP3   OH275771   0.719   0.538  14.186  0.4713  0.3513 -0.3973
18119TIP3    H175772   0.625   0.526  14.173  0.8855  0.1652 -3.6159
18119TIP3    H275773   0.729   0.631  14.204 -0.3418  0.3735 -0.0488
18120TIP3   OH275774   5.824   2.386   1.645  0.3666 -0.0862 -0.3565
18120TIP3    H175775   5.901   2.330   1.631  0.0428 -0.1008 -2.2253
18120TIP3    H275776   5.810   2.428   1.560 -0.4282  1.5232  0.5537
18121TIP3   OH275777   5.223   4.404  12.627  0.3369  0.1093 -0.3249
18121TIP3    H175778   5.205   4.342  12.556  1.0251 -0.2814 -0.1722
18121TIP3    H275779   5.289   4.463  12.590  0.3016  0.2307 -0.1891
18122TIP3   OH275780   5.443   3.726   4.394  0.0109 -0.3324 -0.0897
18122TIP3    H175781   5.517   3.673   4.424 -0.2721 -1.4217 -1.2558
18122TIP3    H275782   5.449   3.723   4.298 -0.4295  1.1654 -0.1700
18123TIP3   OH275783   3.140   0.147  12.153 -0.2783  0.8170  0.7238
18123TIP3    H175784   3.081   0.135  12.079 -0.9714 -0.9626  1.5400
18123TIP3    H275785   3.224   0.114  12.122 -0.0788  1.8711  0.1004
18124TIP3   OH275786   5.627   1.535   5.234 -0.2491 -0.1131  0.4894
18124TIP3    H175787   5.554   1.595   5.220 -1.1252 -1.1610  0.5007
18124TIP3    H275788   5.643   1.495   5.148  1.6616  1.5803 -0.0014
18125TIP3   OH275789   4.025   0.004   3.249 -0.1437 -0.3758  0.2271
18125TIP3    H175790   4.067   0.011   3.334  1.4637  0.4429 -0.6292
18125TIP3    H275791   3.972  -0.076   3.255 -1.5631  0.7047  2.6256
18126TIP3   OH275792   6.509   5.938  12.418  0.3670 -0.1748  0.3946
18126TIP3    H175793   6.546   5.927  12.330 -0.8715 -0.7137 -0.0720
18126TIP3    H275794   6.549   6.017  12.452  0.5330  0.2723 -0.8316
18127TIP3   OH275795   1.962   0.251   4.014 -0.3745 -0.0529 -0.0465
18127TIP3    H175796   1.995   0.334   4.048 -0.1278 -0.3239  0.3801
18127TIP3    H275797   1.973   0.258   3.919 -0.5775  0.4961 -0.0337
18128TIP3   OH275798   5.406   1.163   2.432  0.1951  0.3496  0.1676
18128TIP3    H175799   5.467   1.105   2.386  0.1433  0.8966 -0.6012
18128TIP3    H275800   5.461   1.211   2.494  0.1773 -0.7973  1.0871
18129TIP3   OH275801   6.558   0.639  16.847 -0.0907 -0.4030 -0.1011
18129TIP3    H175802   6.483   0.581  16.859 -0.2350  0.2803  2.6138
18129TIP3    H275803   6.523   0.727  16.863  0.7202  0.2048 -1.5276
18130TIP3   OH275804   1.116   5.516  15.328 -0.0659 -0.3885  0.1037
18130TIP3    H175805   1.192   5.459  15.342  0.2295 -0.1463 -0.5445
18130TIP3    H275806   1.144   5.579  15.262 -1.3715 -1.3145 -1.3430
18131TIP3   OH275807   5.510   0.033   5.009 -0.0133 -0.0088 -0.3064
18131TIP3    H175808   5.415   0.023   4.998 -0.1639 -0.4951  1.3071
18131TIP3    H275809   5.536  -0.045   5.059  0.9984  0.8633  0.5529
18132TIP3   OH275810   2.754   1.231  11.888 -0.0935 -0.1461 -0.7820
18132TIP3    H175811   2.807   1.187  11.955  1.1936 -0.0552 -1.7122
18132TIP3    H275812   2.699   1.161  11.852 -0.3278 -0.3305 -0.0793
18133TIP3   OH275813   4.663   5.548  14.917 -0.2422  0.0714 -0.0411
18133TIP3    H175814   4.612   5.486  14.865  0.2071 -1.0932  0.8635
18133TIP3    H275815   4.743   5.500  14.938  0.6854  1.4376 -0.4132
18134TIP3   OH275816   6.337   2.335  14.577 -0.2060  0.4952 -0.3088
18134TIP3    H175817   6.426   2.366  14.597 -0.2588  1.3730 -1.3801
18134TIP3    H275818   6.339   2.242  14.600  1.1572  0.3718 -0.8332
18135TIP3   OH275819   6.734   4.633   1.556 -0.3604 -0.4098  0.0301
18135TIP3    H175820   6.796   4.574   1.599  1.3883  0.6481 -1.0084
18135TIP3    H275821   6.752   4.623   1.463 -1.1480  0.5915 -0.2344
18136TIP3   OH275822   6.787   5.037   5.769  0.9780 -0.6226  0.8257
18136TIP3    H175823   6.716   5.049   5.833  0.0543  1.1403 -0.4739
18136TIP3    H275824   6.744   4.996   5.694  1.7269 -1.1955  0.7025
18137TIP3   OH275825   2.907   1.767  11.703 -0.3350  0.2458  0.2227
18137TIP3    H175826   2.937   1.734  11.788  2.0990  0.6553 -0.4481
18137TIP3    H275827   2.867   1.691  11.661 -1.7595  0.0892  1.8063
18138TIP3   OH275828   2.206   4.347  11.889  0.1350 -0.4742  0.7184
18138TIP3    H175829   2.212   4.260  11.929 -1.6788 -1.4148 -0.9789
18138TIP3    H275830   2.170   4.331  11.802  2.4586  1.7120 -0.7146
18139TIP3   OH275831   2.571   4.214   4.396  0.0832 -0.4359  0.1098
18139TIP3    H175832   2.552   4.150   4.327 -0.0508 -1.9243  1.4938
18139TIP3    H275833   2.654   4.185   4.433  1.5279  1.9183 -1.1822
18140TIP3   OH275834   5.409   3.174   0.509  0.6927  0.2481 -0.2763
18140TIP3    H175835   5.316   3.150   0.502  0.8546 -0.0593 -1.3635
18140TIP3    H275836   5.431   3.154   0.600 -0.1606 -0.2122 -0.1568
18141TIP3   OH275837   6.325   0.099  11.615 -0.0717  0.4441 -0.6809
18141TIP3    H175838   6.386   0.133  11.550 -0.6563  1.9184 -0.4977
18141TIP3    H275839   6.244   0.147  11.599 -0.7293 -0.4026  0.0390
18142TIP3   OH275840   4.532   1.485   1.533 -0.2512  0.0374 -0.0422
18142TIP3    H175841   4.605   1.471   1.472  0.9808  2.1550  0.8764
18142TIP3    H275842   4.510   1.397   1.564 -0.4351 -1.0054 -2.9536
18143TIP3   OH275843   0.278   0.400   2.863 -0.4018  1.0720  0.0060
18143TIP3    H175844   0.185   0.414   2.844 -0.8314  2.4170  2.8423
18143TIP3    H275845   0.288   0.423   2.955  2.8410  1.3538 -0.3293
18144TIP3   OH275846   0.059   6.268   0.774 -1.0147  0.3140  0.3150
18144TIP3    H175847  -0.002   6.219   0.829 -0.1102  0.5079  1.5040
18144TIP3    H275848   0.105   6.201   0.724 -1.8644  0.1393 -0.2336
18145TIP3   OH275849   0.035   5.789  15.826  0.4026 -0.1714  0.4906
18145TIP3    H175850   0.062   5.703  15.792  0.9900 -0.4067  1.5121
18145TIP3    H275851   0.005   5.837  15.749  2.5958 -0.3486 -0.5276
18146TIP3   OH275852   3.830   5.902   1.572 -0.6190  1.0335  0.3133
18146TIP3    H175853   3.828   5.846   1.650  0.1435  1.9926  1.0311
18146TIP3    H275854   3.778   5.854   1.507  0.7083 -0.9165  0.6391
18147TIP3   OH275855   5.089   6.731  12.367 -0.5673 -0.1403 -0.2172
18147TIP3    H175856   5.151   6.659  12.378 -1.6998 -1.1811 -0.5807
18147TIP3    H275857   5.006   6.697  12.401 -1.4409  0.4919 -1.6572
18148TIP3   OH275858   1.889   4.522   6.172  0.2761 -0.6438 -0.4416
18148TIP3    H175859   1.925   4.609   6.160 -0.5722  0.0147  1.5896
18148TIP3    H275860   1.956   4.474   6.221  0.7003 -1.1238 -1.4697
18149TIP3   OH275861   1.682   5.983   5.685  0.3372  0.3604 -0.3364
18149TIP3    H175862   1.690   5.972   5.591  0.8140 -1.5760 -0.0918
18149TIP3    H275863   1.593   6.018   5.698  0.6394  1.6215 -1.5475
18150TIP3   OH275864   1.043   0.671  15.120 -0.1430  0.2503 -0.1027
18150TIP3    H175865   1.060   0.579  15.143  0.4401  0.2495 -0.5145
18150TIP3    H275866   1.049   0.718  15.203  0.1375 -0.0045  0.0236
18151TIP3   OH275867   0.753   5.426  11.637 -0.2958 -0.1174  0.1419
18151TIP3    H175868   0.750   5.458  11.727 -2.1956  1.1957 -0.3565
18151TIP3    H275869   0.704   5.344  11.639 -1.2160  0.4247  0.1196
18152TIP3   OH275870   1.779   1.693  10.959 -0.9497  0.3184  0.1134
18152TIP3    H175871   1.834   1.746  11.016  0.4838 -1.1520  0.1366
18152TIP3    H275872   1.783   1.737  10.874 -1.1717  1.1946  0.5523
18153TIP3   OH275873   0.630   1.078  13.625 -0.5034 -0.2114  0.3920
18153TIP3    H175874   0.698   1.061  13.691  0.6868 -0.1569 -0.8065
18153TIP3    H275875   0.610   1.171  13.636  1.1650  0.2939 -0.6709
18154TIP3   OH275876   2.743   0.897  11.313 -0.4347 -0.0265  0.0309
18154TIP3    H175877   2.667   0.874  11.260  0.8765 -1.1235 -1.4215
18154TIP3    H275878   2.776   0.814  11.346  1.5111  0.1678 -1.3156
18155TIP3   OH275879   3.849   3.889   3.665  0.6411 -0.1909  0.0516
18155TIP3    H175880   3.787   3.871   3.594  0.0404  0.8211  0.3078
18155TIP3    H275881   3.863   3.983   3.661  3.0689 -0.5311 -0.7294
18156TIP3   OH275882   0.758   2.617   4.625  0.2628 -0.2197 -0.5032
18156TIP3    H175883   0.680   2.618   4.681  0.9115  0.8099  0.4043
18156TIP3    H275884   0.725   2.643   4.538 -0.0666  2.3498  0.3541
18157TIP3   OH275885   4.719   1.848  16.460 -0.1017  0.0688 -0.1799
18157TIP3    H175886   4.785   1.852  16.530  0.2864 -1.1953 -0.4758
18157TIP3    H275887   4.752   1.782  16.399 -1.7869 -0.8025 -0.1761
18158TIP3   OH275888   2.003   3.418   2.046  0.1387 -0.0473 -0.2017
18158TIP3    H175889   2.082   3.461   2.013  0.4474 -1.4562 -1.3563
18158TIP3    H275890   2.024   3.324   2.044 -2.2261 -0.5915 -2.3941
18159TIP3   OH275891   5.900   5.802   5.043  0.4121 -0.4212 -0.0501
18159TIP3    H175892   5.964   5.807   4.973  0.4599 -1.0117 -0.0568
18159TIP3    H275893   5.875   5.709   5.045  0.0234 -0.3075  0.3618
18160TIP3   OH275894   3.527   3.657   2.870  0.0192  0.0832  0.6041
18160TIP3    H175895   3.528   3.743   2.913 -0.3189 -0.1097  1.0025
18160TIP3    H275896   3.600   3.609   2.908  1.0717  0.6812 -0.6332
18161TIP3   OH275897   2.304   4.499  13.760  0.3934 -0.2137  0.5405
18161TIP3    H175898   2.249   4.572  13.731  0.2856 -0.5200 -0.0138
18161TIP3    H275899   2.310   4.510  13.855 -0.0540  0.2183  0.5173
18162TIP3   OH275900   2.591   3.991   6.531 -0.3065  0.0966 -0.2943
18162TIP3    H175901   2.529   3.951   6.470 -0.2136  0.2165 -0.4662
18162TIP3    H275902   2.538   4.011   6.609 -0.3701 -0.2964 -0.2317
18163TIP3   OH275903   4.817   5.746  14.038  0.0844 -0.1201  0.7814
18163TIP3    H175904   4.747   5.740  14.103  0.0797 -0.2651  0.7648
18163TIP3    H275905   4.867   5.823  14.063 -0.8829  0.7721 -0.0105
18164TIP3   OH275906   6.065   1.311  15.265 -0.9972 -0.1456 -0.5743
18164TIP3    H175907   5.978   1.282  15.238 -0.9135  1.0160 -2.1097
18164TIP3    H275908   6.125   1.264  15.207 -0.6304 -0.2693 -0.1026
18165TIP3   OH275909   5.285   3.296   0.811  0.5517  0.0943 -0.3521
18165TIP3    H175910   5.276   3.202   0.796  0.2105  0.0955 -0.1435
18165TIP3    H275911   5.196   3.328   0.819  0.5014  0.9835 -3.7275
18166TIP3   OH275912   0.778   0.530   3.059 -0.5829 -0.5740 -0.2031
18166TIP3    H175913   0.718   0.542   3.132 -0.9455 -0.4717 -0.5129
18166TIP3    H275914   0.787   0.617   3.021  0.7383 -0.3535  0.5921
18167TIP3   OH275915   4.624   6.437   2.521  0.3989 -0.0123  0.1340
18167TIP3    H175916   4.711   6.411   2.552  0.4731 -0.6891 -0.6229
18167TIP3    H275917   4.613   6.526   2.552  1.0286 -0.2097  0.9429
18168TIP3   OH275918   1.627   0.089   2.724 -0.5140  0.6220 -0.0693
18168TIP3    H175919   1.651   0.140   2.801 -2.6713  0.6342  0.6361
18168TIP3    H275920   1.695   0.022   2.717  0.7030  1.7430  0.7493
18169TIP3   OH275921   0.804   3.605   6.899  0.0041  0.5200  0.2807
18169TIP3    H175922   0.738   3.648   6.845 -0.7531  0.2895  1.0242
18169TIP3    H275923   0.771   3.516   6.912  0.8879  0.1297 -0.0853
18170TIP3   OH275924   3.445   5.486  15.409 -0.2878  0.1084  0.0186
18170TIP3    H175925   3.353   5.462  15.397 -0.3921  0.7833 -0.5499
18170TIP3    H275926   3.442   5.573  15.448  0.1301  0.7712 -1.4271
18171TIP3   OH275927   2.119   6.071  11.771  0.0006  0.2267 -0.0969
18171TIP3    H175928   2.043   6.016  11.756 -0.7985  0.8456  1.6136
18171TIP3    H275929   2.192   6.022  11.733 -1.0516 -0.9506 -0.6141
18172TIP3   OH275930   2.448   3.071   5.770 -0.0360 -0.4939  0.1608
18172TIP3    H175931   2.427   3.141   5.709  0.4625  0.4405  1.0451
18172TIP3    H275932   2.431   2.990   5.721  0.2376  0.2373 -1.1616
18173TIP3   OH275933   2.732   5.622   2.496 -0.1078 -0.1819  0.3108
18173TIP3    H175934   2.643   5.605   2.464  0.0923 -1.0330  0.1979
18173TIP3    H275935   2.788   5.568   2.440  0.5162  0.6420  0.1400
18174TIP3   OH275936   1.651   1.521   0.975 -0.1918 -0.0789  0.1114
18174TIP3    H175937   1.595   1.539   1.050  1.6914  1.4612  1.1959
18174TIP3    H275938   1.699   1.602   0.960  0.9075 -0.9904 -1.5121
18175TIP3   OH275939   4.877   0.314   1.393 -0.3792  0.6312 -0.2203
18175TIP3    H175940   4.818   0.262   1.447  0.1197  0.3899  0.0980
18175TIP3    H275941   4.840   0.403   1.396 -1.4872  0.2119 -1.1457
18176TIP3   OH275942   4.949   2.486   2.990  0.6623  0.3158 -0.2060
18176TIP3    H175943   4.891   2.460   3.061 -0.7774 -0.1337 -1.5135
18176TIP3    H275944   4.986   2.404   2.957  1.3738  0.5261  0.0807
18177TIP3   OH275945   1.572   0.089   1.070  0.4602 -0.0154 -0.0707
18177TIP3    H175946   1.610   0.169   1.107 -2.7095  1.4441  0.1582
18177TIP3    H275947   1.522   0.119   0.995  0.1711 -1.9611 -0.6802
18178TIP3   OH275948   5.168   0.279   1.420  0.0563 -0.0238 -0.0502
18178TIP3    H175949   5.221   0.282   1.340  1.8523  0.2861  1.1224
18178TIP3    H275950   5.083   0.316   1.394  0.4005 -0.5315 -1.9607
18179TIP3   OH275951   3.783   4.703   1.040 -0.4206  0.4044  0.0160
18179TIP3    H175952   3.713   4.743   1.091 -0.5817  0.0903  0.0427
18179TIP3    H275953   3.795   4.616   1.078 -1.2869 -0.2451 -1.1685
18180TIP3   OH275954   4.909   3.952   5.457  0.1299  0.5836  0.2823
18180TIP3    H175955   4.870   4.024   5.506  0.1812  1.2351 -0.6295
18180TIP3    H275956   4.867   3.956   5.371  0.3100 -0.3217  0.1526
18181TIP3   OH275957   0.837   1.403   5.599 -0.1852  0.2895 -0.0026
18181TIP3    H175958   0.762   1.427   5.653  0.2098  0.0357  0.6604
18181TIP3    H275959   0.881   1.486   5.581  0.9070  0.1461  1.8881
18182TIP3   OH275960   1.802   2.257   4.148 -0.1720  0.3338 -0.5121
18182TIP3    H175961   1.873   2.226   4.204 -0.0052  1.2809 -0.1865
18182TIP3    H275962   1.811   2.206   4.067  0.3587 -0.1496 -0.1477
18183TIP3   OH275963   5.866   0.643   5.910 -0.4528 -0.5343 -0.1707
18183TIP3    H175964   5.787   0.662   5.959 -0.2201 -1.0026  0.3816
18183TIP3    H275965   5.884   0.551   5.927  0.2710 -0.4016 -0.2028
18184TIP3   OH275966   3.376   4.439  11.659  0.1976 -0.1430 -0.5156
18184TIP3    H175967   3.285   4.440  11.690  0.5094 -0.7352  0.4437
18184TIP3    H275968   3.378   4.372  11.591 -0.1232 -0.0011 -0.6663
18185TIP3   OH275969   5.696   0.345   1.345  0.5240  0.7076  0.2343
18185TIP3    H175970   5.737   0.267   1.308 -3.4754 -1.4112 -0.0254
18185TIP3    H275971   5.677   0.322   1.436 -0.2533  1.5032  0.2830
18186TIP3   OH275972   1.509   0.947   5.011  0.5689 -0.0843  0.5978
18186TIP3    H175973   1.489   0.882   5.078  0.6363  1.6205  2.3206
18186TIP3    H275974   1.597   0.978   5.033 -0.2806  2.0861  1.0757
18187TIP3   OH275975   6.639   1.399  14.680 -0.0895  0.4713  0.5504
18187TIP3    H175976   6.674   1.311  14.667  1.6593  1.2472 -0.1601
18187TIP3    H275977   6.558   1.386  14.729  0.5341 -1.4684  1.0990
18188TIP3   OH275978   1.691   3.215  12.859  0.8985  0.7717 -0.4060
18188TIP3    H175979   1.739   3.155  12.915 -0.4374  0.8756  0.8893
18188TIP3    H275980   1.746   3.292  12.852  1.0386  0.7830  0.8395
18189TIP3   OH275981   2.411   3.735  13.887 -0.0688  0.1236  0.3011
18189TIP3    H175982   2.485   3.783  13.848 -0.8748  0.4896 -0.8232
18189TIP3    H275983   2.423   3.744  13.981  2.1142 -1.0555  0.1621
18190TIP3   OH275984   1.811   0.462   0.386 -0.4816  0.1108 -0.5471
18190TIP3    H175985   1.797   0.368   0.378  0.9579 -0.1662  0.0355
18190TIP3    H275986   1.850   0.488   0.303  1.8080 -0.3429  0.3467
18191TIP3   OH275987   4.441   1.782   4.789  0.1281 -0.1202  0.6454
18191TIP3    H175988   4.492   1.858   4.761  0.4025 -0.5862 -0.1366
18191TIP3    H275989   4.428   1.794   4.883  0.0009  0.9925  0.4824
18192TIP3   OH275990   0.717   0.776  16.755 -0.1925 -0.5707  0.2592
18192TIP3    H175991   0.719   0.680  16.763 -0.0487 -0.5019  1.0637
18192TIP3    H275992   0.792   0.797  16.700  1.7965 -0.6554  2.8729
18193TIP3   OH275993   0.733   2.643  14.527 -0.2034  0.3716 -0.3434
18193TIP3    H175994   0.770   2.555  14.535  1.3191  1.0012 -0.3946
18193TIP3    H275995   0.706   2.666  14.615  1.4433  0.7362  0.0761
18194TIP3   OH275996   1.627   3.373  11.720  0.0485 -1.1531 -0.1390
18194TIP3    H175997   1.671   3.404  11.641 -2.2440  1.4012 -0.5135
18194TIP3    H275998   1.588   3.289  11.695  0.9406 -1.2807 -1.1331
18195TIP3   OH275999   0.582   2.776  14.317  0.2449  0.3659  0.2891
18195TIP3    H176000   0.617   2.727  14.391  0.5984 -0.1798 -0.2443
18195TIP3    H276001   0.537   2.851  14.357 -1.7758 -1.2834  1.2143
18196TIP3   OH276002   3.433   2.995   1.083 -0.0157 -0.1202 -0.1192
18196TIP3    H176003   3.377   2.939   1.029 -0.5781  1.8109 -1.5747
18196TIP3    H276004   3.372   3.046   1.136  0.4991 -0.8316  1.2006
18197TIP3   OH276005   3.535   3.943  16.571 -0.1255 -0.3733 -0.4065
18197TIP3    H176006   3.506   3.852  16.562  0.7892 -0.6970 -0.0543
18197TIP3    H276007   3.587   3.960  16.493  2.5693 -1.2303  1.1616
18198TIP3   OH276008   2.232   1.908   5.424  0.2530 -0.0864 -0.2123
18198TIP3    H176009   2.215   1.955   5.506 -0.2949 -0.0701 -0.3373
18198TIP3    H276010   2.178   1.952   5.359 -1.7168 -2.0443  0.0313
18199TIP3   OH276011   0.642   2.428   3.686 -0.1363 -0.2291 -0.0482
18199TIP3    H176012   0.642   2.470   3.772 -1.2418  0.6762 -0.4888
18199TIP3    H276013   0.569   2.366   3.690  1.3126 -1.9379  0.5036
18200TIP3   OH276014   4.824   5.121  12.428  0.5162 -0.1012 -0.5107
18200TIP3    H176015   4.808   5.211  12.457 -2.9259 -0.6859 -0.3957
18200TIP3    H276016   4.889   5.087  12.489  1.2484  2.0355 -0.0685
18201TIP3   OH276017   2.072   1.622   2.225  0.0598  0.1193  0.2476
18201TIP3    H176018   2.165   1.640   2.213  0.1462 -1.0395 -0.9514
18201TIP3    H276019   2.070   1.539   2.271 -0.3731 -1.4149 -2.4321
18202TIP3   OH276020   6.721   2.074   3.660  0.2880  0.0655 -0.1864
18202TIP3    H176021   6.759   2.101   3.743 -0.6698  0.4825  0.1228
18202TIP3    H276022   6.674   1.993   3.680 -1.9333  1.4061  0.2205
18203TIP3   OH276023   6.538   0.862  15.099 -0.5248 -0.1011 -0.1367
18203TIP3    H176024   6.529   0.797  15.169  1.4414  0.0887  0.3154
18203TIP3    H276025   6.500   0.942  15.136 -0.3856 -0.2623  0.3632
18204TIP3   OH276026   4.389   2.424  12.750  0.0951  0.4461 -0.3840
18204TIP3    H176027   4.295   2.429  12.729  0.4567  0.6510 -1.9565
18204TIP3    H276028   4.432   2.410  12.666  1.5739  1.4291  0.1903
18205TIP3   OH276029   0.700   5.744  13.723  0.6263  0.3459  1.4404
18205TIP3    H176030   0.654   5.749  13.639  1.7524 -0.2297  0.7827
18205TIP3    H276031   0.711   5.836  13.749  1.4686  0.5826  0.2915
18206TIP3   OH276032   1.429   0.445  14.699  0.3850  0.3620 -0.1400
18206TIP3    H176033   1.465   0.367  14.741  0.4635 -0.0403 -0.9436
18206TIP3    H276034   1.393   0.413  14.616 -1.7619  0.7647  0.6082
18207TIP3   OH276035   0.763   5.761   2.688  0.0752  0.4552  0.2072
18207TIP3    H176036   0.791   5.796   2.604 -0.1546  0.3008  0.0671
18207TIP3    H276037   0.761   5.666   2.675  0.6346  0.3909  0.5667
18208TIP3   OH276038   4.043   6.676   4.127 -0.1266 -0.0985 -0.9858
18208TIP3    H176039   4.109   6.627   4.176 -0.8136 -0.7041 -0.6615
18208TIP3    H276040   3.976   6.699   4.192  0.2943  1.4762 -1.0802
18209TIP3   OH276041   1.311   5.098  14.164 -0.2463 -0.2593  0.2780
18209TIP3    H176042   1.341   5.034  14.100  1.0566  0.2815  0.3319
18209TIP3    H276043   1.218   5.108  14.147 -0.7870 -3.1842  1.1298
18210TIP3   OH276044   2.482   1.655  16.888 -0.3300 -0.7260 -0.7004
18210TIP3    H176045   2.529   1.674  16.807 -2.2572 -0.4214 -1.7845
18210TIP3    H276046   2.427   1.580  16.866 -0.5106 -0.9521  0.4874
18211TIP3   OH276047   2.837   3.384  10.950  0.5570 -0.0903  0.2856
18211TIP3    H176048   2.844   3.408  10.858  2.5560 -0.7863  0.2423
18211TIP3    H276049   2.797   3.297  10.950  0.0739  0.1296  0.1141
18212TIP3   OH276050   6.449   0.483  13.774 -0.3104  0.4648 -0.0010
18212TIP3    H176051   6.370   0.432  13.788  0.3082 -0.4201  0.3406
18212TIP3    H276052   6.516   0.437  13.825  0.5858  0.7707 -0.8874
18213TIP3   OH276053   5.076   3.692   0.993 -0.0727  0.3338  0.0004
18213TIP3    H176054   5.054   3.784   1.005 -0.0420  0.4172 -0.5501
18213TIP3    H276055   5.064   3.652   1.079 -1.3411  0.5963 -0.0518
18214TIP3   OH276056   6.706   5.186  10.510  0.7037  0.1517 -0.1189
18214TIP3    H176057   6.622   5.151  10.537  0.6974 -0.3361 -0.7554
18214TIP3    H276058   6.757   5.110  10.483  0.8054  0.5867 -1.2108
18215TIP3   OH276059   4.163   1.619  13.356  0.5455 -0.2357  0.4889
18215TIP3    H176060   4.118   1.554  13.410 -1.3962  2.2946  2.0129
18215TIP3    H276061   4.115   1.617  13.273  0.0702 -0.3103  0.7612
18216TIP3   OH276062   5.258   1.151  11.042  0.1752  0.0365 -0.6428
18216TIP3    H176063   5.309   1.193  10.974  0.5564 -1.2084 -1.1310
18216TIP3    H276064   5.210   1.081  10.997 -0.7509  0.1818  0.0884
18217TIP3   OH276065   2.073   0.728  16.434 -0.1243  0.0222  0.5004
18217TIP3    H176066   2.027   0.648  16.406 -0.1985  0.0207  0.6282
18217TIP3    H276067   2.138   0.743  16.365 -1.1695  0.7556 -0.3576
18218TIP3   OH276068   0.712   5.508  16.785  0.3226  0.9094 -0.0935
18218TIP3    H176069   0.709   5.572  16.856 -0.8924  2.1079 -1.2042
18218TIP3    H276070   0.786   5.451  16.807 -0.4852  0.8230  2.4932
18219TIP3   OH276071   3.809   4.987  13.261 -0.3425  1.0952  0.3970
18219TIP3    H176072   3.757   5.053  13.217  0.4455  1.1800 -0.4313
18219TIP3    H276073   3.898   5.022  13.260 -0.2634  0.9535  1.7884
18220TIP3   OH276074   4.454   1.391  14.772 -0.6156  0.3820 -1.0153
18220TIP3    H176075   4.450   1.486  14.781 -2.2816  0.2275  0.0863
18220TIP3    H276076   4.411   1.373  14.688 -1.3367  0.5317 -0.6828
18221TIP3   OH276077   3.617   3.380  11.758 -0.2501 -0.3354 -0.5303
18221TIP3    H176078   3.564   3.320  11.811 -0.8152  1.5290  1.1095
18221TIP3    H276079   3.616   3.462  11.808  2.2963  0.4086 -1.6233
18222TIP3   OH276080   5.027   4.987   4.014  0.0555 -0.5210  0.4087
18222TIP3    H176081   4.960   5.056   4.010 -0.2305 -0.8847 -2.9900
18222TIP3    H276082   5.110   5.035   4.011 -0.0510 -0.1670  2.4557
18223TIP3   OH276083   5.448   2.263  11.646 -0.1873 -0.7607 -0.3148
18223TIP3    H176084   5.356   2.239  11.655 -0.9566  1.6270 -1.5444
18223TIP3    H276085   5.451   2.357  11.664  1.9345 -0.7222 -0.7416
18224TIP3   OH276086   2.424   1.389   2.848  0.2661  0.3843 -0.2912
18224TIP3    H176087   2.450   1.470   2.805  1.4615 -0.2294 -0.7327
18224TIP3    H276088   2.489   1.324   2.821  1.1852  0.0274  2.5687
18225TIP3   OH276089   4.682   0.052  14.228 -0.3325 -0.0235  0.0918
18225TIP3    H176090   4.659  -0.031  14.187 -1.2605  0.7645 -1.0415
18225TIP3    H276091   4.734   0.098  14.162 -0.5230  0.6284  0.3839
18226TIP3   OH276092   2.994   2.017   2.886  0.1971  0.3388 -0.1613
18226TIP3    H176093   2.939   2.095   2.881  0.2992  0.5595  1.6460
18226TIP3    H276094   3.083   2.051   2.886  0.2742  0.1297 -0.8317
18227TIP3   OH276095   6.259   2.493  12.925 -0.0411  0.5617 -0.2087
18227TIP3    H176096   6.199   2.501  12.999  0.9672 -0.5709  0.7637
18227TIP3    H276097   6.321   2.424  12.952 -0.2033 -0.5147 -2.4813
18228TIP3   OH276098   1.600   6.748   0.491  0.0289  0.1903  0.1758
18228TIP3    H176099   1.534   6.748   0.422  1.3741 -0.8032 -1.1611
18228TIP3    H276100   1.624   6.656   0.500  0.7536  0.4690  1.0892
18229TIP3   OH276101   4.923   2.570  16.952 -0.4133 -0.4850 -0.1159
18229TIP3    H176102   4.974   2.489  16.951  0.2407 -0.0918  0.5853
18229TIP3    H276103   4.941   2.611  16.868  0.4555 -0.3341  0.1408
18230TIP3   OH276104   5.000   5.780  12.716 -0.2624  0.0834 -0.0737
18230TIP3    H176105   5.071   5.816  12.663 -0.3359  0.4896  0.1077
18230TIP3    H276106   4.930   5.763  12.654  0.0227 -0.4103 -0.2688
18231TIP3   OH276107   5.771   5.926  16.169 -0.0163  0.1367  0.0603
18231TIP3    H176108   5.819   5.910  16.088 -1.3160  1.0907 -0.9353
18231TIP3    H276109   5.838   5.932  16.237  1.2105  0.8090 -1.1937
18232TIP3   OH276110   1.342   6.342  16.207  0.0583  0.6200 -0.3462
18232TIP3    H176111   1.311   6.357  16.117  0.8296 -1.3774 -0.9766
18232TIP3    H276112   1.425   6.296  16.196 -1.0291 -1.8737  1.3976
18233TIP3   OH276113   2.246   1.762   0.773  0.4410 -0.1817 -0.4352
18233TIP3    H176114   2.341   1.751   0.773  0.9221  3.1908 -0.0808
18233TIP3    H276115   2.223   1.770   0.681  0.4607 -1.2746 -0.5368
18234TIP3   OH276116   2.941   4.273  15.546  0.2864  0.0015  0.0774
18234TIP3    H176117   3.022   4.235  15.580  0.9247  0.6048 -0.7359
18234TIP3    H276118   2.935   4.240  15.456  0.9473  1.9058 -0.7051
18235TIP3   OH276119   1.479   5.571  12.979 -0.2695 -0.0521 -0.4278
18235TIP3    H176120   1.448   5.510  12.911 -2.2335 -0.0610  0.4302
18235TIP3    H276121   1.414   5.641  12.979  1.4861  1.6284 -0.7677
18236TIP3   OH276122   5.453   0.670   3.390  0.2222  0.1385 -0.7220
18236TIP3    H176123   5.403   0.653   3.470  1.1004  0.8048 -0.0213
18236TIP3    H276124   5.391   0.713   3.331 -0.4238 -0.3373 -0.4004
18237TIP3   OH276125   0.871   1.403   4.754 -0.0844  0.0477  0.0382
18237TIP3    H176126   0.891   1.325   4.806  1.3099  0.8345  0.7050
18237TIP3    H276127   0.907   1.384   4.667  1.3621  0.4466  0.5418
18238TIP3   OH276128   0.491   3.115   4.188  0.7526 -0.1515 -0.1202
18238TIP3    H176129   0.405   3.113   4.229 -0.3848  0.1453 -2.3701
18238TIP3    H276130   0.485   3.051   4.117  2.0026  0.6714 -1.0030
18239TIP3   OH276131   0.052   1.093   3.669 -0.2324 -0.1082 -0.0882
18239TIP3    H176132   0.061   1.011   3.618 -0.1351 -0.8377  1.0898
18239TIP3    H276133   0.006   1.153   3.610 -1.5381 -1.4573 -0.4782
18240TIP3   OH276134   1.687   0.999  12.463 -0.6141  0.2434 -0.2613
18240TIP3    H176135   1.701   0.988  12.557 -2.6846  2.6201  0.3771
18240TIP3    H276136   1.775   1.002  12.425  0.2398 -0.5522  1.6018
18241TIP3   OH276137   0.929   2.288   4.034 -0.5525 -0.1972  0.2008
18241TIP3    H176138   1.012   2.245   4.055 -1.0822 -0.8232  1.0259
18241TIP3    H276139   0.897   2.243   3.956 -0.0091  0.1894 -0.2446
18242TIP3   OH276140   6.230   0.176  12.968 -0.2873  0.0472  0.3955
18242TIP3    H176141   6.161   0.218  13.018 -0.7017  0.1796 -0.2856
18242TIP3    H276142   6.264   0.245  12.911 -0.9844 -0.5374 -0.7410
18243TIP3   OH276143   2.482   2.904   2.584 -1.1582 -0.0949  0.5465
18243TIP3    H176144   2.573   2.931   2.597 -1.9881  2.5689  1.1240
18243TIP3    H276145   2.478   2.877   2.492 -0.1745  1.3737  0.0549
18244TIP3   OH276146   4.730   6.396   3.501 -0.5115 -0.3729 -0.2846
18244TIP3    H176147   4.824   6.392   3.484  0.2879 -0.7516  3.7269
18244TIP3    H276148   4.714   6.488   3.522 -1.1765 -0.1909 -1.5454
18245TIP3   OH276149   5.003   5.435   0.915  0.5220 -0.7188  0.9691
18245TIP3    H176150   5.085   5.389   0.899  0.8310  0.4699 -1.0270
18245TIP3    H276151   5.027   5.505   0.975  0.5819 -1.5084  1.8803
18246TIP3   OH276152   2.395   0.178   3.575 -0.4582  0.2812 -0.0898
18246TIP3    H176153   2.488   0.172   3.553 -0.5518  1.3128 -0.8296
18246TIP3    H276154   2.358   0.235   3.507 -1.2382  1.4688  1.3007
18247TIP3   OH276155   3.401   3.178   5.729  0.2667 -0.0494 -0.5135
18247TIP3    H176156   3.363   3.112   5.671  0.2397 -1.3493  0.9553
18247TIP3    H276157   3.365   3.261   5.698 -0.1267 -0.7802 -2.0374
18248TIP3   OH276158   5.264   3.869  13.340  0.2148 -0.3494  0.9519
18248TIP3    H176159   5.189   3.920  13.369 -0.8786 -0.5485 -1.4624
18248TIP3    H276160   5.311   3.848  13.421 -1.2598  1.4081  2.3030
18249TIP3   OH276161   2.561   0.534   5.138 -0.3774  0.1040 -0.2108
18249TIP3    H176162   2.521   0.580   5.211 -1.1622  1.5316 -1.5286
18249TIP3    H276163   2.489   0.513   5.080  0.2616 -0.9307 -0.6497
18250TIP3   OH276164   1.828   4.396  12.808 -0.5168  0.0452  0.1920
18250TIP3    H176165   1.787   4.480  12.786 -3.0268 -0.8142  1.4656
18250TIP3    H276166   1.872   4.413  12.892  1.9462  0.9939 -1.2245
18251TIP3   OH276167   3.836   3.779  11.644 -0.3108  0.2211 -0.5104
18251TIP3    H176168   3.741   3.783  11.649 -0.3179  2.7238 -1.6418
18251TIP3    H276169   3.865   3.865  11.673  1.6671 -0.7448  0.4891
18252TIP3   OH276170   1.841   5.571   2.714  0.0106 -0.0727 -0.4075
18252TIP3    H176171   1.868   5.663   2.721 -0.7831  0.2499 -1.3954
18252TIP3    H276172   1.795   5.553   2.796 -0.3500  0.5934 -0.4592
18253TIP3   OH276173   0.584   3.643  11.393 -0.6084 -0.6268  0.3835
18253TIP3    H176174   0.490   3.637  11.412 -0.6806  0.0772  0.2465
18253TIP3    H276175   0.591   3.710  11.325  0.0844  0.0452  1.1067
18254TIP3   OH276176   4.567   4.575  14.353 -0.0894 -0.1960  0.2571
18254TIP3    H176177   4.588   4.665  14.329  0.0222 -0.4047 -0.4336
18254TIP3    H276178   4.612   4.521  14.289  0.7620 -0.7901  1.3294
18255TIP3   OH276179   0.618   2.546  12.101  0.0325  0.0376 -0.6994
18255TIP3    H176180   0.626   2.579  12.191 -0.1685 -0.0111 -0.6631
18255TIP3    H276181   0.525   2.552  12.082  0.2286  1.2396 -1.3493
18256TIP3   OH276182   5.056   3.997   3.393 -0.6428 -0.4269 -0.2016
18256TIP3    H176183   5.129   3.940   3.367  0.3484  0.3983  0.7192
18256TIP3    H276184   4.980   3.940   3.395  0.2809 -1.6532  0.4124
18257TIP3   OH276185   1.632   5.092  16.222  0.4126 -0.6803 -0.3411
18257TIP3    H176186   1.721   5.104  16.190  0.8840 -4.0261 -0.4400
18257TIP3    H276187   1.592   5.032  16.159 -2.1384  1.2354 -0.6363
18258TIP3   OH276188   6.171   1.624   5.777 -1.0600 -0.0234 -0.2455
18258TIP3    H176189   6.082   1.613   5.743 -0.8374 -1.5358 -0.3867
18258TIP3    H276190   6.159   1.652   5.867 -1.6972 -0.7555 -0.0965
18259TIP3   OH276191   2.189   1.488   1.108 -0.2312  0.9849  0.5879
18259TIP3    H176192   2.218   1.507   1.019 -1.1017  0.2176  0.1372
18259TIP3    H276193   2.116   1.548   1.122 -1.5645 -0.4493 -0.0485
18260TIP3   OH276194   1.728   5.487  13.374 -0.5205 -0.2856 -0.1534
18260TIP3    H176195   1.634   5.505  13.375 -0.4857  0.1100 -2.4900
18260TIP3    H276196   1.745   5.444  13.458 -2.4637  1.2444  1.0531
18261TIP3   OH276197   2.596   0.531  14.714 -0.1530 -0.0480 -0.0622
18261TIP3    H176198   2.557   0.612  14.747  1.1998 -0.4591  2.6552
18261TIP3    H276199   2.679   0.558  14.676  0.3611 -0.1445  0.9666
18262TIP3   OH276200   4.014   5.807  11.729 -0.3735 -1.0804  0.0891
18262TIP3    H176201   3.976   5.830  11.814  0.9450  0.6652  0.2453
18262TIP3    H276202   4.030   5.713  11.734 -0.1638 -0.9617  1.8285
18263TIP3   OH276203   0.285   0.229   1.150 -0.3737 -0.0058 -0.2469
18263TIP3    H176204   0.329   0.301   1.194 -0.3394  0.8857 -1.7052
18263TIP3    H276205   0.346   0.155   1.158 -0.1576  0.2733  0.7434
18264TIP3   OH276206   2.764   5.637   4.878  0.4479  0.2711  0.1996
18264TIP3    H176207   2.801   5.688   4.950  1.7502  0.9423 -0.9229
18264TIP3    H276208   2.712   5.700   4.827  0.2347 -0.0082  0.0702
18265TIP3   OH276209   0.047   2.691   4.603  0.3458 -0.0730 -0.4677
18265TIP3    H176210   0.032   2.606   4.644  0.1818 -1.2596 -2.8589
18265TIP3    H276211   0.135   2.716   4.630  1.0144 -1.7750 -0.9852
18266TIP3   OH276212   4.493   2.866   2.536  1.1256 -0.2836  0.1701
18266TIP3    H176213   4.403   2.888   2.512  1.0961  1.1863  1.5405
18266TIP3    H276214   4.507   2.779   2.500 -0.2013  0.2685 -1.7570
18267TIP3   OH276215   2.834   3.077  14.370 -0.3802 -0.2543 -0.5280
18267TIP3    H176216   2.799   3.099  14.284 -0.0251  0.2995 -0.5306
18267TIP3    H276217   2.841   3.161  14.416  0.9345 -0.3472 -0.5264
18268TIP3   OH276218   3.759   0.472   4.393 -0.3908  0.1283  0.0905
18268TIP3    H176219   3.665   0.464   4.378 -0.3242 -1.0055  0.1958
18268TIP3    H276220   3.769   0.457   4.488  0.0497 -1.4426 -0.1837
18269TIP3   OH276221   1.318   2.077   2.033  0.1100 -0.0901  0.0634
18269TIP3    H176222   1.310   2.163   1.991  1.7013  0.5619  1.0756
18269TIP3    H276223   1.316   2.015   1.960  1.7594  0.9799 -0.9314
18270TIP3   OH276224   1.923   5.017  11.281  0.0770  0.2568 -0.1096
18270TIP3    H176225   1.870   4.938  11.293 -0.7345  0.5952 -1.3518
18270TIP3    H276226   1.995   4.989  11.225  0.5462  0.0811  0.5795
18271TIP3   OH276227   5.207   4.684  15.034 -0.0735 -0.4911 -0.2122
18271TIP3    H176228   5.206   4.659  15.126 -1.7046 -1.1117 -0.3829
18271TIP3    H276229   5.133   4.637  14.996  0.8080 -0.5159 -1.9146
18272TIP3   OH276230   1.256   4.175  15.045  0.1462 -0.4761  0.1581
18272TIP3    H176231   1.336   4.200  14.999  1.3875 -3.3505  0.6095
18272TIP3    H276232   1.194   4.154  14.975 -0.5510  2.6567 -0.1993
18273TIP3   OH276233   2.976   1.865   6.332  0.0387 -0.1574  0.4065
18273TIP3    H176234   3.039   1.793   6.332  0.1015 -0.1027 -0.0756
18273TIP3    H276235   3.030   1.944   6.335  0.0058 -0.1001 -0.4752
18274TIP3   OH276236   4.132   3.952   2.881  0.0991 -0.6888 -0.1187
18274TIP3    H176237   4.134   4.043   2.851  0.6299  0.0834  2.1050
18274TIP3    H276238   4.204   3.947   2.944  0.6925 -2.9323 -0.9429
18275TIP3   OH276239   3.539   3.415   2.549  0.4028  0.0887 -0.0823
18275TIP3    H176240   3.459   3.387   2.595  0.1697  0.2048 -0.4183
18275TIP3    H276241   3.548   3.354   2.476 -0.0684  0.8342 -0.7767
18276TIP3   OH276242   2.826   0.376  14.354 -0.2254  0.3884  0.0836
18276TIP3    H176243   2.768   0.450  14.374  0.4009  0.7949  0.3966
18276TIP3    H276244   2.771   0.299  14.367 -1.1027  0.8216 -0.9906
18277TIP3   OH276245   3.368   1.798   2.835 -0.7766 -0.6523 -0.6717
18277TIP3    H176246   3.433   1.867   2.829 -1.0683 -0.4520 -1.6531
18277TIP3    H276247   3.397   1.731   2.774 -0.0071 -1.8268  0.9448
18278TIP3   OH276248   0.628   1.201  12.807  0.0468 -0.6967  0.3407
18278TIP3    H176249   0.587   1.122  12.772 -0.0279  0.0389 -1.3126
18278TIP3    H276250   0.719   1.194  12.780 -0.3158  0.5672 -1.3135
18279TIP3   OH276251   2.061   4.144   3.496  0.4541  0.1222 -0.3486
18279TIP3    H176252   2.029   4.223   3.539  2.0618  0.9529 -0.6196
18279TIP3    H276253   1.990   4.118   3.438 -0.9411  0.1265  1.3115
18280TIP3   OH276254   0.048   3.442   0.316 -0.7942 -0.3413 -0.2438
18280TIP3    H176255  -0.044   3.466   0.305 -0.9343 -0.1803  1.2692
18280TIP3    H276256   0.048   3.374   0.383  0.0502 -1.4652 -1.3503
18281TIP3   OH276257   3.914   3.560   1.437  0.4956  0.0669 -0.3518
18281TIP3    H176258   3.970   3.558   1.515 -0.0598  1.0109  0.0763
18281TIP3    H276259   3.828   3.534   1.469  0.3724 -0.0106 -0.7418
18282TIP3   OH276260   3.459   1.171  13.277  0.4543  0.0913 -0.3844
18282TIP3    H176261   3.525   1.103  13.290  0.5116  0.5704  2.1879
18282TIP3    H276262   3.440   1.170  13.184  1.5601 -2.4349 -0.6027
18283TIP3   OH276263   2.309   6.108  15.553  0.3713  0.0459  0.5726
18283TIP3    H176264   2.254   6.055  15.496 -0.3611 -0.4210  1.6886
18283TIP3    H276265   2.369   6.154  15.494  0.0411 -0.9047 -0.5056
18284TIP3   OH276266   1.144   5.575   2.566 -0.1658  0.3080 -0.2516
18284TIP3    H176267   1.188   5.492   2.552 -2.2479 -0.5972 -1.6333
18284TIP3    H276268   1.176   5.605   2.651  1.1644 -1.5217 -0.0769
18285TIP3   OH276269   2.107   5.320   2.317  0.0753 -0.0186 -0.1488
18285TIP3    H176270   2.138   5.393   2.263  0.2839 -0.3373 -0.4561
18285TIP3    H276271   2.146   5.335   2.403 -0.4324  0.6112 -0.0178
18286TIP3   OH276272   4.262   0.035   0.265  0.6844  0.4632  0.2579
18286TIP3    H176273   4.238   0.105   0.326 -1.9422  0.2340 -0.4464
18286TIP3    H276274   4.242  -0.046   0.312  0.0511  0.2597 -0.3617
18287TIP3   OH276275   1.553   3.067  11.980 -0.0718 -0.0032 -0.6145
18287TIP3    H176276   1.635   3.081  12.028  2.4942 -3.1161 -3.7992
18287TIP3    H276277   1.510   2.995  12.026 -0.1461  0.3999 -0.0413
18288TIP3   OH276278   6.455   6.720  16.108  0.5492 -0.6501  0.2821
18288TIP3    H176279   6.398   6.700  16.182  0.6578 -1.9435  0.0250
18288TIP3    H276280   6.448   6.815  16.097 -0.8614 -0.6886  0.8162
18289TIP3   OH276281   1.812   2.673  12.522  0.4195  0.3144 -0.2753
18289TIP3    H176282   1.725   2.705  12.545 -0.3041 -1.4758 -0.4388
18289TIP3    H276283   1.799   2.627  12.439  1.2294 -1.2799  0.4689
18290TIP3   OH276284   4.368   3.122   0.275 -0.2490 -0.5733 -0.1059
18290TIP3    H176285   4.346   3.044   0.224  0.6288 -1.1961  0.4445
18290TIP3    H276286   4.285   3.166   0.289 -0.7485 -1.3867 -0.4759
18291TIP3   OH276287   2.257   0.037   3.349  0.8401  0.3797 -0.1649
18291TIP3    H176288   2.315  -0.039   3.338 -0.3630 -0.4657 -0.8245
18291TIP3    H276289   2.310   0.111   3.321  1.4778 -0.4360 -1.1984
18292TIP3   OH276290   0.616   3.125   1.192 -0.3615 -0.1100  0.3309
18292TIP3    H176291   0.671   3.203   1.202  0.4345 -0.6242  0.0215
18292TIP3    H276292   0.529   3.159   1.170 -0.9094  0.8635  3.6933
18293TIP3   OH276293   1.976   2.717   3.533  0.3572 -0.4836 -0.2597
18293TIP3    H176294   1.947   2.663   3.460  0.3520 -1.3823  0.3914
18293TIP3    H276295   1.975   2.806   3.499 -0.7837 -0.7620 -1.0051
18294TIP3   OH276296   4.193   4.231  11.324  0.0529  0.1705 -0.3780
18294TIP3    H176297   4.235   4.299  11.377 -0.5566 -0.3838  0.8099
18294TIP3    H276298   4.128   4.278  11.272  2.3540  1.1152 -2.5448
18295TIP3   OH276299   0.147   1.606  15.014 -0.0234 -0.4533 -0.2077
18295TIP3    H176300   0.215   1.619  14.948 -0.1584 -0.4527 -0.3463
18295TIP3    H276301   0.073   1.568  14.966 -0.2944 -0.0132 -0.1449
18296TIP3   OH276302   3.967   5.573   4.119  0.8308 -0.5109 -0.3372
18296TIP3    H176303   4.046   5.597   4.070 -0.7667  3.1897 -1.2632
18296TIP3    H276304   3.970   5.628   4.197 -3.5183  4.0271 -3.0745
18297TIP3   OH276305   0.034   0.092   0.848 -0.6047 -0.4847  0.0813
18297TIP3    H176306   0.075   0.177   0.830  3.1610 -1.9953  0.9675
18297TIP3    H276307  -0.004   0.102   0.935 -2.0120  0.8900 -0.6652
18298TIP3   OH276308   5.345   2.425  13.136  0.0917  0.1913 -0.4527
18298TIP3    H176309   5.432   2.388  13.145  0.0624 -0.5804 -2.8598
18298TIP3    H276310   5.307   2.378  13.061 -2.0238  1.1731 -0.0299
18299TIP3   OH276311   6.015   3.153  14.954 -0.0244  0.3264 -0.1556
18299TIP3    H176312   5.945   3.087  14.961  1.1623 -1.0706 -1.0657
18299TIP3    H276313   6.003   3.209  15.031 -1.4702 -0.5597  0.2831
18300TIP3   OH276314   0.419   6.226   5.209 -0.3565  0.4443 -0.4596
18300TIP3    H176315   0.420   6.321   5.201 -0.1097  0.2575 -3.2235
18300TIP3    H276316   0.508   6.202   5.231 -0.6568  0.9088  1.3233
18301TIP3   OH276317   4.916   1.844   6.387 -0.2458 -0.1682  0.2153
18301TIP3    H176318   4.841   1.862   6.443  0.3086 -0.6276  1.1045
18301TIP3    H276319   4.971   1.922   6.396 -0.5344  0.0998 -0.3130
18302TIP3   OH276320   3.709   1.629  11.732  0.1877 -0.3882 -0.1123
18302TIP3    H176321   3.723   1.714  11.774  4.3119 -0.7164 -0.5840
18302TIP3    H276322   3.679   1.650  11.644  0.3912  0.5505  0.0414
18303TIP3   OH276323   5.134   3.753   3.261  0.0501 -0.4054  1.5566
18303TIP3    H176324   5.052   3.762   3.213  0.8634 -0.2178  0.1743
18303TIP3    H276325   5.136   3.660   3.287  1.1017 -1.3079 -1.5792
18304TIP3   OH276326   1.803   2.723   2.565 -0.9420  0.7029  0.5119
18304TIP3    H176327   1.823   2.676   2.647 -1.5473 -0.7005 -0.1230
18304TIP3    H276328   1.844   2.670   2.497 -0.3713  1.9110 -0.0971
18305TIP3   OH276329   6.576   5.602  11.694  0.4395 -0.2523  0.1949
18305TIP3    H176330   6.524   5.590  11.774 -1.5223 -1.7685 -1.2453
18305TIP3    H276331   6.529   5.669  11.645  0.6068 -0.6334 -0.4968
18306TIP3   OH276332   1.146   4.279  15.255 -0.1409 -0.2709  0.4039
18306TIP3    H176333   1.163   4.215  15.186  0.1422 -1.1865  1.3180
18306TIP3    H276334   1.076   4.335  15.219 -0.1856 -0.9006 -0.5081
18307TIP3   OH276335   1.723   6.149   6.208 -0.4016  0.3080  0.3368
18307TIP3    H176336   1.808   6.168   6.249  0.0520  0.1491 -0.5089
18307TIP3    H276337   1.710   6.055   6.221  0.3368  0.0169 -0.9657
18308TIP3   OH276338   5.589   1.142  12.129 -0.2210 -0.6894  0.2310
18308TIP3    H176339   5.643   1.219  12.115  1.7829 -1.9945  0.6021
18308TIP3    H276340   5.551   1.123  12.043 -0.1662  0.2690 -0.0115
18309TIP3   OH276341   0.244   4.054   6.193 -0.6055 -0.7735  0.1283
18309TIP3    H176342   0.218   4.000   6.267 -1.4485 -1.2975 -0.5508
18309TIP3    H276343   0.275   4.136   6.233 -0.7385 -1.1796  1.0674
18310TIP3   OH276344   5.076   1.730  16.915  0.5869  0.1407  0.7869
18310TIP3    H176345   5.024   1.752  16.992 -0.7237  0.9428 -0.2980
18310TIP3    H276346   5.100   1.814  16.878 -0.1710 -0.2340 -0.5800
18311TIP3   OH276347   2.786   6.180   6.565  0.0506 -0.1916 -0.1056
18311TIP3    H176348   2.821   6.094   6.589 -0.4476  0.1108  1.7821
18311TIP3    H276349   2.712   6.193   6.625  0.7803  2.0140  0.3792
18312TIP3   OH276350   6.755   4.648  15.949 -0.2471  0.0946  0.1218
18312TIP3    H176351   6.811   4.726  15.946  0.9580 -0.6434  2.1503
18312TIP3    H276352   6.715   4.644  15.863  1.0594  1.9480 -0.6155
18313TIP3   OH276353   4.071   4.184   4.832  0.8299  0.6145 -0.0238
18313TIP3    H176354   4.047   4.114   4.892  0.8651 -0.2515 -1.0068
18313TIP3    H276355   4.001   4.249   4.843  0.9367  0.5490  1.0786
18314TIP3   OH276356   0.999   4.811  16.893  0.1252 -0.0514 -0.0430
18314TIP3    H176357   0.923   4.764  16.928  1.4580 -2.4326 -0.2960
18314TIP3    H276358   1.006   4.889  16.949 -2.9154  0.5980 -0.4820
18315TIP3   OH276359   6.610   4.744   0.204 -0.0880 -0.2235  0.9016
18315TIP3    H176360   6.593   4.838   0.196 -0.3073 -0.2398  1.1480
18315TIP3    H276361   6.686   4.729   0.149  0.4793  0.2522  1.5383
18316TIP3   OH276362   5.031   6.660  13.077  0.3824  0.2161  0.0209
18316TIP3    H176363   5.121   6.674  13.107  0.2232  1.8319 -0.2495
18316TIP3    H276364   5.040   6.629  12.987  0.5618  3.9086 -1.2800
18317TIP3   OH276365   4.547   1.151  15.719 -0.4148  0.3575  0.6073
18317TIP3    H176366   4.560   1.059  15.738 -0.2811  0.4764  1.1102
18317TIP3    H276367   4.541   1.156  15.624 -2.2046 -0.3891  0.6643
18318TIP3   OH276368   3.779   3.483   3.169 -0.5068 -0.2613 -0.1533
18318TIP3    H176369   3.767   3.486   3.264 -2.1289 -2.8700 -0.2143
18318TIP3    H276370   3.872   3.463   3.157 -0.1692  0.6451  0.8561
18319TIP3   OH276371   3.436   1.768  16.541 -0.0653 -0.0531  0.1319
18319TIP3    H176372   3.409   1.719  16.619  2.9595 -0.9914  0.6466
18319TIP3    H276373   3.452   1.700  16.475  3.7571  0.1612  0.7315
18320TIP3   OH276374   5.585   1.238   5.971 -0.0468 -0.0204  0.0548
18320TIP3    H176375   5.591   1.314   5.914  0.2962 -0.7611 -0.9106
18320TIP3    H276376   5.564   1.165   5.913 -0.6878 -0.6141  1.0067
18321TIP3   OH276377   0.581   6.031   4.212  0.0099 -0.3638 -0.6138
18321TIP3    H176378   0.569   5.974   4.136  0.2735 -1.1561 -0.0703
18321TIP3    H276379   0.548   6.116   4.184 -0.3940 -0.7868 -1.4351
18322TIP3   OH276380   4.596   1.196  16.489 -0.3294  0.4237  0.0485
18322TIP3    H176381   4.671   1.181  16.547 -0.7779 -1.1546  0.2313
18322TIP3    H276382   4.520   1.197  16.547 -0.3215  3.8331  0.0957
18323TIP3   OH276383   2.294   4.090   4.588  0.3710  0.4075 -0.5367
18323TIP3    H176384   2.378   4.048   4.569  0.6842  1.2944 -1.1431
18323TIP3    H276385   2.282   4.152   4.516 -0.6207  0.5611 -0.2419
18324TIP3   OH276386   1.444   5.195   0.099 -0.9385 -0.8524  0.1027
18324TIP3    H176387   1.438   5.161   0.010  0.7011 -0.2753 -0.2494
18324TIP3    H276388   1.356   5.184   0.135 -1.3507 -2.0532 -1.2304
18325TIP3   OH276389   2.574   3.455  14.740 -0.2526  0.3609  0.0692
18325TIP3    H176390   2.543   3.544  14.724 -0.6357  0.4117  1.0804
18325TIP3    H276391   2.669   3.460  14.724 -0.2325  1.0139  0.3606
18326TIP3   OH276392   3.129   4.199   3.370  0.7753 -0.2054  0.0541
18326TIP3    H176393   3.104   4.270   3.429  1.6075  1.2498 -1.2918
18326TIP3    H276394   3.214   4.169   3.403  1.0133  0.2852 -0.1023
18327TIP3   OH276395   0.679   0.668   2.230 -0.3330 -0.1585 -0.1419
18327TIP3    H176396   0.593   0.688   2.269  0.9332  1.2788  2.0402
18327TIP3    H276397   0.703   0.584   2.268 -1.4492 -1.3532 -1.9976
18328TIP3   OH276398   6.653   1.179   0.724  0.5204 -0.2532 -0.3560
18328TIP3    H176399   6.615   1.119   0.788  0.5644 -0.1495 -0.2315
18328TIP3    H276400   6.601   1.166   0.645  0.8841 -0.8549 -0.5013
18329TIP3   OH276401   5.997   6.653   6.745  0.2064 -0.4059  0.4548
18329TIP3    H176402   6.062   6.583   6.740  0.7955  0.2514 -1.9860
18329TIP3    H276403   6.046   6.733   6.725 -0.8125  0.4829  1.4314
18330TIP3   OH276404   6.388   0.294   6.341 -0.1925  0.1737 -0.1514
18330TIP3    H176405   6.351   0.215   6.301  0.8383 -0.0263 -0.7193
18330TIP3    H276406   6.400   0.270   6.433 -1.0340  0.0896 -0.0524
18331TIP3   OH276407   3.908   5.433   0.791 -0.6728 -0.1306 -0.2063
18331TIP3    H176408   3.921   5.508   0.732  0.8375 -0.5766 -0.4445
18331TIP3    H276409   3.941   5.464   0.876 -1.5384  0.0227  0.0765
18332TIP3   OH276410   1.115   1.436  12.203 -0.0318  1.1370  0.0577
18332TIP3    H176411   1.209   1.429  12.222 -0.1835 -0.3976  0.3137
18332TIP3    H276412   1.111   1.443  12.107  0.3544  1.2114  0.0441
18333TIP3   OH276413   5.965   6.236   0.483 -0.0733  0.1254  0.0748
18333TIP3    H176414   5.917   6.168   0.436 -0.8136  1.6651 -1.4271
18333TIP3    H276415   6.021   6.276   0.417  2.9032 -1.2453  1.6673
18334TIP3   OH276416   3.281   6.387   5.122  0.3077 -0.4767 -0.3327
18334TIP3    H176417   3.353   6.399   5.184 -0.0540 -2.0148  0.4070
18334TIP3    H276418   3.292   6.458   5.058  1.2336  0.5550  0.9525
18335TIP3   OH276419   0.680   1.182   4.441 -0.3963  0.2025  0.3792
18335TIP3    H176420   0.753   1.240   4.420 -0.1764 -0.1474  0.1563
18335TIP3    H276421   0.660   1.139   4.357 -1.6745  1.2067  0.1499
18336TIP3   OH276422   1.162   1.075  13.689  0.0322  0.3546 -0.5199
18336TIP3    H176423   1.068   1.073  13.707  0.0653  0.9580 -0.2708
18336TIP3    H276424   1.202   1.034  13.766  0.1100  2.0537  0.3649
18337TIP3   OH276425   0.563   4.305  13.948 -0.1595 -0.1860  0.1644
18337TIP3    H176426   0.652   4.323  13.979  0.1210 -2.6566  0.9207
18337TIP3    H276427   0.556   4.353  13.865  0.9491  2.1634  1.3854
18338TIP3   OH276428   6.370   1.213  17.075 -0.2304  0.1634 -0.3539
18338TIP3    H176429   6.398   1.175  17.158  0.4723  0.4727 -0.4371
18338TIP3    H276430   6.319   1.145  17.033  0.3250 -0.3883 -0.1385
18339TIP3   OH276431   5.131   6.530   0.668 -0.0046 -1.0702 -1.1978
18339TIP3    H176432   5.072   6.529   0.744  1.1347 -1.2162 -0.2920
18339TIP3    H276433   5.150   6.437   0.653  2.0628 -0.9065  0.1859
18340TIP3   OH276434   3.099   4.959  15.077  0.0088  0.0918  0.6915
18340TIP3    H176435   3.040   4.885  15.064  0.5982 -0.3002  0.2528
18340TIP3    H276436   3.174   4.940  15.022 -1.3480  2.6910 -2.1866
18341TIP3   OH276437   5.245   0.280   2.378 -0.4483 -0.1684  0.1634
18341TIP3    H176438   5.178   0.229   2.423  0.2840  0.1623  1.6650
18341TIP3    H276439   5.214   0.286   2.288 -1.5684 -1.4888  0.4450
18342TIP3   OH276440   3.982   6.022  12.078  0.2012  0.0245  0.1524
18342TIP3    H176441   4.027   6.102  12.049  0.3271 -0.3217 -0.6242
18342TIP3    H276442   4.048   5.953  12.069 -0.0145 -0.2255  0.4856
18343TIP3   OH276443   2.954   6.769   6.123 -0.6757  0.0745 -0.0125
18343TIP3    H176444   2.899   6.847   6.120  2.4891  2.4420  1.1357
18343TIP3    H276445   2.969   6.753   6.216  0.7668 -0.3314 -0.2936
18344TIP3   OH276446   0.415   4.286   4.037  0.7444 -0.0053 -0.6812
18344TIP3    H176447   0.447   4.277   4.127 -0.2917  0.3884 -0.2712
18344TIP3    H276448   0.391   4.198   4.010  1.8941 -0.2640 -0.8957
18345TIP3   OH276449   3.595   4.299   5.015  0.9217  0.9627  0.4173
18345TIP3    H176450   3.637   4.273   5.098 -1.2795 -0.3968  1.1385
18345TIP3    H276451   3.541   4.374   5.039 -0.0131  0.3316  0.2938
18346TIP3   OH276452   3.271   3.651   0.710 -0.1610  0.1767  0.6126
18346TIP3    H176453   3.358   3.656   0.750 -0.0503 -0.6564  0.4790
18346TIP3    H276454   3.274   3.572   0.657 -1.3087 -0.3525  1.3409
18347TIP3   OH276455   2.237   1.708  17.200  0.1316  0.1976  0.1465
18347TIP3    H176456   2.202   1.629  17.158  0.3530 -0.8154  1.8461
18347TIP3    H276457   2.329   1.689  17.214  0.0852  0.5631  0.9940
18348TIP3   OH276458   5.671   4.596   1.330 -0.7648 -0.1761  0.2745
18348TIP3    H176459   5.653   4.516   1.380 -2.6283 -0.1126 -0.2521
18348TIP3    H276460   5.668   4.569   1.238 -1.8640  0.5671  0.0776
18349TIP3   OH276461   5.225   1.493   0.328 -0.4691 -0.2652  0.5452
18349TIP3    H176462   5.148   1.472   0.380 -0.4006  1.2283  1.2634
18349TIP3    H276463   5.215   1.585   0.305 -0.4492 -0.8492 -2.0231
18350TIP3   OH276464   2.387   3.333   1.646  0.2193 -0.1822 -0.2061
18350TIP3    H176465   2.352   3.417   1.675  2.3190  1.0100 -0.9958
18350TIP3    H276466   2.329   3.306   1.575 -0.1851  0.8627 -0.2852
18351TIP3   OH276467   4.201   5.719  16.947 -0.3654 -0.2432 -0.8365
18351TIP3    H176468   4.142   5.743  16.875 -0.0394  0.0022 -1.0242
18351TIP3    H276469   4.248   5.643  16.913  0.0959  0.1351 -1.0507
18352TIP3   OH276470   4.915   2.137   1.290 -0.0883 -0.0406 -0.2568
18352TIP3    H176471   4.886   2.097   1.372 -0.2968 -0.0315 -0.3280
18352TIP3    H276472   4.952   2.065   1.240 -0.4128 -0.1337 -0.3617
18353TIP3   OH276473   1.849   0.732  12.993  0.0030  0.0933  0.7272
18353TIP3    H176474   1.890   0.645  12.983  2.1045  0.9118  1.8683
18353TIP3    H276475   1.900   0.789  12.935 -0.2003  0.9334  1.3677
18354TIP3   OH276476   2.594   4.095  16.375  0.2371  0.2348 -0.2228
18354TIP3    H176477   2.563   4.184  16.357 -1.6843 -0.1615  0.9250
18354TIP3    H276478   2.689   4.100  16.365  0.3968  2.9686  2.0190
18355TIP3   OH276479   0.223   4.762  13.675 -0.5691  0.2643 -0.0554
18355TIP3    H176480   0.227   4.666  13.679 -0.3203  0.2276 -1.0632
18355TIP3    H276481   0.215   4.790  13.767 -1.1942 -0.7438  0.2069
18356TIP3   OH276482   0.143   2.140  15.778  0.3090  0.9230 -0.1801
18356TIP3    H176483   0.224   2.128  15.826 -0.1163 -0.7716  0.1171
18356TIP3    H276484   0.074   2.134  15.844 -0.2670 -1.2891 -0.9407
18357TIP3   OH276485   6.586   2.884  13.022  0.1673 -0.0863 -0.0390
18357TIP3    H176486   6.543   2.815  12.972 -1.1902  2.0122 -1.8533
18357TIP3    H276487   6.626   2.941  12.956 -1.1094  2.3688  1.2041
18358TIP3   OH276488   6.637   5.502  16.237 -0.1906  0.2419  0.0175
18358TIP3    H176489   6.672   5.502  16.148 -0.5721  0.2889 -0.1373
18358TIP3    H276490   6.691   5.439  16.285 -0.2929 -0.1449 -0.3712
18359TIP3   OH276491   3.042   0.876   0.463  0.0913  0.5106  0.0151
18359TIP3    H176492   3.053   0.781   0.470  0.4140  0.4558 -1.1918
18359TIP3    H276493   3.131   0.910   0.471  0.0618  0.6637 -0.3215
18360TIP3   OH276494   0.858   5.611  15.178  0.0440  0.4892 -0.3850
18360TIP3    H176495   0.870   5.656  15.262  0.0618 -1.0880  0.4799
18360TIP3    H276496   0.916   5.535  15.183 -0.3742  0.0800 -1.5996
18361TIP3   OH276497   0.758   2.700   2.220  0.5050 -0.4373  0.5087
18361TIP3    H176498   0.716   2.712   2.305 -0.4447  3.2945 -0.3924
18361TIP3    H276499   0.850   2.720   2.236  0.4846 -0.6032  0.8380
18362TIP3   OH276500   5.221   2.615   6.023 -0.4691 -0.0011  0.6730
18362TIP3    H176501   5.200   2.570   6.105  0.1060 -1.4607  0.0340
18362TIP3    H276502   5.144   2.669   6.005 -1.3351 -1.0461  1.2355
18363TIP3   OH276503   4.888   2.283   3.916 -0.0946 -0.1111  0.2484
18363TIP3    H176504   4.967   2.286   3.971 -0.5606  0.2961  0.9111
18363TIP3    H276505   4.835   2.213   3.956 -0.9867  1.0298  1.0855
18364TIP3   OH276506   4.965   0.725   2.205 -0.3680 -0.3283 -0.3069
18364TIP3    H176507   4.983   0.652   2.265  0.2178 -1.7763 -2.1774
18364TIP3    H276508   5.049   0.770   2.197 -0.0413 -1.0733 -1.2209
18365TIP3   OH276509   5.100   5.666   5.099 -0.7285 -0.0869  0.4092
18365TIP3    H176510   5.185   5.656   5.142 -1.4196 -0.8260  1.6256
18365TIP3    H276511   5.117   5.726   5.027  0.5567  0.8251  1.4433
18366TIP3   OH276512   0.991   4.170  14.916  0.0929  0.6380  0.0243
18366TIP3    H176513   0.933   4.239  14.884 -0.2856 -0.0803 -0.8709
18366TIP3    H276514   0.944   4.133  14.991 -1.1867 -0.6999 -1.3831
18367TIP3   OH276515   5.792   0.054   0.431  0.0960 -0.6635 -0.2438
18367TIP3    H176516   5.875   0.057   0.384 -1.3561  0.0381 -2.8391
18367TIP3    H276517   5.790   0.136   0.481  2.1494 -1.9296  2.0652
18368TIP3   OH276518   5.484   4.787  13.783 -0.4969  0.2760  0.1174
18368TIP3    H176519   5.552   4.736  13.826  0.3385  0.3494 -1.0894
18368TIP3    H276520   5.416   4.723  13.761  1.1572 -0.5990 -2.6347
18369TIP3   OH276521   4.513   3.171  11.293 -0.7486 -0.2447  1.0948
18369TIP3    H176522   4.429   3.130  11.315 -0.4327 -0.6931  1.4611
18369TIP3    H276523   4.507   3.259  11.331 -1.0343 -0.2929  1.1629
18370TIP3   OH276524   5.311   3.173  11.551 -0.2239  0.4180 -0.0991
18370TIP3    H176525   5.262   3.187  11.470  1.1657 -1.4285 -1.3187
18370TIP3    H276526   5.402   3.187  11.526  0.3901 -1.8916  0.6644
18371TIP3   OH276527   5.962   4.253   5.232 -0.1469 -0.1169  0.0516
18371TIP3    H176528   5.913   4.311   5.289 -0.7071  1.0225 -1.5398
18371TIP3    H276529   6.050   4.290   5.228 -0.2668  0.1406 -0.2695
18372TIP3   OH276530   3.059   4.519   2.809 -0.1672  0.2913 -0.1049
18372TIP3    H176531   2.976   4.471   2.810  0.0656 -0.1071  0.1007
18372TIP3    H276532   3.106   4.488   2.886  1.0723 -1.0744 -1.3719
18373TIP3   OH276533   4.046   1.431   2.600  0.3143  0.3243 -0.3032
18373TIP3    H176534   4.130   1.444   2.556  0.5067  0.4606  0.1066
18373TIP3    H276535   4.063   1.449   2.692 -0.2949  0.8967 -0.2986
18374TIP3   OH276536   4.692   5.059   1.032  0.6430  0.6348 -1.1723
18374TIP3    H176537   4.597   5.065   1.020  0.5785 -0.0841 -1.0560
18374TIP3    H276538   4.719   4.989   0.972  0.6442 -1.3501  1.0609
18375TIP3   OH276539   3.262   2.473   1.647  0.2166  0.0846  0.2674
18375TIP3    H176540   3.205   2.481   1.723 -0.4433 -4.2908  0.3652
18375TIP3    H276541   3.350   2.486   1.682 -0.1227 -1.2790  1.6967
18376TIP3   OH276542   3.126   5.983  13.582  0.4417 -0.1529 -0.0130
18376TIP3    H176543   3.180   6.016  13.510  0.3131  2.2909  0.9282
18376TIP3    H276544   3.036   6.003  13.555  0.3200 -0.2326  0.3360
18377TIP3   OH276545   5.497   0.307   0.535 -0.3478  1.0574 -0.2390
18377TIP3    H176546   5.405   0.288   0.552 -0.6329  0.2247 -2.5207
18377TIP3    H276547   5.543   0.228   0.565 -0.5489  0.7619 -0.7067
18378TIP3   OH276548   3.508   4.968  16.338 -0.5565 -0.6552  0.6730
18378TIP3    H176549   3.555   4.909  16.397 -0.1633  0.0183  1.0371
18378TIP3    H276550   3.576   5.009  16.285 -1.1652 -4.7155 -3.5639
18379TIP3   OH276551   2.189   2.453  10.923  0.3987  0.2154 -0.4488
18379TIP3    H176552   2.185   2.379  10.983 -0.7395 -0.0121 -0.7960
18379TIP3    H276553   2.211   2.528  10.978  0.0136 -0.1116  0.1510
18380TIP3   OH276554   5.489   5.898  11.710 -0.1413  0.3161 -0.0743
18380TIP3    H176555   5.449   5.959  11.772  0.8718  0.3926  0.5152
18380TIP3    H276556   5.416   5.853  11.669 -0.8042  0.0155  1.4322
18381TIP3   OH276557   4.232   6.613  12.103  0.9133 -0.7285  0.0834
18381TIP3    H176558   4.202   6.565  12.181 -0.4689 -0.6680 -0.3919
18381TIP3    H276559   4.257   6.699  12.135 -0.5566 -0.3874  0.3286
18382TIP3   OH276560   1.025   3.133   4.170  0.4764 -0.0043 -0.0835
18382TIP3    H176561   1.061   3.186   4.241 -0.5434  1.2364 -0.4646
18382TIP3    H276562   0.931   3.148   4.175  0.4080  0.1816 -1.7532
18383TIP3   OH276563   1.150   2.404  13.909 -0.4080 -0.6118  0.4184
18383TIP3    H176564   1.077   2.429  13.852  0.0433  0.8523  0.4797
18383TIP3    H276565   1.128   2.315  13.938 -1.5769 -0.6391 -0.5121
18384TIP3   OH276566   0.484   2.266  13.192  0.1297 -0.1639 -0.4237
18384TIP3    H176567   0.418   2.294  13.255  2.2983  0.8493  1.4309
18384TIP3    H276568   0.484   2.170  13.199 -0.9476 -0.1580 -0.2512
18385TIP3   OH276569   1.799   6.072  13.775  0.0420 -0.0160 -0.3294
18385TIP3    H176570   1.864   6.042  13.711  1.3580 -0.0799  1.0153
18385TIP3    H276571   1.778   6.161  13.747  2.0481  0.6737  0.2193
18386TIP3   OH276572   2.596   3.561  15.917 -0.2804  0.2261 -0.1508
18386TIP3    H176573   2.546   3.602  15.988  0.7025  0.1227  0.6137
18386TIP3    H276574   2.537   3.564  15.841 -0.8693  1.4821  0.3366
18387TIP3   OH276575   0.120   0.994   5.157  0.0357  0.0295  0.3647
18387TIP3    H176576   0.042   1.038   5.123 -1.4322 -1.6759  1.4597
18387TIP3    H276577   0.154   1.054   5.224 -1.5981 -0.1525  1.4052
18388TIP3   OH276578   1.996   1.041  13.559  0.4624 -0.1567 -0.2154
18388TIP3    H176579   1.963   1.130  13.563 -1.3674 -0.8168 -0.4313
18388TIP3    H276580   2.070   1.040  13.620 -0.5800  1.0513  1.0930
18389TIP3   OH276581   4.672   2.655  16.739 -0.6395 -0.1244  0.0676
18389TIP3    H176582   4.638   2.575  16.780 -0.3618  0.4732  1.4680
18389TIP3    H276583   4.595   2.707  16.719 -0.7129  0.1249  0.9702
18390TIP3   OH276584   2.501   2.340   1.424  0.1623  0.1132 -0.8566
18390TIP3    H176585   2.550   2.259   1.413 -1.2011 -0.7440 -0.6878
18390TIP3    H276586   2.548   2.387   1.494 -0.0588 -1.3114  0.2755
18391TIP3   OH276587   1.395   5.474   2.869  0.0282  0.2873 -0.1495
18391TIP3    H176588   1.382   5.389   2.826  0.6420 -0.4470  1.1014
18391TIP3    H276589   1.478   5.465   2.915 -1.0486  0.7453  1.9382
18392TIP3   OH276590   3.603   6.359  12.353 -0.0765  0.1647 -0.0345
18392TIP3    H176591   3.666   6.317  12.413 -0.3490 -1.1441 -0.6598
18392TIP3    H276592   3.634   6.336  12.266 -1.5780 -0.7166 -0.3470
18393TIP3   OH276593   4.595   2.804   1.117 -0.1689 -0.3539 -0.3577
18393TIP3    H176594   4.679   2.786   1.074 -0.5828  0.8605 -1.7074
18393TIP3    H276595   4.529   2.770   1.056 -0.6557 -2.1128  1.1052
18394TIP3   OH276596   2.024   5.318   5.680  0.0847 -0.1137  0.0647
18394TIP3    H176597   2.018   5.226   5.703 -0.4242 -0.4026 -1.1809
18394TIP3    H276598   1.935   5.352   5.694  0.1037  0.0217 -0.1370
18395TIP3   OH276599   1.536   3.559  13.163 -0.5583  0.2153  0.5498
18395TIP3    H176600   1.587   3.531  13.239  1.9470 -0.3330 -1.2533
18395TIP3    H276601   1.602   3.584  13.098 -2.6233  0.0789 -1.6605
18396TIP3   OH276602   2.369   5.347   4.999  0.0358  0.4208 -0.0647
18396TIP3    H176603   2.462   5.355   5.019  0.3547 -0.9176 -0.9498
18396TIP3    H276604   2.325   5.362   5.083  1.0195  1.4694  0.2726
18397TIP3   OH276605   0.013   5.332  15.402 -0.0829  0.0571  0.4440
18397TIP3    H176606   0.087   5.301  15.453  0.7259 -2.6548 -2.2619
18397TIP3    H276607   0.046   5.410  15.357  0.7112 -0.3550  0.3037
18398TIP3   OH276608   3.572   6.658  11.293 -0.2475  0.1893  0.0605
18398TIP3    H176609   3.549   6.573  11.329 -1.1090  0.3780 -0.0239
18398TIP3    H276610   3.648   6.687  11.344  1.4294 -1.5774 -1.3489
18399TIP3   OH276611   6.010   6.380   2.650 -0.0344 -0.0150 -0.5680
18399TIP3    H176612   5.927   6.338   2.626 -0.2208 -0.1305  0.2409
18399TIP3    H276613   6.067   6.308   2.676 -0.5813  0.2610  1.4907
18400TIP3   OH276614   3.147   2.019  11.472 -0.1080  0.1923 -0.2322
18400TIP3    H176615   3.101   2.033  11.555 -0.3315 -2.2799  0.0894
18400TIP3    H276616   3.094   2.065  11.407 -1.0826  0.3559  0.6624
18401TIP3   OH276617   0.841   4.302   3.478  0.1482 -0.2025 -0.0779
18401TIP3    H176618   0.841   4.209   3.501  1.9125 -0.5293 -1.2452
18401TIP3    H276619   0.845   4.348   3.561  3.7340 -1.2958  0.4315
18402TIP3   OH276620   2.480   2.717  11.877 -0.5209 -0.1353  0.5055
18402TIP3    H176621   2.415   2.786  11.868 -0.4754 -0.0273  1.0024
18402TIP3    H276622   2.551   2.757  11.928  0.7115  0.2846 -1.4730
18403TIP3   OH276623   2.122   5.351  12.525 -0.0265 -0.0383  0.3648
18403TIP3    H176624   2.065   5.276  12.508  0.6704 -0.6788  0.8457
18403TIP3    H276625   2.197   5.338  12.468 -1.4333  2.0563 -2.0669
18404TIP3   OH276626   1.116   5.534   3.292  0.6674 -0.2488 -0.3097
18404TIP3    H176627   1.181   5.508   3.358  1.6918  1.0081 -0.7762
18404TIP3    H276628   1.155   5.507   3.209  0.9018  1.0706 -0.6431
18405TIP3   OH276629   5.634   6.175   6.361  1.0506  0.1605  0.4081
18405TIP3    H176630   5.606   6.211   6.445 -1.7821 -1.9629  0.4682
18405TIP3    H276631   5.598   6.236   6.296  2.0506  1.0487  0.6792
18406TIP3   OH276632   1.013   2.000  14.360 -0.4370 -0.5285  0.0555
18406TIP3    H176633   1.008   1.970  14.450  2.8489 -3.7179 -0.6926
18406TIP3    H276634   1.010   1.920  14.308 -0.0567  1.0807 -2.5510
18407TIP3   OH276635   3.280   5.990   4.561  0.3877 -0.6878 -0.2880
18407TIP3    H176636   3.275   5.993   4.465 -1.6441  0.3034 -0.1855
18407TIP3    H276637   3.373   5.978   4.580  0.8068 -0.9499 -2.3900
18408TIP3   OH276638   2.238   4.376   3.776 -0.4962  0.2740  0.1670
18408TIP3    H176639   2.172   4.404   3.713 -1.0261 -1.0674  0.1143
18408TIP3    H276640   2.191   4.369   3.859 -0.7164 -1.8658 -0.1155
18409TIP3   OH276641   2.729   4.850  13.480  0.3773  0.7684  0.4250
18409TIP3    H176642   2.764   4.880  13.396  1.8486 -1.7356  0.0992
18409TIP3    H276643   2.803   4.807  13.523 -1.1806 -0.8152  1.6033
18410TIP3   OH276644   2.932   0.400  11.391 -0.3443  0.4730  0.0500
18410TIP3    H176645   3.014   0.356  11.412 -0.5156  0.4981  0.7712
18410TIP3    H276646   2.891   0.343  11.326  0.8684  1.1510 -1.3363
18411TIP3   OH276647   4.191   4.758  14.655  0.0753  0.0628 -0.3268
18411TIP3    H176648   4.144   4.841  14.648 -0.0418  0.2185  1.9240
18411TIP3    H276649   4.125   4.691  14.640 -0.4035  0.3340  0.5213
18412TIP3   OH276650   6.054   5.518   2.260 -0.1917  0.4729 -0.1950
18412TIP3    H176651   5.994   5.453   2.222 -0.7651 -0.1684  1.7303
18412TIP3    H276652   6.005   5.557   2.332  1.5697  0.1506  1.2354
18413TIP3   OH276653   4.085   0.865   1.297 -0.2811  0.3114 -0.2885
18413TIP3    H176654   4.081   0.781   1.343  2.2548  0.0257 -0.5115
18413TIP3    H276655   4.058   0.930   1.363  1.9414 -0.2445  1.2067
18414TIP3   OH276656   4.014   3.071   3.153  0.2168 -0.3414  0.0729
18414TIP3    H176657   4.109   3.062   3.160  0.2170 -2.0185 -1.5453
18414TIP3    H276658   3.999   3.091   3.060 -1.0037 -0.0228  0.3296
18415TIP3   OH276659   2.572   6.353   2.213 -0.5965  0.1072 -0.1033
18415TIP3    H176660   2.627   6.346   2.135 -0.1577 -2.1202  0.3540
18415TIP3    H276661   2.582   6.443   2.242  3.3507 -0.3887  0.3178
18416TIP3   OH276662   0.879   6.179   1.739  0.1114  1.2349 -0.1444
18416TIP3    H176663   0.948   6.112   1.742 -1.7931 -0.8057 -0.2330
18416TIP3    H276664   0.849   6.187   1.829  0.0288  1.6407 -0.2070
18417TIP3   OH276665   0.199   3.859  16.127  0.1419  0.4427  0.0953
18417TIP3    H176666   0.207   3.783  16.185  0.3694  0.5476  0.2008
18417TIP3    H276667   0.155   3.925  16.181 -0.5346  0.2137 -0.1624
18418TIP3   OH276668   4.102   1.594  11.908  0.0274  0.4797 -0.2417
18418TIP3    H176669   4.138   1.590  11.997  0.3842  2.3705 -0.2732
18418TIP3    H276670   4.155   1.532  11.858 -0.8796 -1.4181  1.0792
18419TIP3   OH276671   0.745   1.709  12.315 -0.3573 -0.0347  0.6331
18419TIP3    H176672   0.754   1.615  12.299  0.0913  0.4732 -2.4158
18419TIP3    H276673   0.652   1.722  12.330 -0.3263 -1.0447  1.7789
18420TIP3   OH276674   2.076   2.229   4.064 -0.5951 -0.5425  0.1186
18420TIP3    H176675   2.071   2.325   4.061 -0.1277 -0.4647  1.5477
18420TIP3    H276676   2.067   2.202   3.973  0.0116  0.8992 -0.3815
18421TIP3   OH276677   4.167   0.276   1.714  0.2158 -0.6291  0.7760
18421TIP3    H176678   4.191   0.227   1.635  0.9414  0.2821  0.4068
18421TIP3    H276679   4.072   0.267   1.720 -0.1147  0.9538 -1.3686
18422TIP3   OH276680   4.991   0.370   0.174  0.2939 -0.9705  0.3120
18422TIP3    H176681   4.972   0.456   0.137  0.5982 -1.5182 -1.1594
18422TIP3    H276682   4.916   0.350   0.229 -0.1664 -0.1335 -0.0042
18423TIP3   OH276683   5.265   6.273   4.938 -0.5572 -0.0623 -0.3620
18423TIP3    H176684   5.208   6.331   4.887 -0.6294  0.1194 -0.0769
18423TIP3    H276685   5.293   6.326   5.013 -1.1631 -0.6072  0.2563
18424TIP3   OH276686   4.453   4.460  15.652 -0.2241  0.1911  0.6298
18424TIP3    H176687   4.453   4.472  15.557 -0.0475  0.6151  0.6835
18424TIP3    H276688   4.377   4.511  15.682 -0.2933  0.0390  0.7157
18425TIP3   OH276689   0.567   3.404   4.517 -0.0513  0.3037 -0.4174
18425TIP3    H176690   0.579   3.497   4.532  0.1736  0.0859  0.8354
18425TIP3    H276691   0.478   3.386   4.549  0.1384 -0.0232 -0.0699
18426TIP3   OH276692   1.031   2.835  11.101  0.5219 -0.3451 -0.1364
18426TIP3    H176693   1.019   2.751  11.056 -0.8433 -0.1704 -0.1300
18426TIP3    H276694   1.008   2.900  11.035 -1.9249 -0.0981  0.8859
18427TIP3   OH276695   4.498   2.962   3.586  0.6702  0.2253 -0.0042
18427TIP3    H176696   4.447   3.042   3.594  2.1325  1.0379  1.6753
18427TIP3    H276697   4.548   2.958   3.667  1.6807 -1.6481 -0.6932
18428TIP3   OH276698   2.917   3.968   1.509  0.2541  0.2897  0.7840
18428TIP3    H176699   2.848   3.983   1.574  1.1332  3.0910  1.1228
18428TIP3    H276700   2.874   3.980   1.424 -0.4884 -1.6274  0.8646
18429TIP3   OH276701   5.272   5.248   4.370  0.2638  0.4987  0.8581
18429TIP3    H176702   5.328   5.308   4.322 -1.1956  2.1740  1.2043
18429TIP3    H276703   5.318   5.232   4.453  1.4050 -0.1351  0.1071
18430TIP3   OH276704   2.633   4.349  12.351 -0.6949  0.5386 -0.3301
18430TIP3    H176705   2.564   4.339  12.417 -0.6325  0.4356 -0.2804
18430TIP3    H276706   2.587   4.343  12.267 -0.3609 -2.6284 -0.3487
18431TIP3   OH276707   2.656   1.757  14.193 -0.3203 -0.1898  0.6859
18431TIP3    H176708   2.637   1.718  14.278 -1.6697 -0.0260  0.4641
18431TIP3    H276709   2.599   1.833  14.187  0.4729  0.3669  0.0428
18432TIP3   OH276710   2.828   1.294   4.630 -0.2231 -0.6577  0.0823
18432TIP3    H176711   2.820   1.390   4.627  1.2676 -0.5439 -0.5886
18432TIP3    H276712   2.814   1.272   4.722 -3.0729 -0.0468 -0.1667
18433TIP3   OH276713   4.325   6.082  17.177  0.1756 -0.0692  0.0739
18433TIP3    H176714   4.303   6.163  17.133 -0.8523 -0.7609 -0.7132
18433TIP3    H276715   4.377   6.033  17.113  0.9411  0.0234  0.6077
18434TIP3   OH276716   4.566   6.409   2.930 -0.5025 -0.3437  0.2936
18434TIP3    H176717   4.520   6.476   2.879  1.0201 -0.5948 -1.4322
18434TIP3    H276718   4.611   6.458   2.999 -0.8153  0.2303  0.0925
18435TIP3   OH276719   1.536   1.612  10.893 -0.3987 -0.3247  0.6389
18435TIP3    H176720   1.468   1.663  10.936 -0.4623 -1.3856  1.8189
18435TIP3    H276721   1.618   1.645  10.929 -0.2759  1.0020 -0.8358
18436TIP3   OH276722   4.104   1.155  13.952 -0.2744 -0.2521  0.1291
18436TIP3    H176723   4.191   1.161  13.991 -0.5692 -1.7233  1.0324
18436TIP3    H276724   4.121   1.141  13.859  0.4303  1.3313  0.0021
18437TIP3   OH276725   4.763   6.020   2.504  0.3824 -0.0645 -0.4871
18437TIP3    H176726   4.696   5.978   2.449  0.5257  0.2081 -0.8719
18437TIP3    H276727   4.804   6.085   2.447  0.0219  0.7474  0.1737
18438TIP3   OH276728   6.562   4.654  14.613  0.3983 -0.1359  0.3002
18438TIP3    H176729   6.502   4.721  14.580  1.5246 -0.0613 -1.7280
18438TIP3    H276730   6.640   4.664  14.559  1.4495 -1.5903  1.5071
18439TIP3   OH276731   1.062   0.106  13.616 -0.2867 -0.2265 -0.2611
18439TIP3    H176732   1.121   0.032  13.632  0.4181  0.0536 -1.4684
18439TIP3    H276733   1.117   0.173  13.576 -1.2322  0.3784 -0.5878
18440TIP3   OH276734   2.752   3.020  13.931  0.0356  0.7289 -0.0086
18440TIP3    H176735   2.722   3.058  14.014  0.6425  0.2886  0.4109
18440TIP3    H276736   2.689   3.052  13.866 -0.4517  1.0606  0.6233
18441TIP3   OH276737   2.939   5.194  12.208  0.1331  0.5900 -0.1748
18441TIP3    H176738   2.984   5.276  12.188  1.9989 -0.4500 -0.3518
18441TIP3    H276739   2.956   5.138  12.132  0.9187 -0.7857  0.9949
18442TIP3   OH276740   2.305   4.185   4.929  0.5803  0.4066  0.9327
18442TIP3    H176741   2.305   4.247   5.001 -1.8757  1.3417  0.1544
18442TIP3    H276742   2.228   4.130   4.944  2.1359 -1.8469  1.0531
18443TIP3   OH276743   6.432   6.725  12.360  0.3081  0.2483  0.2758
18443TIP3    H176744   6.376   6.792  12.399  2.3312  1.2415  1.5918
18443TIP3    H276745   6.472   6.769  12.284  0.4998  0.0495  0.2623
18444TIP3   OH276746   3.596   1.318   3.543 -0.9990 -0.0480  0.7692
18444TIP3    H176747   3.653   1.312   3.467  1.2284 -1.3320  2.4498
18444TIP3    H276748   3.610   1.406   3.578 -2.0189  0.5376 -0.2807
18445TIP3   OH276749   4.493   4.430   1.136 -0.8681  0.3870 -0.2629
18445TIP3    H176750   4.515   4.518   1.106  0.8814 -0.4819 -1.6532
18445TIP3    H276751   4.553   4.414   1.209 -0.7271  0.0881 -0.4457
18446TIP3   OH276752   2.740   5.509   1.517 -0.4277 -0.2153 -0.0489
18446TIP3    H176753   2.668   5.536   1.575 -1.2131  0.2488 -1.2221
18446TIP3    H276754   2.711   5.535   1.430  1.4026  0.4174 -0.4750
18447TIP3   OH276755   3.770   1.552  14.920 -0.5103  0.5436  0.4235
18447TIP3    H176756   3.802   1.630  14.966 -0.6456  0.8908 -0.0694
18447TIP3    H276757   3.819   1.479  14.960 -1.0606  0.7733  1.5328
18448TIP3   OH276758   5.654   1.145   3.621 -0.4590 -0.6858  0.0009
18448TIP3    H176759   5.583   1.174   3.564  0.8162  0.9845 -0.7497
18448TIP3    H276760   5.729   1.133   3.563  0.8573  1.0590  1.2925
18449TIP3   OH276761   1.397   4.381  16.097 -0.4542 -0.0929  0.3522
18449TIP3    H176762   1.478   4.397  16.047 -0.3701  1.6017  0.9933
18449TIP3    H276763   1.415   4.303  16.148  1.1182  0.7710  1.1506
18450TIP3   OH276764   0.611   0.375   1.312  0.3674  0.0578  0.0266
18450TIP3    H176765   0.587   0.383   1.405  0.1062 -1.2841  0.0788
18450TIP3    H276766   0.534   0.408   1.265  0.8647  1.6324  0.2912
18451TIP3   OH276767   5.274   0.685   1.729 -0.2596  0.2235  0.2145
18451TIP3    H176768   5.199   0.667   1.671 -0.4597 -0.7889  0.7794
18451TIP3    H276769   5.301   0.599   1.760  1.1857  0.5831 -0.0311
18452TIP3   OH276770   5.715   2.427   0.089 -0.2808  0.2945 -0.4367
18452TIP3    H176771   5.770   2.350   0.103  0.7783  1.0849 -0.1516
18452TIP3    H276772   5.657   2.403   0.017 -0.5672 -1.0763  0.2464
18453TIP3   OH276773   2.947   0.332   2.053 -0.3551 -0.0013 -0.3533
18453TIP3    H176774   3.014   0.304   1.991 -0.5384  0.1630 -0.6293
18453TIP3    H276775   2.956   0.273   2.127 -2.4175 -2.4667 -1.9727
18454TIP3   OH276776   0.090   0.395  15.223  0.2091 -0.1315  0.0708
18454TIP3    H176777   0.118   0.438  15.142  1.9677 -0.7395  0.3218
18454TIP3    H276778   0.039   0.461  15.270 -0.2079  0.4574 -1.2006
18455TIP3   OH276779   2.245   0.115  12.006 -0.5574  0.0783 -0.3180
18455TIP3    H176780   2.199   0.069  12.076 -0.3442 -0.7172 -0.6925
18455TIP3    H276781   2.186   0.186  11.981  0.5671  2.1396  2.5885
18456TIP3   OH276782   4.136   6.627   4.694 -0.2682 -0.2922 -0.4079
18456TIP3    H176783   4.143   6.585   4.608 -2.7774 -0.2062 -0.6895
18456TIP3    H276784   4.041   6.634   4.710  0.1382 -0.5864  2.4978
18457TIP3   OH276785   5.143   1.609   4.493 -0.4005  0.0312 -0.0041
18457TIP3    H176786   5.084   1.548   4.537  0.7453 -0.6215  0.6663
18457TIP3    H276787   5.120   1.603   4.401 -3.5772  2.2091  0.5737
18458TIP3   OH276788   0.791   3.233  11.496  0.2806  0.3367  0.2454
18458TIP3    H176789   0.829   3.184  11.569  0.9514  0.8234  0.2331
18458TIP3    H276790   0.819   3.185  11.418  2.5857  1.7985  0.1226
18459TIP3   OH276791   4.190   4.891   5.667 -0.3375 -0.3491 -0.7048
18459TIP3    H176792   4.236   4.974   5.677 -0.3827 -0.6334  2.3371
18459TIP3    H276793   4.098   4.914   5.679 -0.1973 -1.0706  1.9836
18460TIP3   OH276794   5.415   2.647  16.146  1.1577 -0.0300  0.2657
18460TIP3    H176795   5.477   2.575  16.157  0.6624 -0.7094 -1.3196
18460TIP3    H276796   5.357   2.641  16.221  1.3248 -1.0880  0.3160
18461TIP3   OH276797   0.612   3.228   5.238 -0.0299  0.8698 -0.0667
18461TIP3    H176798   0.522   3.196   5.241 -0.0950  0.9951 -0.6889
18461TIP3    H276799   0.658   3.163   5.185 -0.0901  1.6444 -1.0638
18462TIP3   OH276800   3.960   4.665   2.976  0.4726 -0.1331  0.1453
18462TIP3    H176801   3.977   4.594   3.038 -0.8255 -0.5662  0.0232
18462TIP3    H276802   4.000   4.742   3.016  0.4250 -0.5922  1.1045
18463TIP3   OH276803   2.622   4.907   5.224 -0.0944  0.3304 -0.1120
18463TIP3    H176804   2.697   4.928   5.168  0.9458  0.5808  1.3652
18463TIP3    H276805   2.609   4.985   5.278 -2.0766  0.6891 -1.0393
18464TIP3   OH276806   0.635   3.768  12.980 -0.0244  0.3703  0.3199
18464TIP3    H176807   0.602   3.782  13.068 -0.4730  1.3098  0.0044
18464TIP3    H276808   0.694   3.842  12.964  1.1407 -0.5375  0.3530
18465TIP3   OH276809   4.920   0.283  12.948 -0.0257 -0.0025  0.1854
18465TIP3    H176810   4.885   0.263  12.861 -0.2112 -0.2094  0.3058
18465TIP3    H276811   4.881   0.217  13.005 -0.6656  0.7336  0.6016
18466TIP3   OH276812   2.551   2.122  13.876  0.0441  0.2584 -0.0576
18466TIP3    H176813   2.613   2.131  13.804  0.4122  0.3407  0.2716
18466TIP3    H276814   2.467   2.151  13.839  0.3189  0.7084 -0.3213
18467TIP3   OH276815   4.171   5.951   4.139  0.2774 -0.6877 -0.4489
18467TIP3    H176816   4.076   5.963   4.140  0.6784  2.8285  1.0403
18467TIP3    H276817   4.189   5.911   4.054 -2.2967  1.1268 -1.9203
18468TIP3   OH276818   2.134   4.229   4.169 -0.3327 -0.2603 -0.3700
18468TIP3    H176819   2.120   4.300   4.106 -1.5107  1.7915  2.0846
18468TIP3    H276820   2.062   4.238   4.231  0.1654 -2.9150  0.6617
18469TIP3   OH276821   4.615   5.661  15.159 -0.1704  0.5388 -0.1554
18469TIP3    H176822   4.626   5.616  15.075 -1.4956  0.5523 -0.3459
18469TIP3    H276823   4.631   5.754  15.139  1.0863  0.3584 -0.0574
18470TIP3   OH276824   0.794   2.657  13.061 -0.3800  1.0116 -0.2666
18470TIP3    H176825   0.834   2.726  13.009  2.2858 -0.4868 -0.3195
18470TIP3    H276826   0.777   2.586  12.998 -2.3309  1.2788 -0.0758
18471TIP3   OH276827   2.890   0.279   1.258  0.2172 -0.1627  0.1733
18471TIP3    H176828   2.984   0.281   1.240  0.4466 -1.5573  1.0986
18471TIP3    H276829   2.852   0.228   1.186  0.3296 -0.5536  0.3867
18472TIP3   OH276830   1.713   2.260  17.212  0.3234 -0.2545 -0.3977
18472TIP3    H176831   1.683   2.171  17.227  1.0112 -0.1989  1.4748
18472TIP3    H276832   1.788   2.251  17.153 -0.2871 -0.8020 -1.0984
18473TIP3   OH276833   0.812   5.397  15.393 -0.2076 -0.0099 -0.3415
18473TIP3    H176834   0.896   5.356  15.374 -0.3143 -0.8153  0.9067
18473TIP3    H276835   0.750   5.354  15.334 -0.4041 -1.9908  1.2621
18474TIP3   OH276836   3.700   6.096   1.895  0.0518  0.0744  0.2297
18474TIP3    H176837   3.764   6.081   1.964  1.2290  0.4675 -0.7672
18474TIP3    H276838   3.752   6.114   1.817 -1.2477 -2.1740 -1.1979
18475TIP3   OH276839   1.769   5.670  15.497 -0.2393  0.1318 -0.3802
18475TIP3    H176840   1.689   5.722  15.492 -1.0450 -0.9957  0.4385
18475TIP3    H276841   1.840   5.734  15.491 -1.2018  1.3702  0.9963
18476TIP3   OH276842   1.694   5.216  14.986  0.2070  0.1418 -0.3293
18476TIP3    H176843   1.607   5.192  14.956 -1.4934  2.8283  2.1726
18476TIP3    H276844   1.721   5.145  15.043 -2.1762  1.1855  2.2063
18477TIP3   OH276845   3.600   6.002  10.675 -0.1859 -0.0320  0.6922
18477TIP3    H176846   3.652   5.924  10.693 -1.1394 -0.5046  1.4228
18477TIP3    H276847   3.512   5.970  10.657 -0.7566  0.9098  1.7074
18478TIP3   OH276848   0.713   4.577  14.046  0.3891 -0.0995 -0.5526
18478TIP3    H176849   0.628   4.607  14.016  0.4846 -1.2043 -1.9583
18478TIP3    H276850   0.693   4.510  14.111  0.2007  1.1941  0.7738
18479TIP3   OH276851   2.045   3.178   1.037  0.3052 -0.0648 -0.3232
18479TIP3    H176852   1.997   3.229   0.971 -0.1982  0.2583  0.2832
18479TIP3    H276853   2.024   3.221   1.120 -1.7347 -2.4029  0.4563
18480TIP3   OH276854   3.942   5.524   2.464  0.2573  0.4437  0.2789
18480TIP3    H176855   3.936   5.461   2.392  0.0859 -1.0463  1.5616
18480TIP3    H276856   3.853   5.557   2.475  0.3308  0.8546 -0.3375
18481TIP3   OH276857   6.509   1.576   2.458  0.3512  0.1904 -0.4164
18481TIP3    H176858   6.507   1.591   2.364  1.1134  0.8181 -0.3317
18481TIP3    H276859   6.484   1.660   2.497 -2.7967 -0.8365 -0.1095
18482TIP3   OH276860   2.739   5.398   3.968 -0.0607  0.4055  0.5257
18482TIP3    H176861   2.811   5.338   3.946 -1.4969 -1.4220  0.7101
18482TIP3    H276862   2.783   5.478   3.997  1.9023  0.2972 -1.9617
18483TIP3   OH276863   0.190   0.254  16.121 -0.2452  0.1101  0.7807
18483TIP3    H176864   0.115   0.228  16.068 -1.6395  2.4516  1.5079
18483TIP3    H276865   0.225   0.332  16.077  2.9125 -1.9940 -0.5597
18484TIP3   OH276866   4.626   1.503   3.685  0.1713 -0.7674  0.1069
18484TIP3    H176867   4.654   1.595   3.682  0.4294 -0.8587 -0.4911
18484TIP3    H276868   4.689   1.457   3.629  0.7796 -1.5151  1.3903
18485TIP3   OH276869   4.055   4.013  13.278 -0.3325  0.1594  0.1047
18485TIP3    H176870   4.128   3.984  13.332 -0.4953  0.2816  0.3948
18485TIP3    H276871   4.017   4.086  13.327 -0.9477 -0.2190  0.1956
18486TIP3   OH276872   0.825   0.094  11.596  0.1153 -0.2047 -0.1030
18486TIP3    H176873   0.743   0.131  11.629  0.6900  1.7222 -0.7599
18486TIP3    H276874   0.819   0.001  11.616 -0.9275  0.3999  2.5881
18487TIP3   OH276875   0.145   1.227  16.302  0.7445 -0.3288  0.2226
18487TIP3    H176876   0.222   1.261  16.348  1.0315  1.8147 -1.7290
18487TIP3    H276877   0.165   1.135  16.288  2.3077 -0.1432  1.0607
18488TIP3   OH276878   0.554   0.427   3.844 -0.1304  0.6366 -0.1230
18488TIP3    H176879   0.570   0.506   3.896  0.2187  0.8128 -0.4959
18488TIP3    H276880   0.471   0.443   3.800 -0.6222  0.3233  0.6909
18489TIP3   OH276881   6.782   2.079   4.568  0.2445  0.4203  0.4580
18489TIP3    H176882   6.763   2.122   4.651 -0.7887  1.6766 -0.4026
18489TIP3    H276883   6.710   2.017   4.556  1.0403 -0.6349  1.0721
18490TIP3   OH276884   5.915   5.071   3.963 -0.4332 -0.2682 -0.4759
18490TIP3    H176885   5.857   5.033   3.897  0.3239 -1.0116 -0.7161
18490TIP3    H276886   5.883   5.035   4.046 -0.9476  0.1225 -0.4989
18491TIP3   OH276887   1.261   1.843   6.074 -0.0802  0.3337 -0.1712
18491TIP3    H176888   1.186   1.789   6.098  1.0800 -0.9896  0.5347
18491TIP3    H276889   1.297   1.873   6.158  2.1634 -1.7800 -0.3178
18492TIP3   OH276890   3.161   4.181   3.094  0.7160 -0.0378  0.3987
18492TIP3    H176891   3.105   4.251   3.061  2.0103  0.3825 -1.0085
18492TIP3    H276892   3.174   4.201   3.186 -1.3420 -0.0853  0.7060
18493TIP3   OH276893   0.309   3.546   0.462 -0.3388  0.1271 -0.5003
18493TIP3    H176894   0.332   3.453   0.458  1.1032  0.5251 -1.9853
18493TIP3    H276895   0.381   3.591   0.416 -0.2834  2.1033  1.4053
18494TIP3   OH276896   2.529   0.610   0.210 -0.3372  0.7111 -0.8492
18494TIP3    H176897   2.590   0.637   0.141  1.6633  0.0411  0.6110
18494TIP3    H276898   2.538   0.676   0.278 -2.1161  1.2284 -1.0892
18495TIP3   OH276899   2.913   3.144   2.395 -0.4343  0.3315  0.1744
18495TIP3    H176900   2.996   3.114   2.359 -0.7679  0.7293 -0.9544
18495TIP3    H276901   2.848   3.116   2.331 -1.1776 -0.0429  1.0941
18496TIP3   OH276902   1.926   0.563   3.213  0.1672 -0.8480 -0.3432
18496TIP3    H176903   1.832   0.580   3.208  0.2397 -0.6169 -1.0297
18496TIP3    H276904   1.933   0.470   3.235 -0.2258  0.0080  3.7124
18497TIP3   OH276905   1.019   3.172  12.100  0.5461  0.0828  0.3497
18497TIP3    H176906   0.955   3.183  12.170  1.5482 -0.4928  1.3719
18497TIP3    H276907   1.050   3.260  12.081  0.8871  0.1484  1.2167
18498TIP3   OH276908   4.810   5.129  10.901  0.6492  0.4290 -0.3481
18498TIP3    H176909   4.738   5.068  10.916  0.9785  0.1165 -0.0192
18498TIP3    H276910   4.871   5.112  10.972  0.8595  0.9726 -0.3978
18499TIP3   OH276911   4.233   4.565   5.506  0.1354 -0.1126  0.3400
18499TIP3    H176912   4.150   4.584   5.550 -1.4893 -0.5804 -2.3563
18499TIP3    H276913   4.238   4.469   5.506  0.6649 -0.0860  0.4813
18500TIP3   OH276914   6.039   5.964   6.015 -0.1820  0.2705 -0.1766
18500TIP3    H176915   6.036   5.990   6.107  0.9027 -0.8301  0.1954
18500TIP3    H276916   6.081   5.877   6.017 -0.1597  0.2437 -1.7007
18501TIP3   OH276917   4.264   1.448  15.737  0.1224 -0.2235  0.3102
18501TIP3    H176918   4.209   1.413  15.667 -0.2139  0.4918  0.2090
18501TIP3    H276919   4.203   1.464  15.809  0.0990  1.0708  0.0158
18502TIP3   OH276920   6.456   2.742  14.316  0.0715 -0.1906 -0.0945
18502TIP3    H176921   6.545   2.706  14.312 -0.4556 -1.4643 -0.8804
18502TIP3    H276922   6.399   2.665  14.312 -1.0633  0.5392  1.3675
18503TIP3   OH276923   2.401   3.749   4.930 -0.1932  0.6694 -0.0499
18503TIP3    H176924   2.463   3.685   4.963  1.0936  2.5131  1.2561
18503TIP3    H276925   2.363   3.708   4.852  1.0149 -1.4065  0.4103
18504TIP3   OH276926   2.039   1.937   4.410 -0.6681  0.3631 -0.1972
18504TIP3    H176927   1.967   1.880   4.437  0.1046 -2.4062 -3.6397
18504TIP3    H276928   2.096   1.942   4.487 -1.7657 -1.9585  0.8252
18505TIP3   OH276929   3.354   4.707   0.679 -0.4268  0.0233  0.2113
18505TIP3    H176930   3.264   4.718   0.649  0.1949  1.5829 -1.2303
18505TIP3    H276931   3.383   4.796   0.702  0.2825 -0.6631  2.0416
18506TIP3   OH276932   4.239   2.960   1.023 -0.2159  0.1261  0.7120
18506TIP3    H176933   4.294   2.884   1.000 -0.7315  0.0065 -0.1292
18506TIP3    H276934   4.293   3.010   1.085  1.1859  0.4317 -0.7164
18507TIP3   OH276935   0.428   5.534   3.875 -0.0775  0.3077 -0.2674
18507TIP3    H176936   0.468   5.562   3.793 -1.0565  0.4699 -0.6979
18507TIP3    H276937   0.488   5.468   3.910  0.1783  0.0078 -1.2704
18508TIP3   OH276938   0.731   1.507  14.963 -0.2445  0.3361 -0.7513
18508TIP3    H176939   0.767   1.596  14.958  2.0204 -0.3683  1.7993
18508TIP3    H276940   0.797   1.453  14.919  0.9250 -0.6992  2.1576
18509TIP3   OH276941   2.588   5.725   0.004 -0.1510 -0.5169 -0.4038
18509TIP3    H176942   2.580   5.688   0.092 -3.3659 -4.3738 -2.1478
18509TIP3    H276943   2.683   5.731  -0.011  0.4536 -0.7689  2.9140
18510TIP3   OH276944   5.718   0.781   0.147  0.1122  0.0888  0.0062
18510TIP3    H176945   5.697   0.839   0.221 -0.9434 -0.2209 -0.0417
18510TIP3    H276946   5.659   0.810   0.077  2.0057  1.2331 -1.1512
18511TIP3   OH276947   1.334   3.328  17.038  0.3867  0.0566 -0.8413
18511TIP3    H176948   1.303   3.255  17.091 -0.4241  0.2259 -1.0740
18511TIP3    H276949   1.429   3.325  17.046  0.3044 -0.3814  0.0004
18512TIP3   OH276950   2.941   5.369  13.504 -0.2106 -0.5616  0.0274
18512TIP3    H176951   2.860   5.337  13.465  0.0778 -2.1544  0.6999
18512TIP3    H276952   3.009   5.349  13.439 -0.4346  1.4485 -0.8663
18513TIP3   OH276953   3.536   1.560   4.605  0.2927 -0.1232  0.2061
18513TIP3    H176954   3.497   1.480   4.571 -0.6886  0.1121  0.7753
18513TIP3    H276955   3.523   1.554   4.700 -0.2855  0.9881  0.1958
18514TIP3   OH276956   1.253   1.276  11.493  0.3813 -0.0019 -0.6332
18514TIP3    H176957   1.257   1.180  11.485 -1.1280 -0.1494  0.3060
18514TIP3    H276958   1.340   1.305  11.466  1.1154 -1.6981 -0.1809
18515TIP3   OH276959   3.082   1.183  10.784  0.0285 -0.0856  0.0363
18515TIP3    H176960   3.037   1.164  10.702  1.0772 -0.5874 -0.4411
18515TIP3    H276961   3.174   1.163  10.766  0.1960 -0.7435  1.4998
18516TIP3   OH276962   2.037   1.824   2.840 -0.2077 -0.4568  0.2217
18516TIP3    H176963   2.009   1.753   2.899 -0.3274  0.1527  0.8981
18516TIP3    H276964   2.100   1.874   2.891  0.1519 -0.2839 -0.3905
18517TIP3   OH276965   3.035   0.806   1.048 -0.3731  0.1947  0.5131
18517TIP3    H176966   3.083   0.723   1.056 -0.6713 -0.4510 -3.6507
18517TIP3    H276967   2.949   0.787   1.086  0.1840 -0.7906  1.3421
18518TIP3   OH276968   2.473   6.269  15.001 -0.4034  0.8868 -0.5814
18518TIP3    H176969   2.423   6.228  15.072 -0.7682  3.1093  0.4987
18518TIP3    H276970   2.565   6.253  15.024 -0.5605 -1.1808 -1.3303
18519TIP3   OH276971   4.520   6.778  12.778 -0.0103 -0.3305  0.3853
18519TIP3    H176972   4.538   6.846  12.843 -0.5974 -2.2027  2.5789
18519TIP3    H276973   4.430   6.795  12.750  0.2670  0.5276  0.0161
18520TIP3   OH276974   2.557   0.351  16.608 -0.1953  0.0095 -0.2409
18520TIP3    H176975   2.604   0.301  16.675 -0.4181 -0.6108 -0.5434
18520TIP3    H276976   2.608   0.337  16.528  0.3313  1.1252 -0.1094
18521TIP3   OH276977   2.698   6.331   1.219 -1.0442 -0.0164 -0.9017
18521TIP3    H176978   2.726   6.419   1.243 -0.3960  0.0948 -2.0223
18521TIP3    H276979   2.720   6.323   1.126 -2.1446 -0.9517 -1.1037
18522TIP3   OH276980   1.917   6.656   0.922  0.1116  0.2763  0.0291
18522TIP3    H176981   1.827   6.626   0.934  0.5765 -0.9857  0.3857
18522TIP3    H276982   1.946   6.613   0.842  0.3762  0.7629 -0.1396
18523TIP3   OH276983   1.583   6.167  12.601  0.2248 -0.1268  0.7837
18523TIP3    H176984   1.502   6.126  12.630  0.0291  0.7268  1.4508
18523TIP3    H276985   1.629   6.189  12.681 -0.0348  1.6704  0.4604
18524TIP3   OH276986   1.003   3.436   1.540 -0.4225  0.3450  0.6116
18524TIP3    H176987   0.989   3.357   1.489  0.2739  1.4276 -1.3253
18524TIP3    H276988   1.042   3.406   1.621  2.1074 -1.1036 -1.0665
18525TIP3   OH276989   0.091   1.296   1.850  0.2092 -0.6108 -0.0208
18525TIP3    H176990   0.028   1.335   1.911 -0.7102 -2.9425  0.5962
18525TIP3    H276991   0.146   1.368   1.822 -1.3912  1.0918  1.1157
18526TIP3   OH276992   6.754   6.242  13.992 -0.4290 -0.1372  0.3318
18526TIP3    H176993   6.837   6.235  14.041 -0.3871  1.3819  0.5068
18526TIP3    H276994   6.706   6.311  14.037 -0.6663  0.8484 -1.3962
18527TIP3   OH276995   0.236   2.433  11.449  0.2320  0.0905  0.4435
18527TIP3    H176996   0.282   2.351  11.431  0.4449  0.3686 -0.3173
18527TIP3    H276997   0.190   2.417  11.531  1.4232 -0.3072  1.0583
18528TIP3   OH276998   1.762   1.328   2.860 -0.6544 -0.0611  0.6032
18528TIP3    H176999   1.835   1.337   2.799  1.3347 -1.9818  2.6160
18528TIP3    H277000   1.734   1.418   2.878  1.0337  0.6808 -0.3970
18529TIP3   OH277001   5.916   4.688  15.969 -0.7528 -0.6963 -0.1933
18529TIP3    H177002   5.901   4.620  15.903 -0.9714 -1.4525  0.6332
18529TIP3    H277003   5.828   4.713  15.998 -0.6592 -0.3033 -0.2383
18530TIP3   OH277004   1.618   3.157  14.866  0.4471  0.0107  0.1135
18530TIP3    H177005   1.554   3.223  14.891  0.9297  0.0593  1.2514
18530TIP3    H277006   1.589   3.126  14.780 -1.6576 -0.6922  1.0645
18531TIP3   OH277007   0.249   3.197  10.352 -0.5488  0.2694  0.2844
18531TIP3    H177008   0.179   3.249  10.393 -0.5786  0.7876 -0.4270
18531TIP3    H277009   0.206   3.114  10.330 -0.9293  0.5749 -0.1246
18532TIP3   OH277010   3.603   5.425  15.667 -0.2914  0.6458  0.3921
18532TIP3    H177011   3.511   5.448  15.677 -0.4098  0.6375 -0.5956
18532TIP3    H277012   3.631   5.473  15.589  0.2473 -0.2138  0.0497
18533TIP3   OH277013   2.475   3.442  16.597  0.3634 -0.6488  0.2609
18533TIP3    H177014   2.472   3.492  16.679  0.5382 -0.5239  0.1906
18533TIP3    H277015   2.500   3.353  16.624  2.2834 -0.1733  0.1436
18534TIP3   OH277016   2.277   0.161  11.720  0.0725 -0.1587  0.1471
18534TIP3    H177017   2.187   0.129  11.722  0.0729 -0.2370 -0.7798
18534TIP3    H277018   2.288   0.195  11.631  1.0647 -0.4692  0.1464
18535TIP3   OH277019   0.662   5.211  13.510 -0.5628 -0.0769  0.4274
18535TIP3    H177020   0.617   5.282  13.555  1.4887  0.4510  1.7127
18535TIP3    H277021   0.747   5.248  13.486  0.0767 -1.7269  0.0696
18536TIP3   OH277022   5.317   0.585  12.223 -0.0105 -0.1492  0.0376
18536TIP3    H177023   5.395   0.551  12.267  0.1657  1.1160  0.7310
18536TIP3    H277024   5.316   0.678  12.244 -1.1839  0.0367 -0.7672
18537TIP3   OH277025   2.714   1.651   4.298  0.9835 -0.6081  0.2740
18537TIP3    H177026   2.751   1.566   4.275  1.1751 -0.8127  1.3021
18537TIP3    H277027   2.647   1.631   4.364 -0.9172 -0.2394 -1.4793
18538TIP3   OH277028   5.004   5.171   5.938 -0.3106  0.0389 -0.1696
18538TIP3    H177029   5.006   5.256   5.981 -1.5052 -0.3350  0.6717
18538TIP3    H277030   4.911   5.152   5.926 -0.0150 -0.1635 -2.3626
18539TIP3   OH277031   5.060   6.108   1.464 -0.3695 -0.2135  0.3139
18539TIP3    H177032   5.085   6.199   1.483  0.0296 -0.3293  0.3517
18539TIP3    H277033   5.122   6.055   1.514 -0.4127 -0.5099  0.0580
18540TIP3   OH277034   5.526   1.603   3.093  0.3583 -0.2883 -0.8307
18540TIP3    H177035   5.486   1.652   3.165 -1.6804 -1.6400 -1.0027
18540TIP3    H277036   5.562   1.670   3.035  0.3760  0.8814  0.5091
18541TIP3   OH277037   3.452   1.483  14.174  0.5174  0.1140  0.1546
18541TIP3    H177038   3.495   1.488  14.260 -0.5178  0.5506  0.6483
18541TIP3    H277039   3.360   1.469  14.194  0.0766  1.4804 -0.8679
18542TIP3   OH277040   3.302   6.577  13.020  0.1869  0.0547  0.1352
18542TIP3    H177041   3.249   6.605  12.946  0.4465  0.9278  0.2775
18542TIP3    H277042   3.241   6.567  13.092 -0.0989 -1.0034 -0.2441
18543TIP3   OH277043   2.217   2.336  11.408  0.2919  0.0438  0.2505
18543TIP3    H177044   2.173   2.271  11.463  0.6866 -0.4360  0.0066
18543TIP3    H277045   2.282   2.286  11.359 -0.3137  0.3866 -0.9422
18544TIP3   OH277046   2.644   2.806  13.056  0.4553  0.0529 -0.2844
18544TIP3    H177047   2.663   2.756  12.977  1.3867 -0.6820  0.4000
18544TIP3    H277048   2.554   2.782  13.079 -0.3831  1.4586 -1.9861
18545TIP3   OH277049   3.790   6.203  10.106  0.0726 -0.5900  0.0318
18545TIP3    H177050   3.717   6.207  10.168  2.0840 -1.3628  2.5242
18545TIP3    H277051   3.756   6.149  10.033 -1.4869 -1.8670  1.6369
18546TIP3   OH277052   5.441   3.610   3.613 -0.3316 -0.3270 -0.2389
18546TIP3    H177053   5.373   3.546   3.590 -0.3994  0.1221 -1.3178
18546TIP3    H277054   5.474   3.641   3.529  1.4431 -0.7752  0.2737
18547TIP3   OH277055   0.623   3.378   0.060  0.0856 -0.0536 -0.0761
18547TIP3    H177056   0.708   3.416   0.038 -0.0959 -0.3689 -1.3846
18547TIP3    H277057   0.578   3.370  -0.024 -0.6516 -1.3074  0.4312
18548TIP3   OH277058   2.559   1.773  11.677 -0.8749  0.1955 -0.1170
18548TIP3    H177059   2.597   1.688  11.697 -2.3866 -0.0008  2.1645
18548TIP3    H277060   2.467   1.755  11.658 -1.3478  1.3714  0.9870
18549TIP3   OH277061   6.449   1.030   0.080  0.3815  0.3750 -0.4829
18549TIP3    H177062   6.421   0.943   0.110 -0.4592  0.4678 -0.9923
18549TIP3    H277063   6.515   1.056   0.144  0.3593 -0.4717 -0.0948
18550TIP3   OH277064   6.692   2.234   6.021 -0.4674 -0.1993 -0.0269
18550TIP3    H177065   6.679   2.199   6.110  0.0007 -2.8863 -0.9511
18550TIP3    H277066   6.787   2.238   6.011 -0.5179  0.0472 -0.4083
18551TIP3   OH277067   1.405   0.993   3.284  0.3184 -0.3823  0.4742
18551TIP3    H177068   1.318   1.011   3.318  0.3025 -2.4280  1.5763
18551TIP3    H277069   1.464   1.024   3.353  0.4979  1.2909 -0.4057
18552TIP3   OH277070   4.236   1.190   5.220 -0.2663 -0.0945  0.3616
18552TIP3    H177071   4.243   1.223   5.130  0.1141 -1.1135  0.0040
18552TIP3    H277072   4.143   1.187   5.238 -0.3618 -0.2464 -0.1474
18553TIP3   OH277073   0.424   1.079   1.051  0.3966 -0.5458  0.4094
18553TIP3    H177074   0.393   1.076   0.961  0.1378 -1.3444  0.5222
18553TIP3    H277075   0.377   1.152   1.091  0.8761  0.1194 -0.2370
18554TIP3   OH277076   4.855   2.319  15.072  0.3688 -0.4741 -0.1478
18554TIP3    H177077   4.930   2.261  15.083  1.4721  0.4946 -2.3020
18554TIP3    H277078   4.863   2.352  14.983  1.2158  4.9745  1.7482
18555TIP3   OH277079   0.715   0.257   3.442 -0.0148 -0.2062 -1.1456
18555TIP3    H177080   0.777   0.330   3.447 -1.1141  0.7538 -1.1825
18555TIP3    H277081   0.687   0.244   3.532 -1.5769  0.9881 -1.4359
18556TIP3   OH277082   6.316   0.563   3.441  0.0996  0.6758  0.0052
18556TIP3    H177083   6.239   0.619   3.431 -0.5457 -0.4222 -1.2450
18556TIP3    H277084   6.387   0.613   3.402 -0.6804  0.1952 -2.0868
18557TIP3   OH277085   6.270   4.651  15.970  0.4935 -0.3089  0.0722
18557TIP3    H177086   6.309   4.708  15.904 -0.2829  0.0191 -0.0971
18557TIP3    H277087   6.343   4.631  16.030  1.3549 -1.1100 -1.2127
18558TIP3   OH277088   4.871   3.041  17.048  0.8766 -0.0989 -0.2176
18558TIP3    H177089   4.783   3.034  17.086  0.2543  0.6111 -1.5222
18558TIP3    H277090   4.929   3.007  17.117 -0.4095 -0.6157  0.6329
18559TIP3   OH277091   6.474   2.259   5.681 -0.5858  0.1697  0.6818
18559TIP3    H177092   6.481   2.170   5.717  1.7854  0.9372  2.2432
18559TIP3    H277093   6.564   2.281   5.655 -1.3980  1.5837 -1.0342
18560TIP3   OH277094   0.488   6.769   2.162  0.3855 -0.3615 -0.4403
18560TIP3    H177095   0.451   6.793   2.077 -0.3929  0.6607  0.1624
18560TIP3    H277096   0.581   6.790   2.155  0.1473  0.6251 -0.7295
18561TIP3   OH277097   6.727   6.739  10.816 -0.5257  0.1732 -0.3218
18561TIP3    H177098   6.794   6.806  10.827 -0.5363  0.2635 -0.7916
18561TIP3    H277099   6.770   6.670  10.766 -0.3954 -0.3534  0.5102
18562TIP3   OH277100   1.720   2.213  14.019  0.3920  0.6129  0.5296
18562TIP3    H177101   1.765   2.294  13.995 -0.6209  1.2397  0.7121
18562TIP3    H277102   1.638   2.243  14.059  1.1164 -0.4288  2.9102
18563TIP3   OH277103   6.497   5.654   5.632  0.4420 -0.0986 -0.5905
18563TIP3    H177104   6.543   5.597   5.694  0.2382  1.0868  0.6739
18563TIP3    H277105   6.434   5.702   5.686  0.8130  1.5258 -1.5830
18564TIP3   OH277106   3.988   6.631  11.633 -0.5210  0.6397 -0.0051
18564TIP3    H177107   4.039   6.626  11.552 -0.1610 -1.6688  0.3250
18564TIP3    H277108   4.054   6.624  11.702 -1.1711 -1.3824  0.4375
18565TIP3   OH277109   0.964   2.826  10.420  0.1927 -1.0745 -0.4732
18565TIP3    H177110   0.878   2.849  10.384  0.5880 -0.9519 -1.3487
18565TIP3    H277111   0.944   2.781  10.502 -0.6733 -0.1068 -0.1384
18566TIP3   OH277112   5.096   2.563  13.187 -0.1822  0.0496 -0.3260
18566TIP3    H177113   5.142   2.480  13.176  1.1118  0.8606 -1.2571
18566TIP3    H277114   5.099   2.581  13.281 -0.5381 -0.9862 -0.1129
18567TIP3   OH277115   1.330   4.203  15.850 -0.0929 -0.5498  0.5476
18567TIP3    H177116   1.279   4.129  15.819 -1.4759 -0.2774  2.0755
18567TIP3    H277117   1.293   4.222  15.937  2.5630 -0.2849  1.6464
18568TIP3   OH277118   2.004   2.634   3.026 -0.5555 -0.0757 -0.2070
18568TIP3    H177119   2.090   2.634   3.067 -0.8900  1.2224  0.5294
18568TIP3    H277120   1.947   2.590   3.089 -1.2177  2.5507  1.1227
18569TIP3   OH277121   5.139   1.416  11.601  0.4545  0.1762  1.2248
18569TIP3    H177122   5.187   1.487  11.559  0.7314 -1.1447 -0.7524
18569TIP3    H277123   5.047   1.433  11.581  0.5567 -0.2493  0.3727
18570TIP3   OH277124   6.686   0.743  16.541 -0.1748  0.0940 -0.3115
18570TIP3    H177125   6.601   0.782  16.524 -0.7812 -1.3938 -0.7023
18570TIP3    H277126   6.668   0.670  16.599  0.9368  0.2317  0.2239
18571TIP3   OH277127   0.744   5.933   5.404 -0.4389  0.1771 -0.0215
18571TIP3    H177128   0.674   5.908   5.342 -0.7647  0.7120  0.1282
18571TIP3    H277129   0.728   6.026   5.421  1.3808  0.7654 -1.3733
18572TIP3   OH277130   6.067   5.593  17.052 -0.0073  0.1127  0.9149
18572TIP3    H177131   6.090   5.685  17.060  1.0033  0.1283 -1.7325
18572TIP3    H277132   6.022   5.587  16.968  0.6634 -1.9291  0.6788
18573TIP3   OH277133   3.816   2.640   4.609 -0.2383 -0.1963  0.1166
18573TIP3    H177134   3.882   2.637   4.540 -0.0633  2.8103  0.0848
18573TIP3    H277135   3.855   2.590   4.681  1.4345  0.2037 -0.4801
18574TIP3   OH277136   6.042   2.669  12.099  0.0738 -0.3164  0.3160
18574TIP3    H177137   5.955   2.701  12.073  0.6004 -0.2388 -1.4018
18574TIP3    H277138   6.085   2.745  12.137 -0.4535 -0.2540  0.8062
18575TIP3   OH277139   3.715   0.052  16.811  0.0335  0.9413  0.0097
18575TIP3    H177140   3.702  -0.023  16.868 -0.0040  1.0566  0.1509
18575TIP3    H277141   3.637   0.054  16.755 -0.8581  1.9535  1.2348
18576TIP3   OH277142   0.520   2.387   2.562  0.6358 -0.3151  0.5517
18576TIP3    H177143   0.493   2.306   2.517  0.1611  0.0668  0.1334
18576TIP3    H277144   0.450   2.403   2.625  0.5785 -0.0766  0.4291
18577TIP3   OH277145   0.019   0.344  14.418 -0.5046 -0.3942 -0.4969
18577TIP3    H177146   0.041   0.251  14.422 -0.8548 -0.4572  0.0593
18577TIP3    H277147  -0.052   0.355  14.482 -0.2592  0.3116 -0.3329
18578TIP3   OH277148   2.659   4.807  12.349  0.0044 -0.0985 -1.0198
18578TIP3    H177149   2.567   4.784  12.337 -0.5856  1.4573  0.3067
18578TIP3    H277150   2.697   4.731  12.394 -1.1603  0.1480  0.4240
18579TIP3   OH277151   4.921   3.307  16.270  0.1038  0.5140  0.4011
18579TIP3    H177152   4.993   3.327  16.211 -0.3761  0.8387 -0.0752
18579TIP3    H277153   4.959   3.315  16.358  0.6793  0.5546  0.1458
18580TIP3   OH277154   3.962   0.178  12.846  0.1507 -0.1416 -0.1511
18580TIP3    H177155   3.977   0.202  12.937  2.7239 -0.4940 -0.4303
18580TIP3    H277156   4.021   0.236  12.796 -0.2726 -0.8292 -1.4758
18581TIP3   OH277157   5.021   2.573  15.981  0.0276  0.1963  0.0812
18581TIP3    H177158   5.080   2.498  15.973  0.3385  0.1107  2.6970
18581TIP3    H277159   5.060   2.627  16.050 -1.6646  1.3463  0.1703
18582TIP3   OH277160   5.665   2.916   5.627 -0.4278  0.2798  0.3748
18582TIP3    H177161   5.668   2.918   5.532  2.6376  1.3620  0.4131
18582TIP3    H277162   5.757   2.904   5.653 -1.2828 -0.4982  3.1680
18583TIP3   OH277163   0.248   6.772  10.899 -0.0397  0.1919  0.0610
18583TIP3    H177164   0.257   6.704  10.967 -0.9443 -0.5385 -0.5430
18583TIP3    H277165   0.185   6.834  10.935  0.9188  0.8230  0.6885
18584TIP3   OH277166   6.361   2.715  11.349 -0.6451 -0.3962  0.1539
18584TIP3    H177167   6.415   2.638  11.366  0.5361  0.7868  1.8249
18584TIP3    H277168   6.289   2.709  11.412 -0.8412 -0.4010 -0.0682
18585TIP3   OH277169   5.344   3.611   2.954  0.5129 -0.2548 -0.1106
18585TIP3    H177170   5.347   3.549   3.027 -0.3291 -1.3215 -0.9568
18585TIP3    H277171   5.427   3.598   2.908  0.0059 -1.3634 -0.7481
18586TIP3   OH277172   6.754   2.649   1.721 -0.3682 -0.2280 -0.0579
18586TIP3    H177173   6.724   2.630   1.810 -2.6967  1.9654 -0.3129
18586TIP3    H277174   6.677   2.685   1.677  1.5791  1.6979 -2.0010
18587TIP3   OH277175   5.669   5.494   3.184  0.1612 -0.1392 -0.2747
18587TIP3    H177176   5.616   5.418   3.159 -0.6099 -0.0037  0.8667
18587TIP3    H277177   5.714   5.467   3.264 -0.2179  0.6441  0.2149
18588TIP3   OH277178   5.847   3.165  14.259  0.3452 -0.0889 -0.3597
18588TIP3    H177179   5.795   3.205  14.329  1.3908  0.1010  0.3161
18588TIP3    H277180   5.843   3.228  14.187  0.7130  0.5295  0.1536
18589TIP3   OH277181   4.768   5.353  11.671  0.0658 -0.0024  0.5718
18589TIP3    H177182   4.759   5.447  11.690  0.2427  0.3085 -0.8138
18589TIP3    H277183   4.736   5.310  11.750 -0.2571  1.2227  1.1336
18590TIP3   OH277184   3.706   5.204  16.826  0.2830 -0.1825 -0.1872
18590TIP3    H177185   3.745   5.117  16.831  0.9277  0.0590 -0.7628
18590TIP3    H277186   3.760   5.258  16.884  0.4696  0.0328 -0.5566
18591TIP3   OH277187   6.532   4.516  14.920 -0.1246 -0.3382  0.0957
18591TIP3    H177188   6.442   4.500  14.949 -0.2173 -0.0401 -0.0293
18591TIP3    H277189   6.534   4.610  14.900  1.0288  0.2887  2.9702
18592TIP3   OH277190   4.265   4.279   5.508  0.3310  0.2032 -0.1096
18592TIP3    H177191   4.337   4.264   5.569  0.8378  1.1384 -0.4637
18592TIP3    H277192   4.290   4.232   5.429 -0.5066 -1.3328  0.5136
18593TIP3   OH277193   5.068   4.490   2.945 -0.1912 -0.5556 -0.5161
18593TIP3    H177194   5.129   4.431   2.901 -0.5791 -1.9903  0.8666
18593TIP3    H277195   5.056   4.453   3.032 -2.8110 -0.1522 -0.6614
18594TIP3   OH277196   3.231   6.703   4.943 -0.1624 -0.0626 -0.7295
18594TIP3    H177197   3.240   6.789   4.902 -0.6826  0.5379  0.3969
18594TIP3    H277198   3.314   6.659   4.926  0.5478  1.1066 -0.2823
18595TIP3   OH277199   2.152   0.371  13.602  0.7473 -0.1395 -0.0663
18595TIP3    H177200   2.228   0.313  13.591 -0.6642 -1.6003 -2.6435
18595TIP3    H277201   2.159   0.402  13.692  3.1158 -2.1216  0.5028
18596TIP3   OH277202   4.855   0.810   0.533  0.2111  0.2061  0.0660
18596TIP3    H177203   4.815   0.892   0.505  2.5519  0.2886 -3.4149
18596TIP3    H277204   4.935   0.837   0.580  0.3495 -0.0520 -0.0211
18597TIP3   OH277205   6.372   3.913   3.676  0.1786  0.0395  0.0482
18597TIP3    H177206   6.327   3.884   3.597  0.7845  1.4387 -0.8236
18597TIP3    H277207   6.319   3.878   3.748 -0.3596 -1.2541 -0.9662
18598TIP3   OH277208   6.124   3.470  14.678  0.1339 -0.1777 -0.0462
18598TIP3    H177209   6.171   3.391  14.648 -1.2762 -0.8079 -0.6183
18598TIP3    H277210   6.191   3.520  14.726  1.1424 -1.5400  0.0164
18599TIP3   OH277211   4.824   3.695   5.543  0.4733 -0.5763  0.3352
18599TIP3    H177212   4.780   3.690   5.459  2.0275 -2.7185 -0.3888
18599TIP3    H277213   4.842   3.789   5.555 -1.3512 -0.0620 -0.8471
18600TIP3   OH277214   1.327   0.032  14.652  0.2167 -0.7163 -0.9302
18600TIP3    H177215   1.363   0.121  14.659  2.1834 -1.5805 -0.0369
18600TIP3    H277216   1.403  -0.025  14.642 -0.7175 -2.7147  2.4301
18601TIP3   OH277217   3.705   5.661  12.479  0.1739 -0.4773 -0.7502
18601TIP3    H177218   3.731   5.753  12.480  0.8741 -0.6590 -1.4132
18601TIP3    H277219   3.688   5.640  12.570 -1.0700  0.6050 -0.7155
18602TIP3   OH277220   4.821   2.935  14.185 -0.1943 -0.5745 -0.3517
18602TIP3    H177221   4.785   2.957  14.100 -0.4026 -1.5703 -0.5349
18602TIP3    H277222   4.764   2.865  14.218  0.1554 -0.5173  0.3933
18603TIP3   OH277223   5.249   0.799   3.221 -0.1482  0.1461  0.2580
18603TIP3    H177224   5.207   0.791   3.307  0.6191 -1.3321  0.5092
18603TIP3    H277225   5.179   0.778   3.159 -0.5996  0.8183  0.5311
18604TIP3   OH277226   5.453   4.905   3.901  0.2605  0.1618 -0.0439
18604TIP3    H177227   5.418   4.818   3.880 -2.7196  1.2118  0.2879
18604TIP3    H277228   5.464   4.904   3.996  2.2645 -0.5352 -0.2607
18605TIP3   OH277229   1.898   0.335  13.463  0.2030 -0.2380  0.0965
18605TIP3    H177230   1.929   0.390  13.391  0.0256  1.1267  1.0436
18605TIP3    H277231   1.978   0.301  13.503  0.2889 -2.0402 -1.4866
18606TIP3   OH277232   6.020   1.866  14.846  0.2719 -0.2810 -0.0894
18606TIP3    H177233   6.008   1.846  14.753  2.5799  1.5645 -0.8387
18606TIP3    H277234   6.036   1.960  14.849 -2.6965  0.2400  2.5310
18607TIP3   OH277235   6.299   2.693   1.365  0.0015  0.1262  0.5468
18607TIP3    H177236   6.355   2.637   1.312  0.1777 -0.0691  0.9394
18607TIP3    H277237   6.231   2.724   1.304  0.3741  0.1433  0.1409
18608TIP3   OH277238   6.284   6.540  10.838 -0.7299 -0.3012 -0.5108
18608TIP3    H177239   6.220   6.469  10.849 -0.6223 -0.6432 -2.0138
18608TIP3    H277240   6.297   6.546  10.743  1.0004  0.1842 -0.2562
18609TIP3   OH277241   1.623   5.932   4.948  0.3153 -0.4490  0.8693
18609TIP3    H177242   1.670   6.011   4.922 -0.1860 -0.0240  1.2542
18609TIP3    H277243   1.603   5.888   4.866  0.6228 -0.1979  0.6583
18610TIP3   OH277244   5.358   1.624   5.202  0.2557 -0.1170  0.1777
18610TIP3    H177245   5.368   1.717   5.223  1.1834 -0.1115 -0.2613
18610TIP3    H277246   5.268   1.604   5.225  0.1852  0.7833  0.7077
18611TIP3   OH277247   5.531   6.028   3.951  0.7291 -0.1433 -0.4083
18611TIP3    H177248   5.579   6.100   3.911  1.0026  0.4696  0.9736
18611TIP3    H277249   5.523   5.962   3.882  0.9614  0.9796 -1.5191
18612TIP3   OH277250   0.245   4.553  14.967 -0.2392 -0.3843 -0.2007
18612TIP3    H177251   0.310   4.547  14.898  0.0534  2.3691 -0.1997
18612TIP3    H277252   0.161   4.556  14.922 -0.2763 -2.1117 -0.2713
18613TIP3   OH277253   5.239   1.707   3.182  0.4207 -0.4972  0.4142
18613TIP3    H177254   5.216   1.786   3.231  0.4604 -1.3383  1.7979
18613TIP3    H277255   5.240   1.736   3.090  0.2258  1.0571  0.8802
18614TIP3   OH277256   2.619   0.594  13.489  0.3985  0.0595 -0.3868
18614TIP3    H177257   2.575   0.582  13.573 -0.9133 -2.6641 -1.4145
18614TIP3    H277258   2.634   0.688  13.483  0.9090  0.2515  3.0781
18615TIP3   OH277259   5.409   1.138  13.213  0.0898 -0.2315 -0.2954
18615TIP3    H177260   5.355   1.191  13.273  2.1644 -0.2404  1.6706
18615TIP3    H277261   5.490   1.189  13.203  0.4202 -1.0287 -1.7877
18616TIP3   OH277262   5.367   1.318  15.822 -0.2975  0.2543  0.1986
18616TIP3    H177263   5.454   1.289  15.796 -0.1375 -1.9279  2.9465
18616TIP3    H277264   5.358   1.289  15.912 -4.1051 -0.0606 -0.2147
18617TIP3   OH277265   5.839   2.209   0.547  0.1826  0.4354  0.2043
18617TIP3    H177266   5.836   2.289   0.600  0.0696  1.1849 -0.9222
18617TIP3    H277267   5.788   2.230   0.469  0.4869 -0.6082 -0.2775
18618TIP3   OH277268   0.894   2.652   2.945 -0.2818  0.3888  0.1673
18618TIP3    H177269   0.849   2.614   3.021 -0.2556 -0.8042 -0.4114
18618TIP3    H277270   0.907   2.579   2.885  0.0879  1.2413 -0.8112
18619TIP3   OH277271   3.883   2.975  11.970 -0.2347  0.5906  0.0384
18619TIP3    H177272   3.802   3.024  11.959 -1.5911 -1.0835  2.1617
18619TIP3    H277273   3.941   3.036  12.015 -1.4722  0.7078  1.5188
18620TIP3   OH277274   3.660   3.688   4.652  0.1144 -0.0107 -0.0343
18620TIP3    H177275   3.629   3.778   4.640 -0.0704 -0.2426 -1.4519
18620TIP3    H277276   3.752   3.691   4.627  0.0924 -0.2143 -0.1422
18621TIP3   OH277277   6.276   2.266   4.656 -0.7519 -0.4145 -0.2789
18621TIP3    H177278   6.184   2.266   4.632 -1.3663  0.1081  1.9812
18621TIP3    H277279   6.322   2.243   4.575 -2.8853 -1.2189 -1.2950
18622TIP3   OH277280   2.306   2.347   3.463  0.5350  0.7489  0.0883
18622TIP3    H177281   2.218   2.384   3.453 -0.5787 -0.7743  3.5335
18622TIP3    H277282   2.319   2.296   3.382 -1.8493  0.8085 -0.3972
18623TIP3   OH277283   0.566   4.216  14.460  0.1222 -0.6668  0.8695
18623TIP3    H177284   0.609   4.221  14.374  0.8215 -0.9101  1.2046
18623TIP3    H277285   0.579   4.303  14.498  1.3984 -1.1233  1.4865
18624TIP3   OH277286   4.276   5.281   2.252  0.5865 -0.3397  0.3905
18624TIP3    H177287   4.259   5.252   2.341  2.3981 -0.6623  0.6631
18624TIP3    H277288   4.367   5.310   2.253 -0.1390  2.0595 -0.7483
18625TIP3   OH277289   6.035   5.372   1.189 -0.6741 -0.6075  0.0535
18625TIP3    H177290   5.943   5.361   1.162 -1.7229 -0.7991  3.5181
18625TIP3    H277291   6.035   5.453   1.239  1.2058 -0.3150 -0.3999
18626TIP3   OH277292   5.541   5.233  15.801 -0.8409 -0.1460  0.4832
18626TIP3    H177293   5.503   5.224  15.888  0.4702 -1.5202  0.9450
18626TIP3    H277294   5.496   5.167  15.748  0.1431 -1.0636  0.7732
18627TIP3   OH277295   1.220   3.333  12.410 -0.3527 -0.3266  0.0193
18627TIP3    H177296   1.261   3.282  12.339  3.4926 -0.8490  2.4738
18627TIP3    H277297   1.209   3.420  12.373 -0.1349 -1.0526 -1.8360
18628TIP3   OH277298   0.818   2.929  16.760 -0.4947  0.3587 -0.1634
18628TIP3    H177299   0.797   2.914  16.668  1.5462  0.4900 -0.6695
18628TIP3    H277300   0.770   2.860  16.807 -1.6093  0.3446 -1.2957
18629TIP3   OH277301   3.101   2.988  16.471  0.1927  0.5671 -0.0142
18629TIP3    H177302   3.111   2.912  16.413 -3.3062 -0.3657  0.5049
18629TIP3    H277303   3.178   2.985  16.527  1.2335 -1.2981 -1.4794
18630TIP3   OH277304   0.981   2.883   4.653 -0.0267 -0.0458  0.2802
18630TIP3    H177305   1.039   2.891   4.729 -2.0069  0.0664  1.7954
18630TIP3    H277306   0.951   2.792   4.655  0.5519 -0.2685 -0.8502
18631TIP3   OH277307   6.749   1.045   3.228  0.8462 -0.0894  0.3289
18631TIP3    H177308   6.773   0.958   3.197 -0.8820  0.1891 -1.9060
18631TIP3    H277309   6.755   1.101   3.151 -0.1836  1.3400  1.2507
18632TIP3   OH277310   1.380   1.858   3.093 -0.0301 -0.2564  0.4150
18632TIP3    H177311   1.345   1.918   3.027 -3.3335 -1.4300  1.0152
18632TIP3    H277312   1.432   1.795   3.042  2.2402  2.1541 -0.3667
18633TIP3   OH277313   1.979   0.736  12.060 -0.2659  0.6459  0.0790
18633TIP3    H177314   2.047   0.669  12.060 -0.8851 -0.0041 -0.5747
18633TIP3    H277315   1.948   0.739  12.150 -0.1071  0.1800  0.1487
18634TIP3   OH277316   2.062   5.072  15.119 -0.0283 -0.2984  0.2446
18634TIP3    H177317   2.043   5.091  15.210  1.5544 -0.5500  0.6372
18634TIP3    H277318   2.094   5.155  15.083  0.6541 -0.5557  0.2658
18635TIP3   OH277319   1.478   0.269  11.039  0.0345  0.0720 -0.2995
18635TIP3    H177320   1.477   0.269  10.943  2.7562 -0.3480 -0.3812
18635TIP3    H277321   1.568   0.245  11.062  0.0884  2.5618  2.3458
18636TIP3   OH277322   5.409   3.470  13.628  0.1651  0.1731  0.2179
18636TIP3    H177323   5.457   3.537  13.677  0.5146 -0.6166  0.9643
18636TIP3    H277324   5.396   3.509  13.541 -1.2094  1.9409  1.1766
18637TIP3   OH277325   4.723   5.482   5.525  0.7352 -0.6817 -0.3257
18637TIP3    H177326   4.746   5.418   5.593  2.2026  1.2884  1.1120
18637TIP3    H277327   4.644   5.525   5.560  0.8289 -0.4447 -0.4078
18638TIP3   OH277328   4.662   2.461   3.830 -0.5052  0.4584 -0.5649
18638TIP3    H177329   4.586   2.403   3.821 -0.0405 -0.3417  0.5134
18638TIP3    H277330   4.732   2.403   3.860  0.7044  1.0705 -2.1389
18639TIP3   OH277331   6.209   3.707  10.571  0.0956 -0.2913 -0.2635
18639TIP3    H177332   6.237   3.633  10.516 -1.0017  0.4287 -1.8408
18639TIP3    H277333   6.135   3.745  10.523 -1.8164 -0.4950  2.4592
18640TIP3   OH277334   2.095   4.067   2.261 -0.4851 -0.3168  0.5421
18640TIP3    H177335   2.006   4.102   2.254  0.4167  1.9606 -0.0995
18640TIP3    H277336   2.102   4.002   2.192 -2.1606 -1.6726  1.6260
18641TIP3   OH277337   1.752   0.669   1.222 -0.3199  0.1215  0.4329
18641TIP3    H177338   1.792   0.585   1.201  0.7083  0.1966  1.9861
18641TIP3    H277339   1.660   0.660   1.195  0.4566 -0.4503 -2.1254
18642TIP3   OH277340   3.036   1.541   4.303  0.3126 -0.6187 -0.2544
18642TIP3    H177341   3.044   1.545   4.398  2.7304 -0.0810 -0.4651
18642TIP3    H277342   2.949   1.504   4.288 -1.0015  1.3374  2.1471
18643TIP3   OH277343   6.086   4.918  16.792 -0.8081 -0.2308  0.1690
18643TIP3    H177344   6.098   4.971  16.713 -0.2297  1.0539  1.0970
18643TIP3    H277345   6.155   4.853  16.788  0.4383  1.0371  0.5654
18644TIP3   OH277346   0.209   4.357  12.827  0.2263 -0.5154  0.0866
18644TIP3    H177347   0.223   4.306  12.906  1.6080 -1.5227 -0.7890
18644TIP3    H277348   0.154   4.301  12.772  1.2150 -0.7905 -0.6195
18645TIP3   OH277349   5.448   1.241   6.208 -0.0630 -0.3190 -0.2498
18645TIP3    H177350   5.477   1.228   6.118 -0.3780 -0.0648 -0.3887
18645TIP3    H277351   5.393   1.319   6.205  0.2798 -0.0519  0.2444
18646TIP3   OH277352   1.768   5.037   5.418  0.3800 -0.5287 -0.0651
18646TIP3    H177353   1.701   5.099   5.391 -0.1542 -0.6752  0.9018
18646TIP3    H277354   1.722   4.975   5.476  1.2952 -0.7397  0.4541
18647TIP3   OH277355   4.555   5.759   2.331  0.2974  0.0923  0.9545
18647TIP3    H177356   4.572   5.715   2.414 -0.4397  0.9752  1.5889
18647TIP3    H277357   4.634   5.745   2.279  1.1167  0.2678  2.1384
18648TIP3   OH277358   5.190   0.920  13.573 -0.3418  0.0820 -0.6021
18648TIP3    H177359   5.133   0.918  13.496 -1.2885  1.1455  0.0468
18648TIP3    H277360   5.193   1.013  13.598  0.8172 -0.1141  0.0129
18649TIP3   OH277361   6.046   0.469  10.555  0.2623 -0.1441  0.4351
18649TIP3    H177362   6.077   0.528  10.624  0.0429  1.0247 -0.4574
18649TIP3    H277363   6.126   0.434  10.516  0.3869 -0.8985  1.3481
18650TIP3   OH277364   4.140   2.345  14.855 -0.0429 -0.0903  0.2688
18650TIP3    H177365   4.212   2.348  14.793 -0.7254 -1.0043 -0.5802
18650TIP3    H277366   4.177   2.304  14.933 -0.0523 -2.1293 -0.7509
18651TIP3   OH277367   2.535   1.919  15.391  0.1124  0.0466  0.1137
18651TIP3    H177368   2.536   1.917  15.295  0.8324 -1.0708  0.1371
18651TIP3    H277369   2.501   1.832  15.416  1.8521 -0.4238  0.8889
18652TIP3   OH277370   5.890   4.047   5.882  0.3280 -0.8840  0.2879
18652TIP3    H177371   5.965   4.037   5.823 -0.9795 -1.6983 -1.2890
18652TIP3    H277372   5.832   4.107   5.835 -0.1117 -0.4420  1.3894
18653TIP3   OH277373   0.634   2.599  15.781 -0.0740 -0.0358  0.5910
18653TIP3    H177374   0.541   2.621  15.783 -0.4531 -1.5847  1.0086
18653TIP3    H277375   0.671   2.641  15.859 -0.2003  1.5304 -0.1970
18654TIP3   OH277376   1.073   6.489  10.526 -0.3162 -0.4113  0.3368
18654TIP3    H177377   0.980   6.479  10.545 -0.5705  0.9958 -0.1137
18654TIP3    H277378   1.115   6.488  10.612 -0.7010 -1.4667  0.5144
18655TIP3   OH277379   3.720   6.620   2.005 -0.2277 -0.6067 -0.4508
18655TIP3    H177380   3.652   6.651   2.065 -0.6267 -2.1065 -0.0897
18655TIP3    H277381   3.794   6.678   2.020 -0.4887 -0.6456  1.1678
18656TIP3   OH277382   6.071   2.572   2.148  0.4989 -0.5131  0.0513
18656TIP3    H177383   5.976   2.565   2.140  0.4576 -0.0862  0.1847
18656TIP3    H277384   6.085   2.621   2.229  0.8194  0.1119 -0.3776
18657TIP3   OH277385   0.785   2.781   0.502 -0.5387 -0.1584  0.5202
18657TIP3    H177386   0.817   2.864   0.536 -0.7480  0.1451 -0.0213
18657TIP3    H277387   0.789   2.721   0.577  2.5864 -0.5088  0.1346
18658TIP3   OH277388   2.209   2.508  11.675  0.2119  0.1910  0.1690
18658TIP3    H177389   2.281   2.569  11.654 -0.0283 -0.3304 -2.2444
18658TIP3    H277390   2.142   2.564  11.714  0.7061  1.1829 -0.3726
18659TIP3   OH277391   2.776   4.198   1.098 -0.3692 -0.5855 -0.4340
18659TIP3    H177392   2.843   4.132   1.079  1.1323  0.5997  0.7049
18659TIP3    H277393   2.817   4.282   1.078 -1.5491  0.1576  0.1710
18660TIP3   OH277394   0.861   2.586   4.368 -0.2723  0.1504 -0.1295
18660TIP3    H177395   0.846   2.501   4.327 -0.0770 -0.1302  0.3740
18660TIP3    H277396   0.897   2.565   4.454  2.3192  0.7940 -1.0280
18661TIP3   OH277397   4.176   5.499  14.174  0.3203  0.1061 -0.0609
18661TIP3    H177398   4.081   5.491  14.174  0.4707 -1.7543 -0.1200
18661TIP3    H277399   4.194   5.564  14.242 -1.0219  1.0679 -0.5886
18662TIP3   OH277400   5.796   2.723  17.196 -0.2710  0.2622  0.5029
18662TIP3    H177401   5.739   2.670  17.140 -0.1959  0.3192  0.3734
18662TIP3    H277402   5.820   2.664  17.267  0.2634 -0.0574  0.0644
18663TIP3   OH277403   5.995   6.745   1.656  0.1303  0.2797  0.2377
18663TIP3    H177404   6.086   6.715   1.663  0.4582  1.3498  0.5930
18663TIP3    H277405   5.959   6.733   1.744 -0.0740 -0.1404  0.0978
18664TIP3   OH277406   4.511   6.771   2.080  0.1131 -0.1359 -0.1436
18664TIP3    H177407   4.517   6.712   2.155  1.3001 -0.9754 -0.8897
18664TIP3    H277408   4.593   6.819   2.080  0.4732 -0.7273 -1.3816
18665TIP3   OH277409   5.922   6.406  15.494 -0.2212  0.0263  0.1507
18665TIP3    H177410   5.845   6.459  15.515  0.7770  1.5284  0.0904
18665TIP3    H277411   5.991   6.438  15.552  0.0385 -2.1627  1.0836
18666TIP3   OH277412   1.695   3.160   0.992 -0.0905  0.6869 -0.4804
18666TIP3    H177413   1.666   3.085   0.941 -4.5924  0.5384  2.0045
18666TIP3    H277414   1.710   3.124   1.080  0.3939  2.2207  0.0807
18667TIP3   OH277415   3.546   6.666  16.911 -0.0920 -0.2575  0.6311
18667TIP3    H177416   3.501   6.749  16.900  1.0419  0.6258  2.5185
18667TIP3    H277417   3.476   6.600  16.906 -0.8896  0.7180 -1.6374
18668TIP3   OH277418   0.280   4.276  14.818  0.3883 -0.1368  0.0762
18668TIP3    H177419   0.361   4.243  14.857 -1.7497 -2.9235  2.4156
18668TIP3    H277420   0.218   4.203  14.827 -2.6360  2.2050 -0.8794
18669TIP3   OH277421   2.816   3.524  11.631 -0.5739 -0.0107 -0.5880
18669TIP3    H177422   2.883   3.591  11.622 -0.8153  0.2753 -0.2719
18669TIP3    H277423   2.822   3.474  11.550  2.0989 -1.9391  0.7505
18670TIP3   OH277424   2.633   6.665  15.576 -0.0879 -0.0867  0.1724
18670TIP3    H177425   2.613   6.759  15.574 -2.8065 -0.6487 -1.7364
18670TIP3    H277426   2.722   6.660  15.540 -0.2714  1.6911 -0.6252
18671TIP3   OH277427   5.482   0.245  16.667 -0.5946 -0.0309  0.1520
18671TIP3    H177428   5.570   0.257  16.704 -0.8264  1.8037  0.1702
18671TIP3    H277429   5.447   0.334  16.662 -2.7487 -0.8270  0.8522
18672TIP3   OH277430   6.231   5.223   3.631 -0.1874 -0.3322 -0.5471
18672TIP3    H177431   6.238   5.311   3.593 -1.6640  1.6817  3.4504
18672TIP3    H277432   6.316   5.209   3.673  0.1464 -0.9500 -1.4226
18673TIP3   OH277433   4.675   6.584   3.121  0.0947 -0.1690  0.3569
18673TIP3    H177434   4.657   6.570   3.214  0.4949  0.6336  0.5621
18673TIP3    H277435   4.601   6.635   3.090 -0.2887 -0.8660  0.1134
18674TIP3   OH277436   5.604   3.752  13.169  0.5272 -0.5164 -0.0222
18674TIP3    H177437   5.585   3.769  13.077 -0.4139 -0.1741  0.2250
18674TIP3    H277438   5.556   3.821  13.216  3.7482  1.4209  0.5628
18675TIP3   OH277439   4.383   2.712   0.984  0.5639 -0.5331  0.6214
18675TIP3    H177440   4.407   2.715   0.892  0.7494  1.0184  0.7185
18675TIP3    H277441   4.358   2.620   0.999  2.4644 -1.2473 -0.4573
18676TIP3   OH277442   6.113   0.141   5.695  0.4568 -0.9098 -0.0066
18676TIP3    H177443   6.075   0.077   5.635  0.6449 -1.2288  0.2124
18676TIP3    H277444   6.048   0.212   5.699  0.1863 -1.1473 -0.1456
18677TIP3   OH277445   4.551   2.404  15.708 -0.0744  0.1334 -0.0042
18677TIP3    H177446   4.523   2.360  15.789  3.3738 -1.6799  0.2636
18677TIP3    H277447   4.565   2.332  15.646  0.7853  1.2456 -1.1038
18678TIP3   OH277448   1.569   0.048  16.173 -0.6977  0.9986  0.4203
18678TIP3    H177449   1.652   0.082  16.140 -0.7083  0.1622 -0.4721
18678TIP3    H277450   1.503   0.082  16.113 -1.0048  1.6456  1.1166
18679TIP3   OH277451   5.906   3.421   6.657  0.6293  0.0996 -0.4348
18679TIP3    H177452   5.983   3.478   6.665  0.4042  0.4170 -0.5085
18679TIP3    H277453   5.840   3.476   6.615  0.2233 -0.0395  0.0142
18680TIP3   OH277454   2.118   4.876  15.550 -0.1694  0.8523 -0.3956
18680TIP3    H177455   2.113   4.784  15.526 -3.5333  0.2885  1.9854
18680TIP3    H277456   2.170   4.878  15.630 -1.1202  0.8116  0.2386
18681TIP3   OH277457   3.695   2.386   2.695  0.0979  0.8522  0.1860
18681TIP3    H177458   3.697   2.416   2.786 -1.3331 -0.5484  0.6818
18681TIP3    H277459   3.776   2.421   2.658  0.6026  1.6180  1.9315
18682TIP3   OH277460   4.489   6.170  15.162  0.2302 -0.6130 -0.0428
18682TIP3    H177461   4.396   6.149  15.150  0.3891 -1.5629  0.3670
18682TIP3    H277462   4.491   6.266  15.166 -0.8987 -0.6310  1.3506
18683TIP3   OH277463   4.652   0.217  16.601  0.1759 -0.2999 -0.4693
18683TIP3    H177464   4.664   0.244  16.692  0.6627  0.5573 -0.7765
18683TIP3    H277465   4.589   0.280  16.566 -0.9313 -1.3718 -0.3926
18684TIP3   OH277466   0.353   2.166  11.408  0.4955  0.2613  0.2400
18684TIP3    H177467   0.361   2.083  11.455 -0.0017  1.1032  1.8466
18684TIP3    H277468   0.389   2.147  11.321  0.4610 -1.6090  0.5938
18685TIP3   OH277469   2.964   0.820   4.519  0.5788 -0.0096 -0.6088
18685TIP3    H177470   2.932   0.910   4.530 -2.3221 -0.7069 -2.9241
18685TIP3    H277471   3.025   0.825   4.446 -0.0558 -0.0260 -1.1416
18686TIP3   OH277472   1.810   1.078   4.342 -0.1449 -0.5307  1.1464
18686TIP3    H177473   1.850   1.044   4.422  2.2875 -1.7244 -0.5369
18686TIP3    H277474   1.811   1.004   4.281 -1.1800  0.6008 -0.2763
18687TIP3   OH277475   4.590   1.516  16.516  0.2387 -0.1775  0.0766
18687TIP3    H177476   4.626   1.455  16.452  3.7332  1.1259  0.6385
18687TIP3    H277477   4.511   1.550  16.476  1.1218 -1.0961 -2.5403
18688TIP3   OH277478   4.304   3.359   3.165 -0.8478 -0.1185  0.3992
18688TIP3    H177479   4.368   3.408   3.217 -0.7325 -0.7675  0.8699
18688TIP3    H277480   4.247   3.318   3.230 -0.6387 -1.0285  0.0134
18689TIP3   OH277481   4.049   6.704   1.690 -0.3376  0.1078  0.0431
18689TIP3    H177482   4.094   6.632   1.735  0.0162  1.9992  2.7987
18689TIP3    H277483   4.104   6.723   1.614  0.3247 -1.5519  0.0854
18690TIP3   OH277484   4.565   3.319   5.198  0.2999 -0.0417  0.5686
18690TIP3    H177485   4.549   3.314   5.293 -1.1034  1.4685  0.4315
18690TIP3    H277486   4.521   3.242   5.162  0.2738 -0.2672  1.0783
18691TIP3   OH277487   2.156   4.316   6.693  0.3654  0.3104  0.7306
18691TIP3    H177488   2.157   4.229   6.732  0.1125  0.4958  1.1519
18691TIP3    H277489   2.241   4.353   6.713  0.5238  0.1105  0.4340
18692TIP3   OH277490   1.260   5.762  14.805 -0.7101  0.6936 -0.3568
18692TIP3    H177491   1.277   5.755  14.711  0.8446  0.3781 -0.0634
18692TIP3    H277492   1.332   5.714  14.846 -2.9146 -1.6547  0.9283
18693TIP3   OH277493   5.700   4.878  13.621 -0.6321 -0.2722  0.0324
18693TIP3    H177494   5.620   4.845  13.663 -0.8033  0.3309  0.1765
18693TIP3    H277495   5.676   4.963  13.586 -0.2637 -0.4234 -0.6037
18694TIP3   OH277496   2.766   3.871  15.367 -0.7674  0.0753  0.1052
18694TIP3    H177497   2.779   3.814  15.291 -1.5165 -0.2307  0.1975
18694TIP3    H277498   2.767   3.811  15.442  0.5707  0.4515  0.3910
18695TIP3   OH277499   2.059   2.985  14.999  0.8337  0.0846 -0.4185
18695TIP3    H177500   1.991   2.920  14.979  0.0080  1.2102 -1.3632
18695TIP3    H277501   2.122   2.938  15.054  0.0124 -1.3774 -0.6962
18696TIP3   OH277502   2.367   6.176   4.586  0.1061  0.1858 -0.2109
18696TIP3    H177503   2.445   6.143   4.541 -0.4686 -1.8862  0.2736
18696TIP3    H277504   2.297   6.172   4.520 -0.4414 -1.6055  0.4640
18697TIP3   OH277505   6.532   3.606  14.357  0.2913  0.3677 -0.3696
18697TIP3    H177506   6.475   3.530  14.344  0.3992  0.4259 -1.2499
18697TIP3    H277507   6.503   3.644  14.439  1.2123 -1.4941  0.8569
18698TIP3   OH277508   4.295   5.087   6.289  0.2599  0.0173 -0.3143
18698TIP3    H177509   4.365   5.129   6.340  0.9743  0.6384 -1.7980
18698TIP3    H277510   4.282   5.003   6.333 -0.0453  1.0637  1.6909
18699TIP3   OH277511   3.055   3.515   2.821  0.1808  0.2102  0.4448
18699TIP3    H177512   3.028   3.591   2.874  0.0345  1.0398 -0.8096
18699TIP3    H277513   3.138   3.542   2.781 -0.1626 -0.0702 -0.4591
18700TIP3   OH277514   3.100   0.580  16.940  0.1733 -0.4830  0.3222
18700TIP3    H177515   3.065   0.536  16.863  1.3087  0.7382 -0.9314
18700TIP3    H277516   3.067   0.670  16.934 -0.2157 -0.5355  1.5835
18701TIP3   OH277517   6.467   0.523   2.971  0.7353  0.5861 -0.1168
18701TIP3    H177518   6.440   0.436   2.944  0.6965  0.5396  0.0687
18701TIP3    H277519   6.401   0.581   2.934  0.5252  0.4959  0.1152
18702TIP3   OH277520   2.742   6.660  15.863 -0.4469  0.0716 -0.0750
18702TIP3    H177521   2.818   6.624  15.908 -1.0153 -0.6100  0.3553
18702TIP3    H277522   2.739   6.614  15.779 -1.9988 -2.0071  1.0445
18703TIP3   OH277523   3.146   4.745   5.251  0.2017 -0.5965 -0.3524
18703TIP3    H177524   3.157   4.689   5.328  0.9371 -0.9168 -0.6872
18703TIP3    H277525   3.113   4.828   5.287  1.1086 -0.5463  0.3708
18704TIP3   OH277526   5.064   4.663  13.757 -0.7116  0.3496  0.8920
18704TIP3    H177527   5.032   4.600  13.823  0.1222 -0.5344  0.4669
18704TIP3    H277528   5.159   4.658  13.763 -0.6032 -0.6150 -1.1803
18705TIP3   OH277529   0.234   5.250   0.816  0.4276 -0.0194  0.0111
18705TIP3    H177530   0.189   5.186   0.871 -0.4502  3.3779  3.5428
18705TIP3    H277531   0.324   5.249   0.847  0.7307 -0.5339 -0.8876
18706TIP3   OH277532   4.579   2.972   5.188 -0.6939  0.3047 -0.3588
18706TIP3    H177533   4.514   2.941   5.251  0.4578 -0.3322  0.5349
18706TIP3    H277534   4.548   2.940   5.103 -0.8088 -1.2396  0.2426
18707TIP3   OH277535   4.747   5.540   0.976  0.0984  0.3758 -0.2201
18707TIP3    H177536   4.805   5.499   0.912 -2.0325 -1.3181 -1.1480
18707TIP3    H277537   4.659   5.529   0.938 -0.9672  1.5064  1.8582
18708TIP3   OH277538   6.437   0.882  16.605 -0.3308  0.1802 -0.0973
18708TIP3    H177539   6.355   0.839  16.629 -1.2088  2.0181  0.2733
18708TIP3    H277540   6.410   0.959  16.554  1.1774  0.5962 -0.2932
18709TIP3   OH277541   6.388   2.137   0.562  0.2029  0.3115 -0.0606
18709TIP3    H177542   6.366   2.118   0.653  0.3253  1.3583  0.1837
18709TIP3    H277543   6.455   2.205   0.566  1.3279 -0.7199 -0.8970
18710TIP3   OH277544   4.450   6.307   3.365  0.5897  0.1253  0.0447
18710TIP3    H177545   4.528   6.345   3.406 -0.9665  2.7310  0.7468
18710TIP3    H277546   4.400   6.270   3.437  1.1274 -1.4837 -0.3966
18711TIP3   OH277547   5.721   5.668  15.448  0.5098  0.0408 -0.0145
18711TIP3    H177548   5.715   5.574  15.463 -0.2727  0.3458  1.7190
18711TIP3    H277549   5.630   5.697  15.441  0.6611  0.9514  1.4795
18712TIP3   OH277550   3.275   6.030   1.174  0.5331 -0.4931 -0.8162
18712TIP3    H177551   3.215   5.969   1.132 -0.3641 -0.4498  0.3861
18712TIP3    H277552   3.220   6.081   1.234  1.5570  0.3618 -0.5864
18713TIP3   OH277553   2.525   1.286  11.272  0.2522  0.0524  0.4175
18713TIP3    H177554   2.584   1.224  11.229  0.5668 -0.7154  1.9034
18713TIP3    H277555   2.438   1.264  11.238  0.7702  1.0915 -1.6717
18714TIP3   OH277556   5.653   1.061  14.367 -0.0907 -0.2181 -0.4122
18714TIP3    H177557   5.602   1.142  14.368  0.8407  0.3763 -0.1148
18714TIP3    H277558   5.641   1.023  14.454  1.2445  0.7451  0.2133
18715TIP3   OH277559   3.035   2.177   0.153  0.1054 -0.2539 -0.4194
18715TIP3    H177560   2.999   2.266   0.157  1.5434  0.4124 -1.6804
18715TIP3    H277561   2.963   2.123   0.122 -0.9678  0.3615  0.9814
18716TIP3   OH277562   4.751   6.163   5.227  0.0246  0.0506 -0.1782
18716TIP3    H177563   4.793   6.089   5.271 -0.5751  0.1598  0.5947
18716TIP3    H277564   4.823   6.215   5.193  0.4900 -0.0814  0.6077
18717TIP3   OH277565   3.715   2.404  11.517 -0.5747 -0.2508  0.9330
18717TIP3    H177566   3.686   2.366  11.434 -0.1324 -1.0159  1.1207
18717TIP3    H277567   3.795   2.357  11.538 -1.7563 -1.4805  2.8167
18718TIP3   OH277568   1.120   2.391   2.167  0.1683  0.0369 -0.1744
18718TIP3    H177569   1.153   2.480   2.153  0.7068  0.1053  1.4002
18718TIP3    H277570   1.084   2.365   2.082  0.9081  1.3795 -0.9177
18719TIP3   OH277571   4.991   6.329   3.463  0.4546 -0.2503  0.0977
18719TIP3    H177572   5.030   6.296   3.383  0.7834 -2.2185  1.0467
18719TIP3    H277573   5.034   6.280   3.533 -1.2178  0.0522  1.3619
18720TIP3   OH277574   4.129   0.854   5.294  0.0466  0.0202  0.2328
18720TIP3    H177575   4.205   0.885   5.246  0.4477 -1.7051 -0.3055
18720TIP3    H277576   4.109   0.923   5.357  2.7882 -0.0415  1.2207
18721TIP3   OH277577   0.544   5.697   3.514 -0.1205  0.5284  0.1984
18721TIP3    H177578   0.604   5.695   3.440 -0.0891  1.0409  0.2112
18721TIP3    H277579   0.592   5.741   3.584 -0.3596  0.5662  0.3403
18722TIP3   OH277580   5.476   0.884  12.181  0.8058  0.4811  0.7264
18722TIP3    H177581   5.414   0.911  12.249  0.3439  1.6400 -0.1532
18722TIP3    H277582   5.533   0.960  12.169  0.2057  0.6727 -0.9623
18723TIP3   OH277583   0.900   2.383   4.670  0.2579  0.4183  0.1791
18723TIP3    H177584   0.824   2.325   4.662  0.4540 -0.2410  2.7913
18723TIP3    H277585   0.864   2.467   4.698  0.5755 -0.2666  2.7586
18724TIP3   OH277586   0.570   1.655  15.570  0.4831 -0.2301  0.0056
18724TIP3    H177587   0.524   1.730  15.607 -0.7799  0.1394 -2.2072
18724TIP3    H277588   0.505   1.584  15.573  0.9634 -0.6636  0.1429
18725TIP3   OH277589   1.869   1.150   3.657 -0.0951 -0.0565 -0.1790
18725TIP3    H177590   1.877   1.120   3.567 -0.4271 -0.8592  0.0532
18725TIP3    H277591   1.917   1.232   3.660  2.3818 -1.4705 -0.3846
18726TIP3   OH277592   1.108   5.532  11.194  0.7340  0.1225 -0.0426
18726TIP3    H177593   1.063   5.603  11.149  0.6432  1.3152  1.8786
18726TIP3    H277594   1.050   5.508  11.266  1.8225 -0.3025  0.7148
18727TIP3   OH277595   0.156   1.582  11.695  0.2697 -0.6286  0.1120
18727TIP3    H177596   0.194   1.574  11.607 -1.5764  0.3153 -0.8044
18727TIP3    H277597   0.161   1.676  11.715 -3.5297 -0.0744 -1.0042
18728TIP3   OH277598   2.388   0.992  14.625  0.0288  0.1944 -0.3550
18728TIP3    H177599   2.352   1.068  14.578 -2.3893 -0.6157  0.0891
18728TIP3    H277600   2.448   0.951  14.564  0.0098  1.4776 -1.2475
18729TIP3   OH277601   6.204   5.025  16.567 -0.2689  0.1213  0.2171
18729TIP3    H177602   6.228   4.953  16.508  1.4303 -0.2057  1.2663
18729TIP3    H277603   6.266   5.095  16.545 -1.2032  0.8803 -0.0311
18730TIP3   OH277604   1.553   2.537  13.158 -0.0388  0.1479 -0.1175
18730TIP3    H177605   1.457   2.547  13.157 -0.3117 -2.3500 -0.4839
18730TIP3    H277606   1.575   2.535  13.251 -0.3792  0.3994 -0.0275
18731TIP3   OH277607   0.191   1.151   3.012 -0.0464 -0.3509  0.3433
18731TIP3    H177608   0.263   1.158   2.949  0.5762 -0.3843  1.0420
18731TIP3    H277609   0.201   1.064   3.049  0.1134 -0.0045  1.1156
18732TIP3   OH277610   1.197   0.233   4.899  0.4512  0.0782 -0.0421
18732TIP3    H177611   1.139   0.161   4.875  1.0176  0.1998 -1.8733
18732TIP3    H277612   1.211   0.223   4.993  0.4416 -2.1622 -0.2537
18733TIP3   OH277613   5.508   1.576  11.707 -0.2686  0.1413  0.3850
18733TIP3    H177614   5.567   1.558  11.781  0.4522 -0.5279 -0.3420
18733TIP3    H277615   5.501   1.672  11.705 -2.3508  0.0950  2.9099
18734TIP3   OH277616   1.467   6.236   2.412  0.0367  0.2941 -0.2665
18734TIP3    H177617   1.390   6.254   2.356 -0.5666  0.6664  0.6755
18734TIP3    H277618   1.452   6.148   2.446 -0.1533  0.5030  0.1968
18735TIP3   OH277619   0.765   3.511   4.916  0.0504 -0.3434 -0.1757
18735TIP3    H177620   0.701   3.579   4.935  0.3572 -0.4458  1.2323
18735TIP3    H277621   0.712   3.434   4.895 -0.2938  0.2732 -1.6842
18736TIP3   OH277622   5.499   2.280   6.203  0.4710  0.0397 -0.3034
18736TIP3    H177623   5.468   2.341   6.271  2.9310 -0.4463  1.3429
18736TIP3    H277624   5.439   2.206   6.209  0.3869  0.1903  1.0942
18737TIP3   OH277625   1.385   2.911  13.267 -0.4101 -0.2914  0.1955
18737TIP3    H177626   1.443   2.902  13.192  1.0140  0.2416  1.2179
18737TIP3    H277627   1.354   2.822  13.283  0.7695 -0.7246  0.1450
18738TIP3   OH277628   1.791   4.029  14.464  0.4257  0.3476  0.1530
18738TIP3    H177629   1.815   4.114  14.427  2.6128  0.5529  1.9597
18738TIP3    H277630   1.702   4.041  14.496  0.8193  2.0532  0.6350
18739TIP3   OH277631   1.456   1.393  11.076 -0.2040  0.0880  0.1340
18739TIP3    H177632   1.546   1.423  11.066 -0.5050  0.6441 -1.0299
18739TIP3    H277633   1.408   1.469  11.109 -0.3822  0.0054  0.0684
18740TIP3   OH277634   0.190   1.944  13.232 -0.7753  0.5289  0.4905
18740TIP3    H177635   0.156   2.034  13.231  0.8519  1.2051  2.5041
18740TIP3    H277636   0.259   1.943  13.166 -2.3550  0.0847 -1.1942
18741TIP3   OH277637   2.765   0.362   1.564  0.0817  0.1427 -0.0943
18741TIP3    H177638   2.734   0.321   1.646  0.7220 -1.0589 -0.4379
18741TIP3    H277639   2.715   0.318   1.495  0.8929 -0.1781 -0.4838
18742TIP3   OH277640   0.169   4.612  13.392 -0.1714 -0.2026  0.4496
18742TIP3    H177641   0.215   4.556  13.454  1.8072 -0.4756 -1.2310
18742TIP3    H277642   0.076   4.599  13.413  0.2755 -3.5560  0.5789
18743TIP3   OH277643   1.430   4.749   0.740  0.5667  0.0286 -0.3749
18743TIP3    H177644   1.342   4.716   0.721  0.1717  0.0894  1.2838
18743TIP3    H277645   1.472   4.678   0.791  0.6656  0.9329  0.8231
18744TIP3   OH277646   0.468   2.985  10.943 -0.1132  0.3209 -0.1878
18744TIP3    H177647   0.468   2.925  10.869 -0.3602  0.4376 -0.2827
18744TIP3    H277648   0.555   3.027  10.941 -0.4137  0.9209 -0.8931
18745TIP3   OH277649   5.057   1.186  11.267  0.4999 -0.5689 -0.5001
18745TIP3    H177650   5.135   1.187  11.212 -0.3376 -1.9694 -1.7677
18745TIP3    H277651   4.985   1.176  11.205 -0.7500  1.3382  0.5976
18746TIP3   OH277652   1.687   0.048   5.135 -0.6215 -0.0084  0.1697
18746TIP3    H177653   1.771   0.093   5.129 -0.7377  0.2779  0.6767
18746TIP3    H277654   1.622   0.118   5.146 -0.7973 -0.2959  0.9988
18747TIP3   OH277655   2.529   0.653   1.084 -0.4444  0.2485  0.3258
18747TIP3    H177656   2.461   0.720   1.075  1.0409  1.5962 -1.2035
18747TIP3    H277657   2.531   0.610   0.999 -0.6584 -1.0467  0.9701
18748TIP3   OH277658   4.777   0.954   5.236 -0.2271 -0.2237 -0.3657
18748TIP3    H177659   4.796   0.897   5.310 -0.9267  0.1031  0.0788
18748TIP3    H277660   4.862   0.973   5.197  0.3708  1.2854  1.5997
18749TIP3   OH277661   2.793   0.150   4.206  0.1709 -0.5516  0.3024
18749TIP3    H177662   2.875   0.172   4.251 -0.5717  0.7805  1.0269
18749TIP3    H277663   2.815   0.073   4.152  1.8076 -0.3952  0.7245
18750TIP3   OH277664   1.479   0.901  11.056  0.2612 -0.8742 -1.1003
18750TIP3    H177665   1.415   0.830  11.049 -0.2226 -0.5369 -0.1934
18750TIP3    H277666   1.554   0.871  11.005  0.1115 -2.1067 -0.6207
18751TIP3   OH277667   5.248   0.530  10.888  0.2099 -0.1564 -0.2770
18751TIP3    H177668   5.292   0.560  10.967 -1.4921  1.3486  0.1212
18751TIP3    H277669   5.154   0.537  10.908 -0.2373 -0.7381 -2.0482
18752TIP3   OH277670   6.244   1.996  12.000 -0.0447 -0.6802  0.4040
18752TIP3    H177671   6.210   2.025  11.915 -1.8029 -2.4183  0.4799
18752TIP3    H277672   6.331   2.036  12.006 -0.5594  0.8097 -1.4719
18753TIP3   OH277673   3.707   5.282  12.791 -0.6610  0.2972  0.1893
18753TIP3    H177674   3.654   5.257  12.867 -0.2081 -0.0793  0.3812
18753TIP3    H277675   3.671   5.232  12.718 -0.1490 -0.4449  0.4489
18754TIP3   OH277676   5.337   0.196   4.145  0.3576 -0.2677  0.2135
18754TIP3    H177677   5.282   0.133   4.098  0.1219  0.5025 -0.5658
18754TIP3    H277678   5.290   0.213   4.227 -0.1000 -0.3221 -0.0342
18755TIP3   OH277679   3.358   6.367   1.310  0.0730  0.4482  0.4184
18755TIP3    H177680   3.354   6.385   1.404 -1.7189  0.5628  0.3485
18755TIP3    H277681   3.274   6.324   1.291  0.5148  0.2386 -1.0859
18756TIP3   OH277682   3.504   0.705   3.844  0.5908 -0.8507 -0.5508
18756TIP3    H177683   3.469   0.670   3.762 -1.1728 -0.2883 -0.0642
18756TIP3    H277684   3.437   0.765   3.874  1.8724  0.0256  0.5917
18757TIP3   OH277685   0.353   2.567  12.121  0.3344  0.6232 -0.1792
18757TIP3    H177686   0.276   2.625  12.121 -0.0885  0.0677 -0.6615
18757TIP3    H277687   0.396   2.584  12.205 -0.5042  0.6906  0.2404
18758TIP3   OH277688   0.685   4.225  12.538 -0.2342 -0.5063 -0.8067
18758TIP3    H177689   0.629   4.284  12.488  1.1293  1.5732  0.0387
18758TIP3    H277690   0.700   4.270  12.621 -0.3122 -2.7052  0.4580
18759TIP3   OH277691   3.878   3.108  14.633  0.5462  0.3369  0.3322
18759TIP3    H177692   3.802   3.118  14.690 -0.4148  3.6725 -1.3547
18759TIP3    H277693   3.863   3.025  14.587 -1.6334  0.5085  0.6892
18760TIP3   OH277694   4.752   3.899   4.680  0.5244 -0.3171 -0.1806
18760TIP3    H177695   4.845   3.923   4.687  0.3270  0.4028 -0.0025
18760TIP3    H277696   4.707   3.982   4.668 -0.2727 -0.5043  1.3858
18761TIP3   OH277697   5.327   6.007   0.637  0.0010  0.0582  0.3833
18761TIP3    H177698   5.256   6.005   0.701  0.1200 -1.2307  0.4720
18761TIP3    H277699   5.394   5.950   0.672 -0.4407 -1.6693 -1.4759
18762TIP3   OH277700   5.036   4.032  11.000 -0.3278  0.5201 -0.0152
18762TIP3    H177701   5.105   4.024  10.935 -1.3552  0.7910 -1.1538
18762TIP3    H277702   4.964   4.075  10.954 -1.1025  0.6382  1.2713
18763TIP3   OH277703   4.322   4.489   5.155  0.3976  0.0306 -0.4885
18763TIP3    H177704   4.383   4.529   5.217 -0.6893 -0.4913  0.9490
18763TIP3    H277705   4.347   4.397   5.152  0.2841  0.0025 -0.6027
18764TIP3   OH277706   5.167   4.050  11.583  0.2810 -0.1699 -0.2445
18764TIP3    H177707   5.257   4.059  11.613 -0.2884 -1.3428  1.8873
18764TIP3    H277708   5.114   4.057  11.662 -1.4369 -0.6047 -1.3242
18765TIP3   OH277709   3.006   5.418  16.914 -0.6229  0.0299  0.1062
18765TIP3    H177710   3.080   5.411  16.974 -2.0212  0.0817  1.8873
18765TIP3    H277711   3.045   5.410  16.827  1.3867 -0.5646  1.0233
18766TIP3   OH277712   1.258   6.360   1.023 -0.2486 -0.5443 -0.2087
18766TIP3    H177713   1.349   6.335   1.035 -0.1238 -0.1881 -0.3996
18766TIP3    H277714   1.218   6.288   0.974  0.3270  0.0573 -1.5797
18767TIP3   OH277715   1.888   5.500   1.250  0.7365 -0.3785  0.3936
18767TIP3    H177716   1.829   5.441   1.203  2.2118 -0.6308 -1.1800
18767TIP3    H277717   1.938   5.544   1.182 -0.5982  3.0502  1.5337
18768TIP3   OH277718   6.346   2.736  12.623  0.2949 -0.1377  0.3266
18768TIP3    H177719   6.425   2.729  12.570 -0.4421  2.4820 -1.2110
18768TIP3    H277720   6.303   2.651  12.613  2.3149 -1.1817  0.2555
18769TIP3   OH277721   6.538   6.027  11.717  0.3865  0.3919  0.0123
18769TIP3    H177722   6.443   6.019  11.716  0.3626  0.6899 -0.5546
18769TIP3    H277723   6.570   5.939  11.703  0.2440 -0.4274  4.0930
18770TIP3   OH277724   4.619   6.496  15.907  0.4336 -0.0968 -0.0666
18770TIP3    H177725   4.579   6.538  15.983  0.8724  0.1526  0.0306
18770TIP3    H277726   4.624   6.566  15.842 -0.0088 -0.3277 -0.3541
18771TIP3   OH277727   0.504   5.434  13.298  0.4479  0.1146 -0.1025
18771TIP3    H177728   0.409   5.431  13.294  0.4058  0.0507  0.7552
18771TIP3    H277729   0.524   5.429  13.392  1.4018 -3.1400 -0.4084
18772TIP3   OH277730   5.637   2.346  10.826  0.6096 -0.0713 -0.6104
18772TIP3    H177731   5.542   2.343  10.821  0.6355  0.0261 -1.1471
18772TIP3    H277732   5.667   2.322  10.739  1.1289 -3.3943  0.4185
18773TIP3   OH277733   1.413   6.092  15.213 -0.4719  0.1942 -0.2477
18773TIP3    H177734   1.422   6.089  15.309 -0.1100  3.0218 -0.1375
18773TIP3    H277735   1.320   6.109  15.198 -0.5982 -0.6309 -0.4249
18774TIP3   OH277736   3.352   4.757   2.929 -0.1997  0.1218 -0.5336
18774TIP3    H177737   3.359   4.662   2.942  0.7184  0.2736  0.1635
18774TIP3    H277738   3.258   4.775   2.932 -0.4059 -0.8243 -1.1164
18775TIP3   OH277739   3.814   0.071   3.505 -0.0848  0.6961 -0.0655
18775TIP3    H177740   3.823   0.134   3.576  2.0341  1.6082 -1.1098
18775TIP3    H277741   3.901   0.033   3.494 -0.7168 -0.5127 -1.2006
18776TIP3   OH277742   1.303   6.081  16.359 -0.3525  0.5273 -0.3526
18776TIP3    H177743   1.329   6.131  16.437  0.1218  1.4100 -1.0582
18776TIP3    H277744   1.274   6.148  16.297 -1.8539 -0.2656 -0.5089
18777TIP3   OH277745   1.966   2.472   3.711  0.2239  0.1427  0.6122
18777TIP3    H177746   2.057   2.444   3.699  0.3803  0.1192  1.8599
18777TIP3    H277747   1.963   2.560   3.674  0.8929  0.3665  1.0804
18778TIP3   OH277748   3.955   0.198  15.210 -0.8286  0.0079 -0.0518
18778TIP3    H177749   3.964   0.103  15.217 -2.0676 -0.1743 -0.7334
18778TIP3    H277750   3.878   0.211  15.154  1.1695  1.3821 -2.6156
18779TIP3   OH277751   5.062   4.499  12.936  0.0932  0.0567  0.0256
18779TIP3    H177752   4.976   4.482  12.897  0.1780  0.5265 -0.3761
18779TIP3    H277753   5.043   4.547  13.017 -0.1101 -1.3508  0.8270
18780TIP3   OH277754   0.838   4.611   3.418 -0.1657  0.0482  0.0098
18780TIP3    H177755   0.752   4.602   3.459  0.2598  0.3014  0.9732
18780TIP3    H277756   0.827   4.574   3.330 -1.1005 -0.4441  0.3332
18781TIP3   OH277757   2.733   4.227   2.282 -0.1775 -0.3501 -0.2245
18781TIP3    H177758   2.699   4.315   2.298  1.4948  0.1267  0.8081
18781TIP3    H277759   2.700   4.174   2.354  0.2351 -0.1726  0.0957
18782TIP3   OH277760   5.928   2.474  15.866  0.1029  0.2322 -0.0340
18782TIP3    H177761   5.957   2.482  15.957 -2.0457 -0.2780  0.7360
18782TIP3    H277762   5.851   2.530  15.860 -1.1947 -1.5675 -0.8657
18783TIP3   OH277763   2.337   3.688   0.552 -0.3477  0.2330 -0.3314
18783TIP3    H177764   2.400   3.739   0.602 -0.1997 -0.5244  0.2761
18783TIP3    H277765   2.355   3.597   0.578 -0.2534 -0.1703 -1.7732
18784TIP3   OH277766   2.889   4.675   0.565 -0.5364 -0.3986  0.0949
18784TIP3    H177767   2.928   4.661   0.479 -1.1635 -2.1559  0.0684
18784TIP3    H277768   2.901   4.768   0.582  2.5742 -0.6252 -0.4390
18785TIP3   OH277769   5.392   5.650  16.127  0.2188  0.1785  0.1653
18785TIP3    H177770   5.330   5.718  16.100  1.8102  1.2925 -0.7476
18785TIP3    H277771   5.376   5.578  16.067  0.0463  0.5992 -0.3015
18786TIP3   OH277772   1.539   2.196   5.716  0.4306  0.1289 -0.1294
18786TIP3    H177773   1.565   2.186   5.624  2.8047  0.3869  0.4659
18786TIP3    H277774   1.458   2.145   5.724  0.1813  0.1304 -2.3627
18787TIP3   OH277775   4.832   4.402  12.783 -0.5445 -0.2938  0.1370
18787TIP3    H177776   4.856   4.363  12.699  0.2909 -0.6368  0.5298
18787TIP3    H277777   4.786   4.333  12.830 -0.8556 -0.1588  0.0303
18788TIP3   OH277778   0.515   6.150  15.673  0.8189  0.3845  0.6017
18788TIP3    H177779   0.485   6.140  15.763 -0.8123 -1.0652 -0.0815
18788TIP3    H277780   0.441   6.121  15.619  1.4103  2.1154 -1.2333
18789TIP3   OH277781   1.819   4.465  10.899 -0.2011  0.2244 -0.4135
18789TIP3    H177782   1.808   4.456  10.804  0.3582  1.6927 -0.6211
18789TIP3    H277783   1.768   4.392  10.935 -0.7839 -0.0917 -1.8203
18790TIP3   OH277784   4.208   5.361   1.014  0.3181 -0.0921 -0.1168
18790TIP3    H177785   4.133   5.418   1.032  1.0155  0.6554  0.4618
18790TIP3    H277786   4.239   5.389   0.928  1.5998  1.4480  0.8404
18791TIP3   OH277787   0.177   2.689   0.731  0.4725  0.5825 -0.2013
18791TIP3    H177788   0.122   2.749   0.781 -0.7577 -1.4422  0.9670
18791TIP3    H277789   0.266   2.706   0.761  0.1000  1.6076  0.3325
18792TIP3   OH277790   0.499   3.329  12.766 -0.0589  0.4575  0.1036
18792TIP3    H177791   0.408   3.313  12.792  0.3595 -0.5312  1.0332
18792TIP3    H277792   0.510   3.276  12.687 -0.2464  0.4600  0.0738
18793TIP3   OH277793   5.508   6.013   1.042 -0.0833 -0.6873  0.1306
18793TIP3    H177794   5.578   6.035   1.104 -1.8446 -0.1549  1.9469
18793TIP3    H277795   5.537   5.930   1.003  1.2948 -0.7619  1.2624
18794TIP3   OH277796   0.133   1.795   4.737 -0.6410  0.3071 -0.0326
18794TIP3    H177797   0.111   1.870   4.793 -1.7258 -0.8749  1.1528
18794TIP3    H277798   0.139   1.721   4.798  2.3402 -0.2270 -0.9216
18795TIP3   OH277799   6.072   4.963   2.844  0.0716 -0.7693 -0.7351
18795TIP3    H177800   6.065   4.869   2.833 -0.8123 -0.4448 -3.2063
18795TIP3    H277801   6.021   4.982   2.923  0.4692 -2.3608 -0.0768
18796TIP3   OH277802   0.644   4.680   4.338 -0.1881  0.1005 -0.1929
18796TIP3    H177803   0.628   4.685   4.432  0.7534  0.4027 -0.0477
18796TIP3    H277804   0.694   4.599   4.326 -1.3415 -0.5614 -0.5774
18797TIP3   OH277805   3.849   2.086   5.117  0.2083  0.1003 -0.0802
18797TIP3    H177806   3.872   1.996   5.140  0.9059  0.2052 -0.3625
18797TIP3    H277807   3.824   2.082   5.025 -0.4474  0.0729  0.0959
18798TIP3   OH277808   2.301   3.369  13.463  0.3806 -0.4650  0.4869
18798TIP3    H177809   2.361   3.348  13.391  0.7771 -3.1778  1.5513
18798TIP3    H277810   2.347   3.437  13.512  1.5619 -0.8993  0.0102
18799TIP3   OH277811   2.886   0.049   1.407 -0.3218  0.1010  0.4973
18799TIP3    H177812   2.858   0.127   1.358 -1.5473 -1.5403 -1.5282
18799TIP3    H277813   2.817   0.036   1.473 -1.8818 -1.1001 -1.2977
18800TIP3   OH277814   4.431   6.090  13.888 -0.0755  0.6379 -0.1527
18800TIP3    H177815   4.469   6.162  13.939  1.7220 -0.8333  0.6295
18800TIP3    H277816   4.377   6.042  13.951 -0.3368  0.6000 -0.4014
18801TIP3   OH277817   2.792   0.805  12.057 -0.1146 -0.1261  0.4559
18801TIP3    H177818   2.737   0.879  12.085 -0.9425 -0.5774  0.0523
18801TIP3    H277819   2.755   0.730  12.103  0.1201 -0.4440  0.1251
18802TIP3   OH277820   5.385   1.468   6.087 -0.1909 -0.1356 -0.1046
18802TIP3    H177821   5.446   1.474   6.013 -0.6364  0.5578 -0.4308
18802TIP3    H277822   5.316   1.532   6.066  0.8891  1.7963  2.0679
18803TIP3   OH277823   6.091   1.596   3.021 -0.8628 -0.1721 -0.7818
18803TIP3    H177824   6.029   1.600   3.094 -0.4819 -0.5284 -0.4372
18803TIP3    H277825   6.126   1.684   3.014 -0.3700 -0.3093 -0.0745
18804TIP3   OH277826   6.370   4.851  14.551  0.0428  0.1173  0.5051
18804TIP3    H177827   6.284   4.889  14.534 -0.5012 -0.9987  0.7035
18804TIP3    H277828   6.407   4.834  14.465  0.4207  1.3667  0.4132
18805TIP3   OH277829   0.823   0.052   0.621 -0.2615  0.2025 -0.0756
18805TIP3    H177830   0.737   0.096   0.615 -1.1409 -1.6024 -1.0807
18805TIP3    H277831   0.830   0.026   0.712 -1.2875 -0.6163 -0.2185
18806TIP3   OH277832   6.295   4.991  13.834 -0.1659 -0.8206 -0.5618
18806TIP3    H177833   6.226   4.934  13.870  0.5653 -0.4562  1.4575
18806TIP3    H277834   6.322   5.045  13.908  1.7902 -0.4537 -1.5301
18807TIP3   OH277835   4.857   2.972   3.483 -0.0748  0.0476  0.1393
18807TIP3    H177836   4.872   2.882   3.455  0.4330  0.2793 -0.3444
18807TIP3    H277837   4.823   2.964   3.573  0.7108 -0.5859  0.3807
18808TIP3   OH277838   4.994   1.727   5.623 -0.3282 -0.3583 -0.0889
18808TIP3    H177839   4.919   1.675   5.595 -0.5532 -1.8103  3.0154
18808TIP3    H277840   4.964   1.771   5.703  1.7526 -0.0693  0.5642
18809TIP3   OH277841   4.955   3.576   2.240 -0.4544  0.0539  0.0712
18809TIP3    H177842   4.954   3.670   2.223  0.0043  0.0366 -0.0573
18809TIP3    H277843   5.002   3.566   2.322 -0.1751 -0.0929 -0.1040
18810TIP3   OH277844   1.005   4.263   1.254 -0.0781 -0.1569  0.5293
18810TIP3    H177845   1.062   4.186   1.264  0.9466  0.5731  0.4590
18810TIP3    H277846   1.025   4.296   1.167 -0.4240  0.2613  0.6076
18811TIP3   OH277847   6.668   0.350   0.696 -0.0160  0.2139  0.0579
18811TIP3    H177848   6.619   0.394   0.627  0.9647  0.9829 -0.1707
18811TIP3    H277849   6.682   0.417   0.762  3.1338  0.8401 -1.1492
18812TIP3   OH277850   0.766   3.825  13.596 -0.5231  0.0801  0.1988
18812TIP3    H177851   0.810   3.782  13.523 -2.4424 -0.6699 -0.5401
18812TIP3    H277852   0.712   3.892  13.556  0.3480  1.3858  1.1489
18813TIP3   OH277853   6.626   5.477   5.779 -0.0757 -0.2391  0.1816
18813TIP3    H177854   6.549   5.463   5.835 -0.3715 -1.3144 -0.4686
18813TIP3    H277855   6.695   5.426   5.820  0.3198  0.7973  0.8126
18814TIP3   OH277856   1.981   2.952   2.582  0.0759 -0.0529 -0.1181
18814TIP3    H177857   2.030   2.898   2.644 -2.1361 -0.7958  1.0152
18814TIP3    H277858   1.921   2.891   2.539 -0.6092  1.0186 -0.7087
18815TIP3   OH277859   3.834   5.323   1.619  0.2312  0.3289 -0.0033
18815TIP3    H177860   3.755   5.352   1.575 -1.0020 -0.9978  1.3052
18815TIP3    H277861   3.818   5.340   1.712  1.1105 -0.8083  0.3655
18816TIP3   OH277862   5.510   0.222   0.228 -0.0362  0.2302 -0.2077
18816TIP3    H177863   5.496   0.308   0.188  0.4706 -0.5566 -2.1364
18816TIP3    H277864   5.431   0.207   0.280 -1.9361  0.1883 -2.9881
18817TIP3   OH277865   5.268   0.227   5.156  0.1037 -0.3690  0.2341
18817TIP3    H177866   5.277   0.295   5.223 -1.8145  0.3167 -0.1712
18817TIP3    H277867   5.304   0.266   5.076 -0.6634  0.0312  0.0866
18818TIP3   OH277868   4.076   2.858  16.768 -0.0150 -0.6432 -0.0769
18818TIP3    H177869   3.982   2.867  16.754 -0.2669 -2.7094  0.1274
18818TIP3    H277870   4.107   2.812  16.691  1.2874  2.2467 -1.3575
18819TIP3   OH277871   4.078   4.214   3.826  0.0524 -0.1493  0.8363
18819TIP3    H177872   4.051   4.152   3.894 -1.0169 -0.4424  0.1444
18819TIP3    H277873   4.170   4.232   3.846  0.6922 -2.7546  0.4109
18820TIP3   OH277874   2.011   1.961   6.249  0.3560 -0.4188 -0.4320
18820TIP3    H177875   2.021   1.869   6.271 -0.3507  0.0317  1.8655
18820TIP3    H277876   2.091   2.002   6.281 -0.6783  0.2423  1.3547
18821TIP3   OH277877   5.161   2.041  16.353 -0.0809  0.1687 -0.6123
18821TIP3    H177878   5.098   2.055  16.282 -0.2714 -1.4585 -0.7906
18821TIP3    H277879   5.145   1.951  16.381 -0.5584  1.0347  2.0541
18822TIP3   OH277880   0.857   5.878  14.010  0.0444 -0.6221  0.0636
18822TIP3    H177881   0.861   5.832  14.093 -0.0544 -1.0673 -0.1796
18822TIP3    H277882   0.943   5.863  13.970 -0.2111 -1.1193 -0.2971
18823TIP3   OH277883   5.636   2.497   2.924 -0.1810  0.5016  0.0575
18823TIP3    H177884   5.720   2.507   2.879 -0.5016  1.7254 -0.3055
18823TIP3    H277885   5.653   2.525   3.014  0.3027 -1.2986  0.5238
18824TIP3   OH277886   0.159   5.769  13.784  0.7491 -0.1607  0.3534
18824TIP3    H177887   0.129   5.695  13.731  1.4573 -0.3556  0.2225
18824TIP3    H277888   0.121   5.753  13.871 -2.5046  1.4472 -0.6848
18825TIP3   OH277889   3.552   6.043   0.843 -0.5460  0.5770 -0.8997
18825TIP3    H177890   3.488   5.974   0.829 -0.4392  0.6355 -1.6978
18825TIP3    H277891   3.557   6.053   0.938  1.4388 -2.3679 -0.6350
18826TIP3   OH277892   4.922   2.536   0.472  0.5290  0.1856  0.0835
18826TIP3    H177893   4.914   2.627   0.441  0.3476 -0.1366 -0.8348
18826TIP3    H277894   4.923   2.543   0.567  0.4604  1.1516  0.0187
18827TIP3   OH277895   5.976   0.807  15.060 -0.3494 -0.2102  0.6538
18827TIP3    H177896   6.016   0.766  14.983 -0.2553  1.4241 -0.1871
18827TIP3    H277897   6.050   0.828  15.117 -0.3151 -0.2720  0.6325
18828TIP3   OH277898   4.665   4.152   1.952 -0.0259  0.0651 -0.1178
18828TIP3    H177899   4.646   4.236   1.912 -0.1890  1.0001  1.8691
18828TIP3    H277900   4.754   4.131   1.923  0.1547  1.1086 -0.3215
18829TIP3   OH277901   0.383   2.825  12.015  0.4304  0.1371 -0.5255
18829TIP3    H177902   0.369   2.902  11.961  0.1160  0.3933 -0.0868
18829TIP3    H277903   0.309   2.824  12.075  1.6268  0.8130  1.0188
18830TIP3   OH277904   3.790   2.484   4.901 -0.0141  0.3168  0.0055
18830TIP3    H177905   3.881   2.509   4.885 -0.1619  1.5374  0.9300
18830TIP3    H277906   3.789   2.459   4.994 -0.5022 -0.2479 -0.1520
18831TIP3   OH277907   4.751   4.145  15.869 -0.2049 -0.1937 -0.3648
18831TIP3    H177908   4.723   4.185  15.787 -1.9814 -1.2507 -0.2991
18831TIP3    H277909   4.732   4.211  15.936  0.0612  0.1811 -0.6582
18832TIP3   OH277910   2.629   6.551  12.023  0.3212 -0.2790  0.2801
18832TIP3    H177911   2.688   6.597  12.084 -0.1535 -1.0374  1.3189
18832TIP3    H277912   2.567   6.619  11.995 -1.2528 -0.5567  2.9000
18833TIP3   OH277913   4.266   6.144  13.328  0.2184 -0.0190 -0.0096
18833TIP3    H177914   4.326   6.071  13.343 -2.3442 -2.3232 -0.5619
18833TIP3    H277915   4.278   6.201  13.404  0.4540 -2.3324  1.7438
18834TIP3   OH277916   6.568   4.620  12.982  0.1647 -0.1606  0.0817
18834TIP3    H177917   6.657   4.592  12.960  0.3703  0.4113  0.1794
18834TIP3    H277918   6.541   4.560  13.052  0.1364 -0.9031 -0.5586
18835TIP3   OH277919   1.756   2.991   5.827 -0.2042  0.9153  0.1953
18835TIP3    H177920   1.797   2.950   5.751 -0.7657 -0.8841  0.8413
18835TIP3    H277921   1.829   3.031   5.875  0.7267 -1.5440  0.8978
18836TIP3   OH277922   3.940   3.529   0.754 -0.0291 -0.3365 -0.0522
18836TIP3    H177923   3.895   3.510   0.671 -0.8012  0.6856  0.1149
18836TIP3    H277924   3.905   3.465   0.816  0.1361 -0.7431 -0.3782
18837TIP3   OH277925   6.600   0.818  15.816 -0.6197  0.2350  0.4278
18837TIP3    H177926   6.684   0.810  15.861 -0.4959 -1.2025 -0.0311
18837TIP3    H277927   6.623   0.839  15.726 -0.7326 -0.5847  0.2064
18838TIP3   OH277928   0.049   5.071  14.321 -0.5288 -1.2559  0.0743
18838TIP3    H177929   0.060   5.165  14.329  0.7693 -1.1384 -2.4528
18838TIP3    H277930   0.110   5.033  14.383  0.3175 -0.4366 -0.2514
18839TIP3   OH277931   3.324   6.339   4.432  0.3081 -0.1840  0.4684
18839TIP3    H177932   3.262   6.324   4.504 -0.7043 -0.1401 -0.3840
18839TIP3    H277933   3.339   6.253   4.395  1.2416 -0.2777  1.0685
18840TIP3   OH277934   3.371   3.530  15.378 -0.3177 -0.0279 -0.3577
18840TIP3    H177935   3.348   3.492  15.463  2.3677  0.2989  0.5453
18840TIP3    H277936   3.465   3.546  15.384 -0.5694  2.4073 -2.4515
18841TIP3   OH277937   3.409   4.342   2.979 -0.0619 -0.4567  0.4942
18841TIP3    H177938   3.393   4.262   3.029  0.2592 -0.0055  1.3280
18841TIP3    H277939   3.401   4.315   2.887  0.4474 -1.5257  0.7550
18842TIP3   OH277940   0.661   4.053  13.196  0.1236  0.3285 -0.0034
18842TIP3    H177941   0.632   3.983  13.255 -4.0337  3.4845  1.9243
18842TIP3    H277942   0.710   4.113  13.251 -0.3883  1.2954 -0.5767
18843TIP3   OH277943   2.249   6.721   0.264  0.0314  0.4210  0.4903
18843TIP3    H177944   2.211   6.797   0.221  0.1031  0.2306  0.0924
18843TIP3    H277945   2.324   6.697   0.210 -0.3305 -0.2821  0.2973
18844TIP3   OH277946   6.037   5.629   3.696  0.0470  0.2549 -0.0154
18844TIP3    H177947   5.999   5.702   3.647 -1.7516 -0.3909  0.3966
18844TIP3    H277948   6.045   5.662   3.785 -0.3267  0.1100  0.0719
18845TIP3   OH277949   0.035   1.751  14.436  0.1363 -0.3323 -0.0788
18845TIP3    H177950  -0.048   1.705  14.449  0.1719 -0.6834 -1.0574
18845TIP3    H277951   0.025   1.797  14.353  0.6658  0.2067  0.1453
18846TIP3   OH277952   6.252   5.109  11.929 -0.2070  0.4096  0.0114
18846TIP3    H177953   6.299   5.173  11.875  0.8355 -0.3323  0.0267
18846TIP3    H277954   6.253   5.148  12.017  2.8227 -0.8519  0.5890
18847TIP3   OH277955   3.513   6.533   4.046 -0.6838 -0.1868 -0.7753
18847TIP3    H177956   3.539   6.489   4.127  0.1130 -2.3777 -2.1809
18847TIP3    H277957   3.424   6.564   4.064  0.2070  1.1001  1.6003
18848TIP3   OH277958   6.752   0.222   3.853  0.1133 -0.1433 -0.6564
18848TIP3    H177959   6.662   0.207   3.881  0.3319  0.1057  0.1949
18848TIP3    H277960   6.782   0.296   3.906  0.5021  0.4040 -1.6349
18849TIP3   OH277961   2.961   6.640   5.432 -0.2938 -0.2626  0.0997
18849TIP3    H177962   2.946   6.603   5.519  1.1249  1.5496  1.1337
18849TIP3    H277963   2.954   6.564   5.373  1.2318 -1.9631  2.0315
18850TIP3   OH277964   4.639   5.240  11.925  0.0086 -0.1998  0.3713
18850TIP3    H177965   4.602   5.152  11.928  0.2399 -0.4990 -3.6408
18850TIP3    H277966   4.565   5.298  11.945 -0.6563 -1.1693  0.7377
18851TIP3   OH277967   2.754   0.623   1.466 -0.5563 -0.2159 -1.0523
18851TIP3    H177968   2.764   0.539   1.511 -2.0701 -0.2307 -0.7184
18851TIP3    H277969   2.687   0.607   1.400 -0.9400  0.7628 -0.9083
18852TIP3   OH277970   1.465   4.295  13.230  0.6458  0.2460  0.4424
18852TIP3    H177971   1.526   4.321  13.298 -1.5692 -1.0009  2.9942
18852TIP3    H277972   1.438   4.207  13.254  0.8712 -0.7701 -2.8439
18853TIP3   OH277973   2.508   2.509  15.977  0.1680 -0.1334 -0.2422
18853TIP3    H177974   2.521   2.445  16.047  0.4855 -0.7147 -0.8147
18853TIP3    H277975   2.463   2.459  15.908 -0.7267  0.6020 -0.1937
18854TIP3   OH277976   5.365   3.491  15.232  0.6135  0.3806  0.2486
18854TIP3    H177977   5.309   3.546  15.287  0.5837  1.1918 -0.5614
18854TIP3    H277978   5.382   3.413  15.284  1.0638  1.3784  1.6421
18855TIP3   OH277979   2.747   6.105   1.002 -0.2721 -0.0761  0.3480
18855TIP3    H177980   2.701   6.022   1.014  1.4553 -1.3208 -1.3948
18855TIP3    H277981   2.704   6.145   0.926  1.4772 -1.2570 -1.3060
18856TIP3   OH277982   4.638   5.356  13.794  0.6061 -0.0192  0.1362
18856TIP3    H177983   4.614   5.385  13.882  0.6757 -0.4201  0.2853
18856TIP3    H277984   4.613   5.430  13.738  1.4921  0.6509  0.6021
18857TIP3   OH277985   0.633   2.782   6.958 -0.3915  0.3905  0.7518
18857TIP3    H177986   0.689   2.737   6.895  0.8657  0.8029  1.5526
18857TIP3    H277987   0.544   2.750   6.939  0.4903 -2.6814  1.5029
18858TIP3   OH277988   0.349   3.387  16.583  0.5857  0.2768 -0.0849
18858TIP3    H177989   0.322   3.296  16.596  0.8827  0.4836  2.1265
18858TIP3    H277990   0.304   3.414  16.504 -2.9386 -0.4881  1.5787
18859TIP3   OH277991   3.337   3.072  13.274 -0.3628 -0.4192 -0.1043
18859TIP3    H177992   3.355   3.142  13.336 -0.0992 -0.8835  0.3468
18859TIP3    H277993   3.357   3.110  13.189  0.1666 -0.0729  0.1676
18860TIP3   OH277994   4.329   6.307  15.933 -0.0619  0.4038 -0.0479
18860TIP3    H177995   4.418   6.335  15.913  0.2008  0.1913  0.7894
18860TIP3    H277996   4.311   6.346  16.019  1.0882 -3.6836  2.1655
18861TIP3   OH277997   3.842   3.155   2.228  0.5772 -0.2828 -0.2358
18861TIP3    H177998   3.771   3.176   2.288  1.1400 -0.4195  0.4815
18861TIP3    H277999   3.807   3.176   2.141 -1.1938 -2.6543 -0.1214
18862TIP3   OH278000   0.071   6.209  12.250  0.7075  0.4872  0.0139
18862TIP3    H178001   0.103   6.167  12.170 -0.0007  0.3427 -0.2027
18862TIP3    H278002   0.058   6.300  12.226  0.6575  0.4800  0.0125
18863TIP3   OH278003   3.196   1.748  12.621 -0.4338 -0.5576 -0.3339
18863TIP3    H178004   3.211   1.817  12.685 -0.9527  1.0802 -1.9510
18863TIP3    H278005   3.103   1.753  12.602 -0.3091 -1.1457 -1.1114
18864TIP3   OH278006   6.708   1.663   5.406  0.2038  0.0630 -0.6894
18864TIP3    H178007   6.765   1.732   5.373 -1.9021  1.7596 -0.8626
18864TIP3    H278008   6.666   1.627   5.328 -0.3137  0.0350 -0.3954
18865TIP3   OH278009   6.166   5.739  13.213  0.0325 -0.1754 -0.2856
18865TIP3    H178010   6.196   5.783  13.134 -0.2169  0.2443 -0.1533
18865TIP3    H278011   6.138   5.652  13.184 -0.3846  0.1029 -0.7146
18866TIP3   OH278012   4.743   5.656  15.972  0.3800  0.5369  0.2706
18866TIP3    H178013   4.715   5.667  15.881 -0.8795 -1.3583  0.3962
18866TIP3    H278014   4.676   5.702  16.023  0.0597  0.0220  0.3226
18867TIP3   OH278015   2.259   1.312  11.173  0.2903 -0.0796  0.2292
18867TIP3    H178016   2.235   1.383  11.113  0.6456  1.0090  1.3478
18867TIP3    H278017   2.212   1.333  11.254 -2.2559 -2.9180 -0.4329
18868TIP3   OH278018   4.826   0.359   2.145  0.1864  0.3567 -0.0053
18868TIP3    H178019   4.917   0.359   2.116  0.7814  1.3966  1.7693
18868TIP3    H278020   4.831   0.380   2.238 -1.7931 -0.7985  0.3891
18869TIP3   OH278021   4.768   0.034   5.512 -0.3173  0.1830 -0.1836
18869TIP3    H178022   4.740   0.110   5.462  0.2185  0.1449 -0.5565
18869TIP3    H278023   4.760   0.060   5.603  1.0683  1.1308 -0.3234
18870TIP3   OH278024   2.119   0.951   1.154  0.0118 -0.0483  0.7658
18870TIP3    H178025   2.156   0.947   1.242 -0.1166  1.4540  0.9063
18870TIP3    H278026   2.180   1.005   1.104 -0.8427  0.6222  0.4220
18871TIP3   OH278027   3.830   3.709  12.847  0.4615 -0.1674  0.3480
18871TIP3    H178028   3.838   3.799  12.878 -0.6122 -0.1057  0.4600
18871TIP3    H278029   3.797   3.660  12.923  0.2320 -0.4931  0.0369
18872TIP3   OH278030   3.962   1.736   5.000  0.1940 -0.6547  0.2208
18872TIP3    H178031   3.983   1.736   4.907 -0.5532 -1.3088  0.0498
18872TIP3    H278032   3.867   1.721   5.004  0.1925 -0.4719  1.0771
18873TIP3   OH278033   6.578   5.184  16.819  0.3957 -0.0074 -0.1542
18873TIP3    H178034   6.491   5.216  16.844  0.5428  0.7008 -0.5558
18873TIP3    H278035   6.620   5.257  16.774  1.0370 -0.4912 -0.3677
18874TIP3   OH278036   2.119   5.434  16.277 -0.4647  0.1513 -0.8821
18874TIP3    H178037   2.194   5.386  16.312 -2.3846 -2.8747 -0.7238
18874TIP3    H278038   2.068   5.459  16.354  0.1223  1.7738 -1.0145
18875TIP3   OH278039   1.798   0.689  15.066 -0.2063  0.2211 -0.1576
18875TIP3    H178040   1.765   0.718  14.981  2.5661 -1.7732 -1.9960
18875TIP3    H278041   1.847   0.764  15.099  1.4342 -0.0679 -1.8625
18876TIP3   OH278042   0.559   4.852  13.618 -0.0177 -0.2829  0.3413
18876TIP3    H178043   0.620   4.832  13.689  0.4013 -2.3746 -0.5774
18876TIP3    H278044   0.475   4.817  13.648 -0.3060  0.6541  0.6603
18877TIP3   OH278045   5.050   3.580   2.500  0.3601  0.2485  0.7351
18877TIP3    H178046   5.142   3.557   2.485  0.3350  0.7019 -0.1546
18877TIP3    H278047   5.053   3.645   2.569  0.6980  0.1570  0.8088
18878TIP3   OH278048   3.116   1.779  15.306  0.5220  0.5421  0.5967
18878TIP3    H178049   3.122   1.841  15.233  1.8350  1.6871  1.6291
18878TIP3    H278050   3.207   1.758  15.326  0.1329 -0.5453  1.2580
18879TIP3   OH278051   0.973   5.812   3.157  0.6974  0.2535 -0.6196
18879TIP3    H178052   0.983   5.805   3.062  0.5854 -1.3102 -0.5284
18879TIP3    H278053   0.907   5.747   3.179 -0.2908  1.5636  0.3779
18880TIP3   OH278054   4.070   2.500  16.477  0.6639  0.1216  0.0383
18880TIP3    H178055   4.072   2.451  16.559  1.0002 -0.0901 -0.0965
18880TIP3    H278056   4.142   2.465  16.426  1.5201  1.4124  0.3294
18881TIP3   OH278057   1.214   0.931  10.689 -0.3038 -0.1311 -0.2424
18881TIP3    H178058   1.137   0.962  10.641  0.6770  0.6341 -1.3275
18881TIP3    H278059   1.282   0.996  10.672  0.6067 -0.8092  0.6927
18882TIP3   OH278060   5.414   2.226  15.007  0.6089 -0.1267  0.1905
18882TIP3    H178061   5.480   2.294  15.015  0.3197  0.1247  0.4417
18882TIP3    H278062   5.463   2.148  14.982  1.2592 -0.4032  2.2245
18883TIP3   OH278063   0.397   2.389   1.440  0.3877  1.0749  0.2842
18883TIP3    H178064   0.329   2.386   1.373  0.3993  1.7031  0.2440
18883TIP3    H278065   0.411   2.297   1.464 -0.1246  0.9062 -0.0573
18884TIP3   OH278066   1.504   0.513   2.086  0.7040 -0.0201  0.2703
18884TIP3    H178067   1.426   0.484   2.038  1.3579  0.0713 -0.8784
18884TIP3    H278068   1.554   0.564   2.022  2.3096 -1.1073  0.6268
18885TIP3   OH278069   2.282   3.642   4.720 -0.2870  0.1146  0.4547
18885TIP3    H178070   2.308   3.584   4.648 -0.2511 -0.7366  1.1410
18885TIP3    H278071   2.273   3.728   4.680 -0.3798 -0.3768 -0.5923
18886TIP3   OH278072   0.690   2.049   1.172  0.5286  0.2129 -0.3380
18886TIP3    H178073   0.657   2.048   1.081  0.2893  0.0645 -0.2513
18886TIP3    H278074   0.663   1.964   1.207  0.6808  0.2445 -0.1479
18887TIP3   OH278075   3.807   0.677   2.019  0.2203  0.0411  0.3081
18887TIP3    H178076   3.725   0.719   1.993 -0.9837 -1.4196  1.6701
18887TIP3    H278077   3.841   0.733   2.090  0.5129  0.7594 -0.3961
18888TIP3   OH278078   4.828   4.311   0.385 -0.1224  0.4756  0.8214
18888TIP3    H178079   4.864   4.235   0.338 -3.5676 -1.5273  1.1822
18888TIP3    H278080   4.902   4.349   0.430  1.7234 -2.8270  0.7566
18889TIP3   OH278081   5.974   0.568   1.593 -0.2508  0.1896 -0.3701
18889TIP3    H178082   5.894   0.519   1.612  1.3730 -3.8166 -3.1244
18889TIP3    H278083   6.026   0.561   1.673 -2.6573  3.0327  1.5247
18890TIP3   OH278084   2.873   4.316   0.065 -0.2765 -0.1085  0.4386
18890TIP3    H178085   2.781   4.289   0.076  0.1634 -2.0067 -0.2309
18890TIP3    H278086   2.917   4.284   0.144 -0.4106  1.9769  1.3894
18891TIP3   OH278087   1.424   2.046   2.415 -0.1149 -0.6840 -0.4189
18891TIP3    H178088   1.504   2.000   2.439 -0.2701 -0.0196  1.4098
18891TIP3    H278089   1.372   1.981   2.366  1.7987 -0.9117 -2.2156
18892TIP3   OH278090   1.645   1.137  15.659 -0.1260  0.8896 -0.3344
18892TIP3    H178091   1.699   1.166  15.733  2.4229 -0.8656 -1.4443
18892TIP3    H278092   1.704   1.137  15.584 -1.4023 -2.0035 -1.4033
18893TIP3   OH278093   4.222   6.393  12.707  0.2334 -0.3015  0.1603
18893TIP3    H178094   4.260   6.399  12.619 -1.8346 -1.0132 -0.8307
18893TIP3    H278095   4.229   6.301  12.730 -1.6805 -0.6282 -0.4445
18894TIP3   OH278096   4.718   6.122  10.955  0.1996 -0.2065 -0.4172
18894TIP3    H178097   4.750   6.180  11.023 -0.3816  0.8095 -0.9987
18894TIP3    H278098   4.631   6.096  10.985  0.3976 -0.6526 -0.2290
18895TIP3   OH278099   3.316   6.655   1.293 -0.0795 -1.0279 -0.1891
18895TIP3    H178100   3.265   6.690   1.367 -1.5968  1.6121 -2.4082
18895TIP3    H278101   3.322   6.561   1.311 -3.9941 -1.1013  1.1970
18896TIP3   OH278102   4.853   1.856   5.832  0.2385 -0.4264  0.4243
18896TIP3    H178103   4.840   1.951   5.830 -1.0691 -0.5987  0.6990
18896TIP3    H278104   4.836   1.832   5.923  0.5192 -0.9360  0.3409
18897TIP3   OH278105   4.626   5.450   6.016 -0.2804 -0.3021  0.6233
18897TIP3    H178106   4.645   5.493   6.099  1.3920  0.3967 -0.0914
18897TIP3    H278107   4.623   5.357   6.037  4.1959 -0.4866  0.8094
18898TIP3   OH278108   0.804   5.398   5.970  0.1316 -0.4174 -0.3309
18898TIP3    H178109   0.738   5.395   6.039  0.1629 -2.4807 -0.3599
18898TIP3    H278110   0.842   5.486   5.977  0.6343 -0.8084  2.7889
18899TIP3   OH278111   4.863   6.322  16.794  0.1503 -0.3003 -0.3583
18899TIP3    H178112   4.955   6.311  16.771  0.7232  0.4946  1.4810
18899TIP3    H278113   4.846   6.415  16.783 -0.3222 -0.3733 -0.2559
18900TIP3   OH278114   3.116   1.845  12.936 -0.2939  0.3083 -0.3109
18900TIP3    H178115   3.211   1.849  12.948 -0.2424  1.2471 -1.0153
18900TIP3    H278116   3.080   1.874  13.020  0.0368 -0.2067  0.0124
18901TIP3   OH278117   6.220   1.202   4.386  0.4459 -0.8308  0.0646
18901TIP3    H178118   6.209   1.261   4.461  0.4227 -0.8027  0.0386
18901TIP3    H278119   6.313   1.209   4.364 -0.2618  2.1394 -2.3863
18902TIP3   OH278120   1.359   6.725   1.183 -0.7011 -0.1013 -0.4575
18902TIP3    H178121   1.388   6.772   1.105  1.1158 -0.0723  0.2125
18902TIP3    H278122   1.438   6.714   1.236 -1.3788 -2.4884  0.1501
18903TIP3   OH278123   3.085   4.603  16.846  0.3410 -0.4024 -0.1909
18903TIP3    H178124   3.136   4.522  16.855 -0.7031 -1.0933 -0.4802
18903TIP3    H278125   3.119   4.660  16.915  1.5481 -0.8331 -0.4051
18904TIP3   OH278126   2.561   6.062  14.014  0.4482  0.4933 -0.3483
18904TIP3    H178127   2.591   5.978  14.048  0.1925  0.3665 -0.4270
18904TIP3    H278128   2.599   6.128  14.072 -0.1907  0.2668  0.3333
18905TIP3   OH278129   6.766   6.295   4.186 -0.2318  0.4240  0.5437
18905TIP3    H178130   6.814   6.368   4.224  1.4148  0.5298 -1.6780
18905TIP3    H278131   6.793   6.219   4.238  0.6928  0.8247  0.6456
18906TIP3   OH278132   1.903   3.550  13.549  0.3019  0.1064  0.0636
18906TIP3    H178133   1.994   3.539  13.577  0.5035 -1.0676 -1.0154
18906TIP3    H278134   1.883   3.642  13.567  2.0690  0.6720 -0.7365
18907TIP3   OH278135   4.961   4.023  10.593 -0.2148  0.2796  0.1357
18907TIP3    H178136   5.055   4.009  10.601 -0.2882  0.1575  0.7999
18907TIP3    H278137   4.938   4.076  10.669 -0.4459  1.5547 -0.8066
18908TIP3   OH278138   6.632   1.101  12.314  0.3075 -0.7731 -0.0109
18908TIP3    H178139   6.673   1.182  12.343 -0.8333  0.4264 -1.6566
18908TIP3    H278140   6.572   1.077  12.385  2.1895 -1.3776  1.4347
18909TIP3   OH278141   0.168   6.274   5.102 -1.3504 -0.6914 -0.1409
18909TIP3    H178142   0.190   6.282   5.010 -0.2255  1.1604  0.2755
18909TIP3    H278143   0.250   6.253   5.145 -1.6045 -0.1597  0.6130
18910TIP3   OH278144   0.238   1.692  16.386  0.3525 -0.3039 -0.6428
18910TIP3    H178145   0.154   1.675  16.344  0.0099  0.4766 -0.2864
18910TIP3    H278146   0.251   1.786  16.378  0.2557 -0.1349  1.0345
18911TIP3   OH278147   2.810   3.097   0.981  0.2187  0.5527  0.2591
18911TIP3    H178148   2.799   3.034   0.909  1.7491  0.3880  0.1588
18911TIP3    H278149   2.800   3.182   0.939  0.9620  0.4523 -0.1383
18912TIP3   OH278150   4.526   2.058   3.593 -0.2436 -0.0795 -0.2142
18912TIP3    H178151   4.443   2.084   3.553  0.5500  2.1310 -0.4565
18912TIP3    H278152   4.575   2.139   3.602  1.5354 -1.2410  0.7880
18913TIP3   OH278153   6.291   1.964  16.982 -0.7925 -0.0672  0.2776
18913TIP3    H178154   6.354   2.023  17.022 -0.8923 -1.4673  2.5892
18913TIP3    H278155   6.321   1.876  17.006  0.0848 -1.1024 -4.1637
18914TIP3   OH278156   1.191   2.873  13.534 -0.2825  0.0947  0.0053
18914TIP3    H178157   1.285   2.855  13.542 -0.6342 -1.5517  0.6225
18914TIP3    H278158   1.182   2.965  13.560  1.1306  0.2161  0.1257
18915TIP3   OH278159   5.711   3.599  13.709  0.0883 -0.3910 -0.4272
18915TIP3    H178160   5.719   3.617  13.616 -0.0963 -1.1221 -0.5864
18915TIP3    H278161   5.802   3.588  13.739  0.1249 -0.5566 -0.5986
18916TIP3   OH278162   0.474   4.748   5.515 -0.2468  0.5242  0.4126
18916TIP3    H178163   0.485   4.676   5.453 -1.9195 -1.0526  1.8730
18916TIP3    H278164   0.526   4.722   5.591  0.4293  1.6461  0.3493
18917TIP3   OH278165   0.753   3.945  13.999 -0.4343 -0.2041  0.5381
18917TIP3    H178166   0.729   3.874  13.939  0.1959 -0.5460  0.6774
18917TIP3    H278167   0.709   3.922  14.081  0.0621 -0.6393  0.6917
18918TIP3   OH278168   1.514   3.396   0.930 -0.7590  0.3771 -0.4963
18918TIP3    H178169   1.432   3.372   0.888 -1.4031  0.6222  0.6044
18918TIP3    H278170   1.526   3.331   0.999 -0.4115  0.7815 -0.1707
18919TIP3   OH278171   5.766   2.512   1.409 -0.4631 -0.1719 -0.1435
18919TIP3    H178172   5.694   2.560   1.449 -0.5061 -0.9133  0.6891
18919TIP3    H278173   5.827   2.579   1.379 -0.9811  0.4268  0.1440
18920TIP3   OH278174   5.483   2.780  12.588 -0.7140 -0.5934  0.1632
18920TIP3    H178175   5.478   2.685  12.585 -1.8923 -0.5809  1.2475
18920TIP3    H278176   5.477   2.802  12.681 -0.5720  0.5383 -0.0844
18921TIP3   OH278177   5.245   0.030  13.754 -0.6335 -0.3972  0.0876
18921TIP3    H178178   5.201  -0.052  13.776  0.6408 -1.2981 -0.6280
18921TIP3    H278179   5.211   0.054  13.668 -2.3239  0.7789  1.0653
18922TIP3   OH278180   6.197   6.744   4.234 -0.0238 -0.2443  0.0852
18922TIP3    H178181   6.196   6.750   4.138 -2.3600 -0.6006  0.0578
18922TIP3    H278182   6.182   6.834   4.263 -0.8496 -0.3798  0.0885
18923TIP3   OH278183   5.203   0.366  16.832  0.2404  0.2270 -1.0746
18923TIP3    H178184   5.242   0.415  16.759  2.6033 -1.9710 -1.3765
18923TIP3    H278185   5.118   0.337  16.799 -0.1725  2.1312 -1.7203
18924TIP3   OH278186   3.104   6.627   1.640  0.3761  0.1290 -0.1236
18924TIP3    H178187   3.126   6.542   1.601 -0.2299  0.2054 -0.6364
18924TIP3    H278188   3.043   6.606   1.710  1.1598  0.0304  0.5432
18925TIP3   OH278189   3.708   5.569  10.946 -0.0097 -0.1641 -0.2659
18925TIP3    H178190   3.689   5.661  10.964 -0.4528 -0.5638  1.4023
18925TIP3    H278191   3.796   5.556  10.981 -0.5158 -0.7181  0.8313
18926TIP3   OH278192   1.391   1.619   4.203  0.4950  0.2152  0.6629
18926TIP3    H178193   1.453   1.616   4.130  0.5466 -1.8021  0.7478
18926TIP3    H278194   1.393   1.710   4.233  1.2383  0.8279 -1.1803
18927TIP3   OH278195   0.533   0.890   4.625 -0.1861  0.1324  0.3079
18927TIP3    H178196   0.524   0.801   4.592 -1.6219 -0.3511  1.8777
18927TIP3    H278197   0.471   0.941   4.573  1.2270  0.3887 -1.1432
18928TIP3   OH278198   1.703   3.482   0.461  0.6468 -0.2777 -0.1890
18928TIP3    H178199   1.651   3.518   0.533  0.9041 -0.2994  0.0069
18928TIP3    H278200   1.654   3.506   0.382  0.8774  0.5918 -0.0666
18929TIP3   OH278201   0.919   1.618   0.502 -0.1458 -0.7483  0.1203
18929TIP3    H178202   0.911   1.688   0.438  1.0411 -1.2838 -0.6198
18929TIP3    H278203   1.012   1.595   0.502 -0.7008 -3.1015 -0.4760
18930TIP3   OH278204   0.733   6.282  13.170  0.1884  0.2301  0.1659
18930TIP3    H178205   0.785   6.341  13.225  0.6949 -0.8228  0.8236
18930TIP3    H278206   0.651   6.271  13.218  0.1517  0.2951  0.1167
18931TIP3   OH278207   3.676   0.697   4.086 -0.1737 -0.3966 -0.5415
18931TIP3    H178208   3.721   0.613   4.097 -0.1886 -0.3881 -0.4151
18931TIP3    H278209   3.632   0.690   4.002 -1.0646 -0.9250 -0.0370
18932TIP3   OH278210   2.356   1.668   6.110 -0.5681  0.6139 -0.3639
18932TIP3    H178211   2.264   1.663   6.138 -0.8782  1.0596 -1.2740
18932TIP3    H278212   2.367   1.759   6.082 -0.1142  0.3189 -1.1538
18933TIP3   OH278213   2.349   0.476   0.941 -0.2890 -0.4929  0.1517
18933TIP3    H178214   2.322   0.568   0.935  4.2016  0.8614 -1.0627
18933TIP3    H278215   2.309   0.435   0.865 -1.0129  0.8185 -0.1953
18934TIP3   OH278216   1.570   3.032   6.116  0.5217  0.4479 -0.7396
18934TIP3    H178217   1.604   3.118   6.093 -2.3916  2.4278  1.8408
18934TIP3    H278218   1.619   3.006   6.194 -1.0894  1.5561  0.6983
18935TIP3   OH278219   4.478   3.906   5.550  0.8863 -0.1336  0.0498
18935TIP3    H178220   4.542   3.969   5.582  0.4227 -0.2083  1.1328
18935TIP3    H278221   4.393   3.938   5.582  0.4880 -0.5589 -0.5536
18936TIP3   OH278222   1.536   5.044   3.804  0.4891 -0.5219  0.3266
18936TIP3    H178223   1.522   4.949   3.812  1.6310 -0.5670  1.9336
18936TIP3    H278224   1.560   5.056   3.712 -0.3943 -1.6854 -0.0803
18937TIP3   OH278225   6.136   4.721   1.471 -0.0401 -0.5612 -0.1280
18937TIP3    H178226   6.224   4.754   1.454 -0.3599  0.4759  0.1835
18937TIP3    H278227   6.114   4.754   1.558 -1.3774  0.5846 -0.8836
18938TIP3   OH278228   0.927   3.147   1.160 -0.4666  0.3430  0.2358
18938TIP3    H178229   0.893   3.061   1.138  0.3450 -0.1293  0.8011
18938TIP3    H278230   0.995   3.163   1.094 -2.1130  1.5181 -1.2274
18939TIP3   OH278231   6.036   6.228   0.202 -0.2982 -0.1965  0.0096
18939TIP3    H178232   5.947   6.263   0.194 -1.1826 -2.0739  1.3615
18939TIP3    H278233   6.076   6.247   0.117 -1.5470  1.8360 -0.1627
18940TIP3   OH278234   5.816   1.513   0.343 -0.5001 -0.4995 -0.0747
18940TIP3    H178235   5.829   1.571   0.267 -0.6892  1.4121  1.3082
18940TIP3    H278236   5.898   1.521   0.393 -1.0143 -0.4349  0.7651
18941TIP3   OH278237   4.828   1.670   1.604 -0.7084  0.7318  0.4773
18941TIP3    H178238   4.855   1.737   1.541  0.7646  1.0390  1.3958
18941TIP3    H278239   4.825   1.589   1.554 -1.3344  1.2789 -0.3833
18942TIP3   OH278240   5.463   2.558  13.497 -0.2100 -0.0794 -0.2292
18942TIP3    H178241   5.487   2.539  13.588  1.1019 -0.6004 -0.6716
18942TIP3    H278242   5.387   2.503  13.481  0.7289 -1.4804 -0.0344
18943TIP3   OH278243   1.876   3.095   5.382  0.1127  0.2320 -0.3419
18943TIP3    H178244   1.887   3.181   5.423  3.5057  0.0150 -0.6479
18943TIP3    H278245   1.876   3.033   5.455 -0.7311  0.3468 -0.2362
18944TIP3   OH278246   4.671   6.283  11.200  0.0759 -0.3450 -0.1502
18944TIP3    H178247   4.578   6.308  11.198 -0.6571 -2.9242 -0.3149
18944TIP3    H278248   4.700   6.308  11.287 -0.3608  1.8620 -0.6106
18945TIP3   OH278249   3.538   1.976   1.933 -0.2438 -0.2099  0.2566
18945TIP3    H178250   3.522   2.008   1.844  1.9025 -1.0459 -0.4420
18945TIP3    H278251   3.454   1.988   1.978 -1.0956  1.0354 -1.6229
18946TIP3   OH278252   0.871   4.993  11.664 -0.2955  0.3386 -0.5420
18946TIP3    H178253   0.884   5.048  11.741 -1.2995  0.8042 -0.7032
18946TIP3    H278254   0.934   5.026  11.600  0.3861  0.0910 -0.0073
18947TIP3   OH278255   1.388   3.397   2.403  0.3275 -0.0800 -0.4774
18947TIP3    H178256   1.327   3.469   2.415  1.0541  0.6968 -1.3813
18947TIP3    H278257   1.444   3.424   2.331  1.3043 -1.0804 -0.1173
18948TIP3   OH278258   5.349   5.290   0.381  0.1836  0.0478  0.2619
18948TIP3    H178259   5.306   5.206   0.369 -0.4436  0.5283 -0.9067
18948TIP3    H278260   5.442   5.269   0.388 -0.2834 -1.1448  4.1301
18949TIP3   OH278261   0.983   6.211  16.042  0.6659 -0.3643 -0.2420
18949TIP3    H178262   0.938   6.207  16.126 -0.6145  2.7770 -0.6891
18949TIP3    H278263   1.046   6.139  16.045 -0.7443 -1.5672  2.5587
18950TIP3   OH278264   4.940   3.887  16.442 -0.0593 -0.0827  0.3475
18950TIP3    H178265   4.989   3.891  16.360 -0.3388 -0.7565  0.1426
18950TIP3    H278266   4.988   3.945  16.502  0.0422  0.5531 -0.3395
18951TIP3   OH278267   2.705   5.354  15.835 -0.2610  0.0239  0.3498
18951TIP3    H178268   2.688   5.285  15.899 -1.5929  0.4832  0.5210
18951TIP3    H278269   2.778   5.403  15.872 -0.3196 -0.3665  0.9916
18952TIP3   OH278270   4.956   3.831   2.595  1.0399  0.4071  0.6779
18952TIP3    H178271   5.006   3.834   2.677 -0.4402  2.8161  1.5619
18952TIP3    H278272   4.867   3.811   2.623  0.6046  0.8075 -0.4056
18953TIP3   OH278273   3.856   0.880   4.433 -0.3196 -0.2717 -0.0963
18953TIP3    H178274   3.921   0.918   4.493 -0.9385 -0.6486  0.8286
18953TIP3    H278275   3.908   0.834   4.367  0.3887  0.6839 -0.2139
18954TIP3   OH278276   5.565   4.057   2.699  0.0939  0.0905 -0.6860
18954TIP3    H178277   5.478   4.072   2.663 -0.0540  0.1359 -0.3152
18954TIP3    H278278   5.554   4.065   2.794  0.4044 -0.4172 -0.6061
18955TIP3   OH278279   0.368   4.652   3.248 -0.4174  0.4894 -0.3213
18955TIP3    H178280   0.285   4.642   3.293 -0.4868 -0.8276 -0.7199
18955TIP3    H278281   0.433   4.654   3.318 -0.6517 -0.0656 -0.0861
18956TIP3   OH278282   4.546   0.227   2.403 -0.2470  0.4944 -0.5940
18956TIP3    H178283   4.532   0.260   2.315 -1.7771  2.5312  0.3757
18956TIP3    H278284   4.471   0.169   2.419 -0.0982  0.3158 -0.5390
18957TIP3   OH278285   5.482   4.381   5.291  0.4553 -0.5323 -0.1087
18957TIP3    H178286   5.513   4.409   5.205 -3.0146  1.5250 -0.8165
18957TIP3    H278287   5.424   4.307   5.272 -0.0849 -0.2602  0.4605
18958TIP3   OH278288   3.298   3.986  12.319 -0.0956 -0.0709  0.9046
18958TIP3    H178289   3.226   4.030  12.365 -1.1274 -1.9193  1.0999
18958TIP3    H278290   3.312   4.039  12.241 -0.1590  1.5633  1.9607
18959TIP3   OH278291   1.761   5.782  16.033 -0.4040  0.8269  0.3457
18959TIP3    H178292   1.669   5.797  16.054 -0.4935  1.3240 -0.3771
18959TIP3    H278293   1.768   5.805  15.940  0.0797 -0.8395 -0.0411
18960TIP3   OH278294   1.837   2.781  10.792  0.0603 -0.7037 -0.3409
18960TIP3    H178295   1.902   2.766  10.724 -1.6171 -1.0566 -1.9190
18960TIP3    H278296   1.774   2.841  10.753 -0.7934 -0.7002  0.9968
18961TIP3   OH278297   2.742   2.722   4.724  0.3136  0.4122 -0.2857
18961TIP3    H178298   2.767   2.653   4.786 -1.2175  0.7660  0.7436
18961TIP3    H278299   2.814   2.785   4.729  0.1148  0.5293  1.2831
18962TIP3   OH278300   4.274   3.627   2.725  0.1002 -0.2278  0.2399
18962TIP3    H178301   4.305   3.703   2.677 -0.9491  0.8487  1.2312
18962TIP3    H278302   4.332   3.621   2.801 -0.5214  0.2753  0.7610
18963TIP3   OH278303   6.517   6.671  12.704  0.6374 -0.4245 -0.0354
18963TIP3    H178304   6.542   6.581  12.725  0.5923 -0.7385 -1.3328
18963TIP3    H278305   6.599   6.715  12.685  0.5155 -0.6371 -1.1008
18964TIP3   OH278306   6.314   1.771   1.725 -0.7817 -0.0675  0.1646
18964TIP3    H178307   6.295   1.696   1.669  1.0278 -0.8676  0.5981
18964TIP3    H278308   6.274   1.845   1.679 -0.0212 -0.8384 -1.7929
18965TIP3   OH278309   6.637   5.373   2.259 -0.3887  0.1247 -0.2162
18965TIP3    H178310   6.685   5.303   2.304 -0.0196  0.9787  0.7657
18965TIP3    H278311   6.674   5.374   2.171 -0.4777 -0.9873 -0.2775
18966TIP3   OH278312   0.029   3.815   6.462 -0.2402  0.7900 -0.3646
18966TIP3    H178313   0.107   3.869   6.450 -1.1690  2.3257  0.4286
18966TIP3    H278314  -0.036   3.874   6.500 -1.7650 -0.5035 -0.9061
18967TIP3   OH278315   4.963   0.195  16.744  0.0107 -0.1908  0.3509
18967TIP3    H178316   4.975   0.110  16.786 -0.2706 -1.2818 -1.7053
18967TIP3    H278317   4.910   0.176  16.666  1.1628  1.6410 -0.9259
18968TIP3   OH278318   2.087   0.537  14.486 -0.3234 -0.0295  0.7236
18968TIP3    H178319   2.000   0.570  14.510 -1.2761 -2.0364  0.1461
18968TIP3    H278320   2.073   0.443  14.469  1.7243 -0.1355 -0.5378
18969TIP3   OH278321   0.794   6.625   3.821  0.5904  0.5185 -0.3558
18969TIP3    H178322   0.787   6.692   3.889  0.4540  0.8142 -0.6582
18969TIP3    H278323   0.708   6.582   3.822  1.7695 -1.9164  2.1461
18970TIP3   OH278324   5.049   0.952  13.341 -0.1922  0.8593  0.0143
18970TIP3    H178325   5.074   0.878  13.285 -0.0402  0.4194  0.6674
18970TIP3    H278326   4.953   0.948  13.342 -0.1870  0.7004  0.0124
18971TIP3   OH278327   0.273   4.503  13.680  0.1796  0.2346  0.3472
18971TIP3    H178328   0.266   4.515  13.775  0.7123 -1.0159  0.5608
18971TIP3    H278329   0.233   4.417  13.664 -0.6513  0.8062 -0.6708
18972TIP3   OH278330   2.371   3.908  11.811  0.0130 -0.4944  0.0729
18972TIP3    H178331   2.455   3.931  11.850 -0.0907  0.3249 -0.1844
18972TIP3    H278332   2.380   3.931  11.718  0.2323 -2.3399 -0.3897
18973TIP3   OH278333   2.776   4.956  16.259 -0.0356  0.6509 -0.5336
18973TIP3    H178334   2.723   4.883  16.229  0.6717  0.3505 -1.0619
18973TIP3    H278335   2.715   5.012  16.307 -0.7301  0.0839 -0.7499
18974TIP3   OH278336   3.661   5.506  14.183 -0.2035  0.0392 -0.2237
18974TIP3    H178337   3.723   5.433  14.194 -1.1635 -0.9276 -1.1188
18974TIP3    H278338   3.682   5.542  14.097  1.3473  1.8791  0.8931
18975TIP3   OH278339   6.490   2.523   2.469 -0.4195 -0.3507  0.3570
18975TIP3    H178340   6.540   2.506   2.549 -0.8627  1.0402  0.9534
18975TIP3    H278341   6.549   2.500   2.398  0.1360 -1.1962  1.0839
18976TIP3   OH278342   2.407   5.769   2.141  0.2728  0.2213  0.5704
18976TIP3    H178343   2.335   5.710   2.166  0.3852  0.1104  0.6377
18976TIP3    H278344   2.435   5.808   2.224 -1.5406  2.3788  0.1979
18977TIP3   OH278345   3.983   2.238  12.848 -0.4947  0.4479 -0.2147
18977TIP3    H178346   3.926   2.182  12.795 -0.4795  0.8227 -0.6254
18977TIP3    H278347   3.929   2.263  12.924 -0.2953 -0.6370  0.2922
18978TIP3   OH278348   0.383   6.120   5.678 -0.3289  0.4189  0.6883
18978TIP3    H178349   0.439   6.197   5.666 -0.1441  0.2629  0.5515
18978TIP3    H278350   0.364   6.091   5.589 -0.4506  0.3436  0.7393
18979TIP3   OH278351   0.631   0.187   0.145 -0.6443  0.3361 -0.5152
18979TIP3    H178352   0.675   0.269   0.168  0.3830 -0.4874  0.5319
18979TIP3    H278353   0.539   0.203   0.163 -0.5153  1.4218 -0.7917
18980TIP3   OH278354   4.421   1.498   0.285  0.0152  0.2384 -0.5236
18980TIP3    H178355   4.458   1.524   0.370 -0.2574  2.6755 -1.1136
18980TIP3    H278356   4.335   1.462   0.306  0.8669 -1.3099  0.4308
18981TIP3   OH278357   2.135   5.957  15.974  0.3055  0.2950  0.9489
18981TIP3    H178358   2.151   5.984  16.064 -0.5698  0.7899  0.9591
18981TIP3    H278359   2.096   6.033  15.932  0.1470 -0.1277  0.3115
18982TIP3   OH278360   1.495   3.923   3.687 -0.1534  0.6333  0.4139
18982TIP3    H178361   1.468   3.979   3.614  1.1595 -0.8000 -1.2005
18982TIP3    H278362   1.430   3.853   3.688 -0.4403  0.9014  0.9424
18983TIP3   OH278363   6.132   6.179  16.328  0.5841  0.2075 -0.2382
18983TIP3    H178364   6.093   6.120  16.264 -1.0714  2.3574 -1.2368
18983TIP3    H278365   6.223   6.190  16.298  0.3008 -0.1485 -1.2410
18984TIP3   OH278366   6.510   5.265  11.072 -0.2286 -0.2960 -0.0975
18984TIP3    H178367   6.573   5.334  11.092 -0.3770  0.0849 -0.9117
18984TIP3    H278368   6.539   5.229  10.989  0.0429 -1.4510  0.4867
18985TIP3   OH278369   1.334   4.039  14.723 -0.4700 -0.6040  0.2938
18985TIP3    H178370   1.397   4.080  14.782  1.3676 -0.7199 -1.5513
18985TIP3    H278371   1.254   4.090  14.734  1.0502  1.9266 -0.1143
18986TIP3   OH278372   6.282   0.999  14.371  0.4530 -0.1549 -0.2727
18986TIP3    H178373   6.342   1.003  14.445  1.4298 -1.2359 -0.9855
18986TIP3    H278374   6.337   1.019  14.295 -0.5623  1.0503 -0.6975
18987TIP3   OH278375   2.011   2.824  13.563  0.3762  0.1080  0.7127
18987TIP3    H178376   1.917   2.811  13.578  0.2036  1.7733  1.1520
18987TIP3    H278377   2.048   2.736  13.564 -1.2727 -0.6092 -0.0460
18988TIP3   OH278378   2.634   0.140   0.742  0.0592  0.0640  0.3970
18988TIP3    H178379   2.676   0.178   0.665  3.5755 -1.9842  1.2118
18988TIP3    H278380   2.623   0.047   0.721  0.5387 -0.4026  2.1236
18989TIP3   OH278381   3.156   6.787   1.980  0.1611 -0.4085  0.2993
18989TIP3    H178382   3.229   6.837   1.944 -1.8650  2.7005  0.2994
18989TIP3    H278383   3.158   6.805   2.074  1.2773 -2.9236  0.7943
18990TIP3   OH278384   6.156   5.258  16.223 -0.4556  0.6420  0.3485
18990TIP3    H178385   6.113   5.335  16.187 -2.3885  0.6256  2.5203
18990TIP3    H278386   6.150   5.192  16.153  1.4875  2.4618 -1.6366
18991TIP3   OH278387   5.451   2.288   5.560  0.7541  0.2444  0.5622
18991TIP3    H178388   5.495   2.213   5.601 -1.0434 -0.7636  0.6603
18991TIP3    H278389   5.447   2.265   5.467  1.4929  0.8765  0.3697
18992TIP3   OH278390   1.282   2.741  11.628  0.1111 -0.1013  0.5963
18992TIP3    H178391   1.237   2.755  11.711 -0.7695 -0.0428  0.1162
18992TIP3    H278392   1.241   2.803  11.567  1.3192  0.4378  0.3201
18993TIP3   OH278393   0.981   2.041   3.312 -0.9188  0.7127 -0.4380
18993TIP3    H178394   0.953   2.051   3.221  1.7197 -2.8215 -1.7565
18993TIP3    H278395   1.044   2.111   3.326 -0.0098  0.2211 -1.9359
18994TIP3   OH278396   2.946   2.147   2.341 -0.9815 -0.1589  0.1421
18994TIP3    H178397   2.985   2.062   2.357 -2.0831 -0.7995 -0.5165
18994TIP3    H278398   2.942   2.189   2.427 -1.5537 -1.2567  0.6524
18995TIP3   OH278399   1.355   5.889   4.616  0.0099 -0.6891 -0.0118
18995TIP3    H178400   1.303   5.890   4.697  1.6765  3.2059  1.1260
18995TIP3    H278401   1.436   5.845   4.641 -0.6679 -2.2072 -0.4244
18996TIP3   OH278402   5.434   0.749   2.288 -0.1328 -0.1536 -0.3281
18996TIP3    H178403   5.495   0.705   2.229  0.4762  1.3621 -0.8550
18996TIP3    H278404   5.407   0.827   2.241 -1.3340 -0.0485  0.5195
18997TIP3   OH278405   6.760   5.115   2.446 -0.4783 -0.0471 -0.0447
18997TIP3    H178406   6.793   5.072   2.525  0.0933 -0.0650 -0.2902
18997TIP3    H278407   6.833   5.171   2.417 -1.5908  1.9644  0.9148
18998TIP3   OH278408   4.679   4.704   5.570 -0.0592  0.1682 -0.7216
18998TIP3    H178409   4.586   4.715   5.588  0.0322 -1.6503  1.0073
18998TIP3    H278410   4.689   4.612   5.545  1.5372 -0.1592  0.9813
18999TIP3   OH278411   3.165   1.418  12.168  0.1433 -0.7252 -0.1442
18999TIP3    H178412   3.203   1.478  12.105 -0.6379  0.0236  0.0909
18999TIP3    H278413   3.173   1.331  12.128  0.2393 -0.3281 -0.9721
19000TIP3   OH278414   0.280   4.705   0.544 -0.1804 -0.2443 -0.7207
19000TIP3    H178415   0.251   4.788   0.582  0.8988 -0.7458  1.2313
19000TIP3    H278416   0.369   4.722   0.513  0.8078 -1.1861  1.4954
19001TIP3   OH278417   2.874   0.262   3.066  0.7502 -0.2846  0.0046
19001TIP3    H178418   2.848   0.259   2.974 -0.0427  0.6371  0.1922
19001TIP3    H278419   2.803   0.308   3.110  1.0776 -0.7928  1.0990
19002TIP3   OH278420   2.156   5.594   2.212 -0.0502 -0.0027 -0.0359
19002TIP3    H178421   2.142   5.644   2.132  1.3921  1.0138  0.3421
19002TIP3    H278422   2.103   5.638   2.278 -0.0043  0.0925 -0.0630
19003TIP3   OH278423   0.995   1.774  16.483 -0.1368 -0.2350 -0.0480
19003TIP3    H178424   0.901   1.761  16.467 -0.0827 -0.1314 -0.4664
19003TIP3    H278425   1.031   1.686  16.485  0.1972 -0.1878 -2.6940
19004TIP3   OH278426   2.498   6.396   5.718 -0.1115 -0.3644  0.5695
19004TIP3    H178427   2.496   6.481   5.674  0.5964 -0.8804 -0.4771
19004TIP3    H278428   2.583   6.359   5.695  0.2651 -0.6522  2.3976
19005TIP3   OH278429   5.355   2.067  13.044  0.3674 -0.1485  0.2098
19005TIP3    H178430   5.423   2.068  12.976  0.5607  1.4333  0.4007
19005TIP3    H278431   5.280   2.111  13.003 -0.3759 -1.4583  0.1669
19006TIP3   OH278432   0.983   0.977  12.003  0.4116  0.1795  0.5783
19006TIP3    H178433   0.897   1.003  12.036  1.1955  1.0401  2.0042
19006TIP3    H278434   0.992   0.885  12.028  0.3265  0.3736  1.3167
19007TIP3   OH278435   3.205   1.271  11.374 -0.9166  0.8497  0.1072
19007TIP3    H178436   3.275   1.278  11.439 -0.8594  0.4779  0.0851
19007TIP3    H278437   3.248   1.235  11.296 -1.3061 -0.2388  0.3775
19008TIP3   OH278438   5.354   4.557  16.572 -0.2513 -0.4635 -0.5360
19008TIP3    H178439   5.283   4.563  16.636 -1.4155 -0.8581 -1.7584
19008TIP3    H278440   5.416   4.624  16.598 -0.2458 -1.2503  1.5628
19009TIP3   OH278441   1.019   1.747   6.204  0.3578 -0.4675 -0.0524
19009TIP3    H178442   0.975   1.784   6.281  1.5457  0.1939  0.3263
19009TIP3    H278443   0.950   1.699   6.158 -0.5199 -0.3221  1.0730
19010TIP3   OH278444   2.453   5.930   0.730  0.1885  0.1794  0.5163
19010TIP3    H178445   2.427   5.953   0.641 -0.4866  0.5421  0.8058
19010TIP3    H278446   2.397   5.983   0.786  1.1632  0.5476  1.1529
19011TIP3   OH278447   1.600   1.675   3.980  0.3773 -0.0433 -0.0505
19011TIP3    H178448   1.568   1.757   3.941  2.3490  0.3088 -1.0130
19011TIP3    H278449   1.670   1.703   4.040  1.1954 -1.0239 -0.5239
19012TIP3   OH278450   2.390   6.556  15.567  0.1304 -0.0236 -0.1001
19012TIP3    H178451   2.470   6.610  15.567  0.3760 -0.3672 -1.0894
19012TIP3    H278452   2.404   6.494  15.495 -1.2794  0.2882 -0.6583
19013TIP3   OH278453   3.400   4.629  14.347 -0.2695 -0.8477 -0.4010
19013TIP3    H178454   3.383   4.616  14.254 -0.4191  0.9522 -0.6513
19013TIP3    H278455   3.312   4.633  14.387 -0.2656  0.4310 -0.5005
19014TIP3   OH278456   4.111   5.323   2.820 -0.5126 -0.0253 -0.0117
19014TIP3    H178457   4.034   5.341   2.765  0.1068  0.3532 -0.7626
19014TIP3    H278458   4.114   5.228   2.826 -1.9519 -0.0065  1.3284
19015TIP3   OH278459   0.819   3.637  11.593 -0.0756 -0.1093  0.0237
19015TIP3    H178460   0.761   3.652  11.519 -0.7404  0.1971  0.6045
19015TIP3    H278461   0.814   3.717  11.645  1.7690  0.3936 -0.5184
19016TIP3   OH278462   5.563   2.514  16.499 -0.0494  0.4703 -0.5500
19016TIP3    H178463   5.621   2.497  16.425  0.6016 -0.9876  0.2689
19016TIP3    H278464   5.530   2.603  16.485  0.7904  0.5427 -2.0878
19017TIP3   OH278465   4.251   6.010   4.561  0.0220  0.0768  0.4661
19017TIP3    H178466   4.307   5.973   4.493 -0.5680  1.8865 -1.0456
19017TIP3    H278467   4.254   6.104   4.546 -1.2956  0.3912  2.0217
19018TIP3   OH278468   3.400   3.582   5.593 -0.0936 -0.1926  0.0458
19018TIP3    H178469   3.418   3.502   5.543 -0.3965  0.3090 -0.8704
19018TIP3    H278470   3.481   3.597   5.643  0.2814 -0.5919 -0.4322
19019TIP3   OH278471   5.762   4.135   3.463 -0.3293 -0.6532 -0.2968
19019TIP3    H178472   5.788   4.121   3.554 -0.5522  0.9147  0.0322
19019TIP3    H278473   5.718   4.221   3.464 -0.4225 -0.6731 -1.8574
19020TIP3   OH278474   5.027   2.092  15.422 -0.6558  0.4125 -0.9659
19020TIP3    H178475   4.956   2.078  15.360 -1.5074  1.7411 -0.3027
19020TIP3    H278476   5.099   2.127  15.369 -0.5699 -0.6904 -1.5878
19021TIP3   OH278477   0.186   0.882   1.637 -0.3190  0.1512  0.0345
19021TIP3    H178478   0.281   0.876   1.644 -0.3426  1.2155  1.3522
19021TIP3    H278479   0.153   0.834   1.712 -0.8027  0.4428  0.0112
19022TIP3   OH278480   6.743   6.499  12.250 -0.0860 -0.0545 -0.9296
19022TIP3    H178481   6.681   6.442  12.204 -0.0037 -1.0421  0.1584
19022TIP3    H278482   6.735   6.474  12.342 -0.1182  1.7664 -0.4077
19023TIP3   OH278483   0.510   1.648  11.454  0.0217  0.5350  0.0384
19023TIP3    H178484   0.487   1.724  11.399 -0.8177 -0.3641 -0.8675
19023TIP3    H278485   0.426   1.618  11.489  0.1429 -1.0708 -1.0445
19024TIP3   OH278486   3.355   0.476   3.397 -0.2722 -0.7250  0.6218
19024TIP3    H178487   3.308   0.532   3.335 -1.5471  0.4361  2.6043
19024TIP3    H278488   3.393   0.407   3.342  0.1457  1.2582 -1.6888
19025TIP3   OH278489   3.556   1.262   0.427 -0.3626  0.2001  0.6155
19025TIP3    H178490   3.531   1.264   0.519 -1.6224 -0.7777  0.2965
19025TIP3    H278491   3.483   1.220   0.383 -0.6158  2.3585 -1.1066
19026TIP3   OH278492   2.993   1.748  14.410  0.0413 -0.1393 -0.4593
19026TIP3    H178493   3.022   1.787  14.492 -0.0923 -0.2952 -0.3365
19026TIP3    H278494   2.946   1.818  14.364  0.3756  0.0360 -0.5364
19027TIP3   OH278495   5.057   0.341   0.454 -0.0236  0.2729 -0.1895
19027TIP3    H178496   4.993   0.304   0.393 -0.5148 -2.6186  1.9741
19027TIP3    H278497   5.140   0.300   0.429 -0.0760 -0.2868  0.5509
19028TIP3   OH278498   0.197   4.612  16.474 -0.3200 -0.4324 -0.2063
19028TIP3    H178499   0.202   4.685  16.412  0.4712 -2.3256 -2.4348
19028TIP3    H278500   0.128   4.638  16.535 -0.9006  1.6313 -1.6759
19029TIP3   OH278501   5.071   3.142   6.741 -0.1183  0.1196  0.3482
19029TIP3    H178502   4.987   3.130   6.696 -0.0871  0.3748  0.2221
19029TIP3    H278503   5.074   3.070   6.804 -0.5577  0.2771  0.5513
19030TIP3   OH278504   1.765   2.711  13.851 -0.0829 -0.0993  0.0125
19030TIP3    H178505   1.798   2.625  13.876  2.5230  1.0365  0.6640
19030TIP3    H278506   1.677   2.715  13.888 -0.9387 -3.1421 -1.5671
19031TIP3   OH278507   0.840   4.404   6.698 -0.1376 -0.1727  0.7789
19031TIP3    H178508   0.918   4.366   6.739 -0.0906  1.8361  2.6246
19031TIP3    H278509   0.874   4.459   6.628 -0.0719 -1.5093 -0.2571
19032TIP3   OH278510   6.667   4.558   2.642 -0.2115 -0.2217  0.1427
19032TIP3    H178511   6.650   4.650   2.662  1.2293 -0.2019  1.3857
19032TIP3    H278512   6.756   4.543   2.674 -1.3775 -2.7070  2.4511
19033TIP3   OH278513   1.158   0.917   4.015 -0.1183 -1.1427  0.1307
19033TIP3    H178514   1.147   0.945   4.106  0.8824  0.4088 -0.2144
19033TIP3    H278515   1.244   0.876   4.014 -1.1351 -3.3585  0.3970
19034TIP3   OH278516   2.396   1.441   1.795  0.2981 -0.0475  0.4755
19034TIP3    H178517   2.449   1.520   1.802 -0.2268  0.4762 -1.2561
19034TIP3    H278518   2.417   1.405   1.709 -1.7544 -0.1021 -0.0442
19035TIP3   OH278519   2.397   5.533  13.404 -0.1941 -0.1037  0.1407
19035TIP3    H178520   2.453   5.529  13.327  0.3204  0.8710  0.4451
19035TIP3    H278521   2.457   5.522  13.478 -0.7153 -1.2818  0.4010
19036TIP3   OH278522   3.574   2.730  14.724  0.0095  0.3446 -0.5549
19036TIP3    H178523   3.510   2.691  14.664  0.3699 -1.4569  0.1868
19036TIP3    H278524   3.642   2.663  14.732  0.4215  0.9451  1.1312
19037TIP3   OH278525   5.567   4.553   3.936  0.3841  0.4143 -0.0135
19037TIP3    H178526   5.613   4.497   3.873  0.8715  0.0919  0.6229
19037TIP3    H278527   5.475   4.526   3.929  0.8090 -1.4560  1.2774
19038TIP3   OH278528   2.087   2.681   5.112 -0.2592 -0.7101  0.7110
19038TIP3    H178529   2.078   2.667   5.207  0.7684 -0.7379  0.8055
19038TIP3    H278530   2.032   2.613   5.073  1.3090 -2.3177  1.2398
19039TIP3   OH278531   0.275   3.747   1.745 -0.1823 -0.1889  0.1248
19039TIP3    H178532   0.302   3.838   1.731 -0.0249 -0.3226 -0.4469
19039TIP3    H278533   0.216   3.751   1.820 -0.7320  0.4826 -0.3441
19040TIP3   OH278534   6.234   4.263   2.316  0.3260 -0.3249 -0.0833
19040TIP3    H178535   6.279   4.181   2.298  0.6684  0.0703 -1.0756
19040TIP3    H278536   6.174   4.275   2.242  2.4054  1.7831 -1.5161
19041TIP3   OH278537   4.234   2.014  11.663  0.4909 -0.2971  0.6914
19041TIP3    H178538   4.246   2.053  11.576 -0.3689  0.5715  0.9478
19041TIP3    H278539   4.149   2.047  11.692  0.5775 -0.9341  1.6780
19042TIP3   OH278540   2.745   3.642  16.168 -0.4907 -0.4254 -0.3221
19042TIP3    H178541   2.795   3.577  16.217  2.1731  1.6942 -0.0756
19042TIP3    H278542   2.733   3.603  16.081 -0.3558 -1.8861  0.3020
19043TIP3   OH278543   5.222   1.786  11.225  0.2041  0.2429 -0.0868
19043TIP3    H178544   5.137   1.806  11.265  0.5529 -0.2233  0.9226
19043TIP3    H278545   5.251   1.868  11.186 -0.8067  0.3528 -0.6184
19044TIP3   OH278546   5.668   4.788  15.986  0.5252  0.2742 -0.1612
19044TIP3    H178547   5.594   4.769  15.928  1.0489  0.2470 -0.8221
19044TIP3    H278548   5.675   4.883  15.987  0.7916  0.2581 -0.4895
19045TIP3   OH278549   5.944   2.227  12.848  0.0882 -0.3608  0.0518
19045TIP3    H178550   5.969   2.238  12.939 -0.1958  0.7503 -0.0016
19045TIP3    H278551   5.867   2.170  12.851 -1.7134  2.0192  0.7432
19046TIP3   OH278552   2.007   3.575   3.414 -0.2914  0.4147  0.1364
19046TIP3    H178553   2.102   3.584   3.422  0.0074 -2.9632  1.2330
19046TIP3    H278554   1.972   3.628   3.485  0.9775 -1.1805  2.0397
19047TIP3   OH278555   6.472   0.582   5.450  0.6164  0.8215  0.0209
19047TIP3    H178556   6.430   0.637   5.384  0.5670  1.7400  0.8059
19047TIP3    H278557   6.453   0.625   5.534 -0.4785 -1.0704  0.7688
19048TIP3   OH278558   3.477   4.178   5.700  0.1962 -0.0174 -0.0060
19048TIP3    H178559   3.565   4.210   5.679 -0.0991  0.2879 -0.7774
19048TIP3    H278560   3.467   4.196   5.794  0.0213  2.2121 -0.4270
19049TIP3   OH278561   2.121   2.292  14.035  0.2293  0.2762 -0.1684
19049TIP3    H178562   2.164   2.291  14.120  1.0007  0.2249 -0.5513
19049TIP3    H278563   2.066   2.214  14.035 -1.4661  1.4257  1.1199
19050TIP3   OH278564   1.351   0.665  15.089  0.3643  0.2289  0.2861
19050TIP3    H178565   1.265   0.623  15.083  0.6424 -0.3917  0.6864
19050TIP3    H278566   1.384   0.666  14.999 -0.3424  1.0587  0.0294
19051TIP3   OH278567   5.603   5.330  11.133 -0.2306  0.6085 -0.2618
19051TIP3    H178568   5.647   5.270  11.075  0.8600  0.7688  0.3901
19051TIP3    H278569   5.668   5.397  11.154  0.0113 -0.4332  2.5887
19052TIP3   OH278570   4.684   6.085   0.783 -0.0041  0.9191  0.3351
19052TIP3    H178571   4.694   6.008   0.840 -0.9118  0.8941  0.4570
19052TIP3    H278572   4.767   6.090   0.736 -0.9504 -1.7873 -1.7214
19053TIP3   OH278573   5.495   4.322  16.550  0.1855 -0.4820  0.1153
19053TIP3    H178574   5.422   4.384  16.547 -1.4541 -2.2850  1.5984
19053TIP3    H278575   5.563   4.368  16.598 -0.3500  0.8235 -0.3397
19054TIP3   OH278576   2.005   2.778   1.109  0.2209 -0.1405  0.0740
19054TIP3    H178577   1.988   2.696   1.156  0.7683 -0.7655 -0.8145
19054TIP3    H278578   2.077   2.818   1.156 -0.9041  0.4821  1.3095
19055TIP3   OH278579   3.085   5.466   2.404  0.0686  0.1741  0.6737
19055TIP3    H178580   3.146   5.467   2.330 -2.1109 -0.6415 -1.2066
19055TIP3    H278581   3.104   5.384   2.450  0.4402 -0.0265  0.1655
19056TIP3   OH278582   2.612   5.966   3.510  0.1556 -0.4475 -0.4936
19056TIP3    H178583   2.522   5.997   3.510  0.3329  0.1072  0.6666
19056TIP3    H278584   2.658   6.025   3.450 -0.0237 -0.0166 -0.2126
19057TIP3   OH278585   4.641   2.197  15.531 -0.3131 -0.0973 -0.0813
19057TIP3    H178586   4.718   2.157  15.572  0.3746 -1.4699 -2.6260
19057TIP3    H278587   4.677   2.250  15.460 -1.5960  0.9541  0.0475
19058TIP3   OH278588   4.097   1.473   2.209  0.1830 -0.3422  0.3286
19058TIP3    H178589   4.176   1.426   2.182  0.6500  0.1755  0.7797
19058TIP3    H278590   4.125   1.525   2.284 -0.7150 -0.5331  0.7976
19059TIP3   OH278591   2.388   6.135   2.253 -0.2544 -0.0832  0.0132
19059TIP3    H178592   2.430   6.069   2.308  0.8772 -0.1248 -0.8809
19059TIP3    H278593   2.435   6.216   2.273 -0.5151  0.1079 -0.1524
19060TIP3   OH278594   4.502   5.068  13.968 -0.5351  0.3327  0.0878
19060TIP3    H178595   4.454   5.127  14.025 -1.2214  1.0510 -1.2106
19060TIP3    H278596   4.439   5.045  13.899  0.2626 -0.5395 -0.3615
19061TIP3   OH278597   5.556   0.427  12.306  0.0035  0.2498 -0.4451
19061TIP3    H178598   5.594   0.371  12.238 -0.3656  1.4435 -1.6463
19061TIP3    H278599   5.599   0.399  12.387  0.0962 -1.5159 -1.0876
19062TIP3   OH278600   2.475   3.637  16.792 -0.4900  0.1828 -0.4032
19062TIP3    H178601   2.520   3.700  16.735 -1.4347 -0.2020 -1.5973
19062TIP3    H278602   2.410   3.690  16.839  1.4043  0.7975  1.5670
19063TIP3   OH278603   6.040   5.655  12.212  0.2462  0.1987 -0.1572
19063TIP3    H178604   5.983   5.730  12.196  1.4800  1.6632  2.1257
19063TIP3    H278605   6.058   5.620  12.124 -1.4959  1.6966 -1.1438
19064TIP3   OH278606   6.412   2.260  12.942 -0.2401  0.6572  0.4949
19064TIP3    H178607   6.385   2.230  12.855  1.0708  0.6325  0.0944
19064TIP3    H278608   6.408   2.182  12.997 -1.1266  0.6854  0.4878
19065TIP3   OH278609   4.857   4.872   5.420  0.3405 -0.3645  0.1146
19065TIP3    H178610   4.780   4.828   5.457  1.0842 -2.7347 -1.1403
19065TIP3    H278611   4.892   4.923   5.493 -0.9809 -1.2152  1.3723
19066TIP3   OH278612   5.215   4.614   2.001  0.2353 -0.1781  0.0755
19066TIP3    H178613   5.180   4.598   1.913  2.4158 -1.8642 -0.5348
19066TIP3    H278614   5.246   4.705   1.998  1.9159 -0.7754 -1.4964
19067TIP3   OH278615   1.607   0.000  16.551 -0.2561 -1.0114  0.5970
19067TIP3    H178616   1.559  -0.080  16.571 -1.1916 -0.3911  0.9035
19067TIP3    H278617   1.637  -0.012  16.461 -2.2854 -0.8290 -0.1484
19068TIP3   OH278618   5.950   3.304  15.193  0.4460  0.6199  0.2424
19068TIP3    H178619   5.871   3.293  15.246  1.4112  1.8786  2.0146
19068TIP3    H278620   5.937   3.385  15.145 -0.4556 -0.5554 -1.5263
19069TIP3   OH278621   2.691   0.757  13.866 -0.6682 -0.5067 -0.1125
19069TIP3    H178622   2.617   0.792  13.915 -0.1597  0.8013 -0.2530
19069TIP3    H278623   2.716   0.827  13.806 -0.0110 -1.3415 -0.8331
19070TIP3   OH278624   2.846   3.087  10.909 -0.2468 -0.1201  0.2479
19070TIP3    H178625   2.931   3.085  10.954  0.0311  0.8975 -0.2226
19070TIP3    H278626   2.804   3.006  10.935 -0.0363  0.3780  2.2639
19071TIP3   OH278627   3.483   2.257   2.880 -0.4339 -0.1641 -0.2920
19071TIP3    H178628   3.476   2.309   2.960  1.3037 -1.7302  0.9355
19071TIP3    H278629   3.500   2.321   2.811 -0.0939  1.0531  0.9045
19072TIP3   OH278630   2.380   3.380   0.045 -0.1090 -0.3683 -0.0676
19072TIP3    H178631   2.396   3.462   0.092  3.0666 -1.8228  1.4978
19072TIP3    H278632   2.421   3.393  -0.040 -0.2197 -0.0915 -0.0820
19073TIP3   OH278633   6.533   0.755   3.987  0.7476  0.2341 -0.4069
19073TIP3    H178634   6.532   0.840   4.032  0.5241 -0.6362  1.2487
19073TIP3    H278635   6.442   0.742   3.958  0.2275 -0.5766  1.5284
19074TIP3   OH278636   6.557   0.763   0.108  0.0614 -0.4606  0.7145
19074TIP3    H178637   6.579   0.815   0.031 -1.6885 -2.2495 -1.0530
19074TIP3    H278638   6.625   0.695   0.112 -0.0058 -0.5317  0.6188
19075TIP3   OH278639   0.157   2.949   1.422 -0.5481  0.1395 -0.0209
19075TIP3    H178640   0.063   2.969   1.421 -0.4096  0.8690  1.0582
19075TIP3    H278641   0.170   2.898   1.502 -0.0579 -0.1318 -0.2711
19076TIP3   OH278642   6.118   2.251   3.062 -0.3048  0.2905 -0.3833
19076TIP3    H178643   6.077   2.180   3.110 -0.4152 -0.4557 -1.5694
19076TIP3    H278644   6.182   2.209   3.005 -0.9056  1.0624 -1.6499
19077TIP3   OH278645   0.331   5.689   5.790 -0.9135  0.0412  0.4894
19077TIP3    H178646   0.282   5.607   5.781  0.2180 -0.4021 -1.9283
19077TIP3    H278647   0.318   5.734   5.707  0.7101  1.0777  0.7778
19078TIP3   OH278648   3.364   5.309   3.614  0.4384 -0.3407 -0.3379
19078TIP3    H178649   3.360   5.404   3.627 -1.5136 -0.2997 -1.0591
19078TIP3    H278650   3.438   5.296   3.554 -0.0518  0.8442 -1.2183
19079TIP3   OH278651   2.390   2.808  13.055 -0.4362 -0.4241  0.1980
19079TIP3    H178652   2.309   2.760  13.067 -0.8774 -0.3869 -2.2557
19079TIP3    H278653   2.362   2.898  13.035  0.2484 -0.0613  0.8608
19080TIP3   OH278654   2.410   2.525  14.968 -0.1112 -0.0159 -0.1588
19080TIP3    H178655   2.434   2.567  15.052 -0.9366 -0.0193  0.0802
19080TIP3    H278656   2.419   2.595  14.904 -1.1943  0.4614  0.1956
19081TIP3   OH278657   6.050   2.869   5.048  0.3855  0.5120 -0.1219
19081TIP3    H178658   5.961   2.898   5.067  0.5867  1.1660 -0.1933
19081TIP3    H278659   6.087   2.847   5.134 -0.2815 -1.0396 -0.2088
19082TIP3   OH278660   4.848   2.194  14.598 -0.3496 -0.0591 -0.6086
19082TIP3    H178661   4.801   2.151  14.669  0.9330 -0.2300  0.1568
19082TIP3    H278662   4.781   2.241  14.549 -0.9309  2.1786  2.1973
19083TIP3   OH278663   1.611   1.666  13.122 -0.1050 -0.1644 -0.5171
19083TIP3    H178664   1.673   1.709  13.180 -1.5560 -0.5023  1.3565
19083TIP3    H278665   1.615   1.574  13.146 -2.5000  0.0367  0.8193
19084TIP3   OH278666   4.440   3.711   1.417  0.7663  0.3287  0.0824
19084TIP3    H178667   4.433   3.806   1.422  2.5262  0.4297  0.8935
19084TIP3    H278668   4.510   3.689   1.478 -0.4946 -1.6074  0.8691
19085TIP3   OH278669   6.291   4.928  14.208  0.0719 -0.7908  0.3062
19085TIP3    H178670   6.344   4.850  14.220  2.3286  0.7735  0.8281
19085TIP3    H278671   6.354   4.999  14.195 -1.8542  1.2799  1.7851
19086TIP3   OH278672   1.978   5.486  16.507 -0.3952 -0.4485  0.0984
19086TIP3    H178673   1.911   5.538  16.462 -0.1891 -0.4423 -0.2037
19086TIP3    H278674   1.941   5.399  16.514 -0.8798 -0.1817  0.9009
19087TIP3   OH278675   4.408   2.798  13.895 -0.1392  0.0873  0.2277
19087TIP3    H178676   4.477   2.862  13.907  0.0005 -0.0139 -0.0319
19087TIP3    H278677   4.362   2.795  13.979  0.0939  0.2453  0.3588
19088TIP3   OH278678   2.813   2.385   0.473  0.6932 -0.2482 -0.1128
19088TIP3    H178679   2.736   2.333   0.447  0.0008  0.8295 -0.2418
19088TIP3    H278680   2.867   2.324   0.522 -0.7858 -0.7257  0.9644
19089TIP3   OH278681   5.557   6.754  16.920  0.6284  0.1271  0.3179
19089TIP3    H178682   5.477   6.802  16.901  0.6243  0.3852  0.9691
19089TIP3    H278683   5.536   6.704  16.999  0.9754 -0.1311  0.2489
19090TIP3   OH278684   3.773   1.586   1.586  0.4928  0.2209  0.4974
19090TIP3    H178685   3.815   1.570   1.502 -1.4760  2.7037 -1.0087
19090TIP3    H278686   3.763   1.681   1.591 -1.9263 -0.0812  2.2917
19091TIP3   OH278687   2.855   4.362   4.515 -0.0825 -0.1184 -0.2658
19091TIP3    H178688   2.807   4.285   4.544 -1.1088  0.9209  0.8161
19091TIP3    H278689   2.901   4.394   4.593  0.5837  0.1959 -0.7721
19092TIP3   OH278690   6.597   2.738  12.468 -0.2350 -0.1019 -0.5437
19092TIP3    H178691   6.669   2.750  12.530 -0.0225  0.4529 -0.8898
19092TIP3    H278692   6.624   2.666  12.412 -1.0695 -1.5860  0.9245
19093TIP3   OH278693   5.447   3.122   1.924 -0.3365  0.1328  0.0758
19093TIP3    H178694   5.536   3.094   1.902 -0.7514 -0.4065 -0.9779
19093TIP3    H278695   5.455   3.166   2.009  0.4573 -2.7097  1.5551
19094TIP3   OH278696   2.661   2.004   2.711 -0.2221  0.0275 -0.4102
19094TIP3    H178697   2.607   1.982   2.788  0.2305  1.5706  0.3526
19094TIP3    H278698   2.727   2.065   2.744  0.1466  0.4939 -1.9755
19095TIP3   OH278699   2.069   2.529  12.240  0.5644 -0.4132 -0.6641
19095TIP3    H178700   2.003   2.523  12.308  2.0652  0.3631  0.8945
19095TIP3    H278701   2.132   2.594  12.273  2.8440 -2.1644 -1.4552
19096TIP3   OH278702   1.937   3.302   3.652  0.1793  0.4276 -0.2292
19096TIP3    H178703   1.994   3.277   3.579  0.0427 -0.1367 -0.1466
19096TIP3    H278704   1.997   3.339   3.717  0.5467 -0.7512  0.1202
19097TIP3   OH278705   0.056   2.681   2.593 -0.0697 -0.0873 -0.0845
19097TIP3    H178706   0.107   2.739   2.649  1.7448 -0.3521 -1.3980
19097TIP3    H278707  -0.032   2.718   2.594  0.3708  0.9742  1.4281
19098TIP3   OH278708   6.268   1.883   5.713 -1.0884  0.3293  0.0881
19098TIP3    H178709   6.264   1.788   5.702 -2.0420  0.4854 -1.1009
19098TIP3    H278710   6.192   1.916   5.664 -0.3831  1.7458 -0.0908
19099TIP3   OH278711   5.882   2.002   1.190  0.1383 -0.3832 -0.3328
19099TIP3    H178712   5.967   1.982   1.151 -0.0139 -0.3139 -0.6954
19099TIP3    H278713   5.826   1.927   1.169 -0.0117 -0.2389 -0.4494
19100TIP3   OH278714   3.103   1.073  16.735 -0.0922 -0.2259  0.0382
19100TIP3    H178715   3.129   1.099  16.824 -1.3446  1.2120  0.0118
19100TIP3    H278716   3.097   0.977  16.739  2.4865 -0.4082  0.7504
19101TIP3   OH278717   2.888   0.916  14.433 -0.0570 -0.4824 -0.2216
19101TIP3    H178718   2.857   0.834  14.471 -0.7201  0.2087  0.7473
19101TIP3    H278719   2.809   0.956  14.396 -0.0810  0.6155  1.0091
19102TIP3   OH278720   0.402   5.545  12.550 -0.1044 -0.1567  0.4451
19102TIP3    H178721   0.421   5.523  12.459 -0.9402  0.1271  0.1995
19102TIP3    H278722   0.330   5.487  12.575  0.6282 -0.7698  1.1649
19103TIP3   OH278723   4.913   4.829   3.724 -0.2445  0.0440 -0.2997
19103TIP3    H178724   4.826   4.850   3.758 -0.5121 -1.9716  0.3660
19103TIP3    H278725   4.970   4.832   3.800  0.1195  0.6198 -0.5997
19104TIP3   OH278726   1.897   3.270  13.190  0.2825 -0.7533  0.2305
19104TIP3    H178727   1.967   3.276  13.126 -0.6084 -0.4737 -0.7396
19104TIP3    H278728   1.941   3.264  13.275  1.4553 -0.1279 -0.3329
19105TIP3   OH278729   1.874   2.119  14.384  0.3516  0.0319  0.4945
19105TIP3    H178730   1.799   2.108  14.443  0.2730  1.2325  0.6383
19105TIP3    H278731   1.933   2.177  14.432  1.8036 -1.6293  0.7586
19106TIP3   OH278732   6.185   6.655   0.273  0.7865 -0.8741  0.4553
19106TIP3    H178733   6.127   6.721   0.234 -0.5237 -3.0831 -1.4772
19106TIP3    H278734   6.235   6.703   0.339 -0.1333  2.0381 -0.8765
19107TIP3   OH278735   0.171   3.711   1.995 -0.0221  0.3201  0.2769
19107TIP3    H178736   0.094   3.734   2.048 -0.6879 -2.5808  0.6508
19107TIP3    H278737   0.222   3.653   2.052 -0.0380 -1.7060 -1.7276
19108TIP3   OH278738   2.200   5.427  10.952 -0.5563  0.3550 -0.3242
19108TIP3    H178739   2.195   5.339  10.915 -0.0086 -0.4734  1.5254
19108TIP3    H278740   2.234   5.481  10.881  1.0456 -1.3054 -0.8585
19109TIP3   OH278741   3.690   4.622  14.107  0.1567  0.3663 -0.0225
19109TIP3    H178742   3.641   4.548  14.142 -0.8215  0.3006 -1.5218
19109TIP3    H278743   3.779   4.590  14.098 -0.5336 -1.0754 -1.9461
19110TIP3   OH278744   0.660   6.661   1.319 -0.2312  0.3955 -0.4966
19110TIP3    H178745   0.718   6.727   1.359 -0.0965  0.2237 -0.4077
19110TIP3    H278746   0.715   6.618   1.254 -0.0199 -0.3035  0.1318
19111TIP3   OH278747   0.497   5.086   4.043 -0.1691  0.2246 -0.2324
19111TIP3    H178748   0.557   5.043   4.104  2.8783  2.0123 -1.8971
19111TIP3    H278749   0.476   5.169   4.084 -0.6752  0.0669 -0.1628
19112TIP3   OH278750   1.927   4.243  12.590 -0.3121 -0.1261  0.2342
19112TIP3    H178751   1.857   4.184  12.616  0.4714 -1.3466 -0.3543
19112TIP3    H278752   1.915   4.321  12.644 -2.1337 -0.3018  0.0995
19113TIP3   OH278753   3.546   1.679   1.912  0.2034  0.8933 -0.0705
19113TIP3    H178754   3.510   1.762   1.942 -0.7831  0.5477 -0.2698
19113TIP3    H278755   3.504   1.664   1.827  1.1468  0.6946 -0.5055
19114TIP3   OH278756   2.240   2.922   3.247  0.2706  0.2955 -0.3996
19114TIP3    H178757   2.303   2.851   3.261 -0.9450 -0.4401  1.5201
19114TIP3    H278758   2.282   2.999   3.287 -0.6245 -0.5068  2.2030
19115TIP3   OH278759   1.199   3.864   4.265  0.1476 -0.5050 -0.5386
19115TIP3    H178760   1.126   3.810   4.234  0.1528 -0.3594 -0.8033
19115TIP3    H278761   1.209   3.840   4.358 -1.5050  0.8771  0.0143
19116TIP3   OH278762   5.395   2.436   5.080 -0.2977  0.0717 -0.1357
19116TIP3    H178763   5.343   2.492   5.137 -0.3351 -0.8789  0.7620
19116TIP3    H278764   5.331   2.386   5.030 -0.2550 -0.9020  0.7764
19117TIP3   OH278765   0.698   3.958  16.273  0.1057 -0.2387 -0.2736
19117TIP3    H178766   0.732   3.869  16.270 -2.3538 -1.2749  1.3048
19117TIP3    H278767   0.613   3.953  16.230  0.3143  1.5483 -0.9392
19118TIP3   OH278768   3.851   2.197  13.663 -0.5108 -0.0386  0.3055
19118TIP3    H178769   3.884   2.111  13.687 -1.5871 -0.7352 -0.7196
19118TIP3    H278770   3.928   2.243  13.629  0.2475 -0.2876  1.6358
19119TIP3   OH278771   0.377   5.752  16.712 -0.1574 -0.3931 -0.5033
19119TIP3    H178772   0.448   5.808  16.745 -0.2238 -0.3933 -0.3604
19119TIP3    H278773   0.370   5.681  16.775 -0.9743  0.1605  0.0351
19120TIP3   OH278774   4.416   3.905   3.873  0.1053 -0.7315  0.6346
19120TIP3    H178775   4.393   3.813   3.856  1.8764 -1.1167  0.2090
19120TIP3    H278776   4.354   3.933   3.941 -2.5584 -1.2470 -1.4953
19121TIP3   OH278777   0.083   5.219   1.967  0.4422 -0.0255 -0.4606
19121TIP3    H178778   0.111   5.199   2.056  2.7172 -0.7206 -1.2898
19121TIP3    H278779   0.164   5.241   1.921 -0.5437 -0.7544 -2.6158
19122TIP3   OH278780   3.301   2.982   0.429  0.5093 -1.0552 -0.0150
19122TIP3    H178781   3.345   2.898   0.416  1.9129 -0.4681  0.8421
19122TIP3    H278782   3.297   3.021   0.342  1.4473 -1.2423 -0.1499
19123TIP3   OH278783   1.481   5.343   0.952 -0.2187 -0.4823 -0.2710
19123TIP3    H178784   1.542   5.310   0.886 -0.7615  0.2474 -1.1658
19123TIP3    H278785   1.433   5.413   0.906  0.6379  1.2533  1.4389
19124TIP3   OH278786   2.360   1.670  14.123  0.2540 -0.2186 -0.4635
19124TIP3    H178787   2.330   1.732  14.189  0.9427 -1.4630  1.0445
19124TIP3    H278788   2.399   1.725  14.054 -1.2372  1.1308 -0.2596
19125TIP3   OH278789   5.199   4.425  15.579 -0.1193  0.1810 -0.5897
19125TIP3    H178790   5.287   4.405  15.548 -0.0647  1.7917 -1.5472
19125TIP3    H278791   5.211   4.493  15.646 -0.5531 -0.2993 -0.0175
19126TIP3   OH278792   4.575   2.389  16.787  0.6677  0.6722  0.9720
19126TIP3    H178793   4.521   2.371  16.864  0.3217 -0.8457  0.3897
19126TIP3    H278794   4.517   2.376  16.713  1.3634  0.7747  0.4026
19127TIP3   OH278795   3.114   4.722  13.445 -0.5309 -0.2961  0.3275
19127TIP3    H178796   3.044   4.765  13.495  0.1094  0.3130  0.7274
19127TIP3    H278797   3.192   4.775  13.464 -0.1770 -0.3603 -0.9325
19128TIP3   OH278798   2.214   1.264   5.434  0.3867  0.0430 -0.5451
19128TIP3    H178799   2.165   1.322   5.492 -0.1900  0.8696 -1.8568
19128TIP3    H278800   2.251   1.198   5.493 -0.9310  0.3537  0.6582
19129TIP3   OH278801   0.308   1.439  11.522  0.4168  0.0855  0.0524
19129TIP3    H178802   0.315   1.350  11.557 -0.6605 -0.5374 -1.2545
19129TIP3    H278803   0.342   1.432  11.433  1.3035  1.2229  0.2857
19130TIP3   OH278804   4.237   6.093  16.886  0.4598 -0.0434 -0.0065
19130TIP3    H178805   4.253   6.030  16.816 -2.9090 -0.7265 -0.2569
19130TIP3    H278806   4.241   6.178  16.844 -0.6435 -0.4101 -0.8771
19131TIP3   OH278807   2.866   5.889   5.957  0.2317  0.4191 -0.6179
19131TIP3    H178808   2.919   5.951   5.907  1.0185  0.5076  0.3146
19131TIP3    H278809   2.907   5.885   6.043  1.1817 -2.6640 -1.1433
19132TIP3   OH278810   1.992   5.346  17.054  0.2149  0.0754  0.0399
19132TIP3    H178811   1.963   5.416  16.996 -0.2328  0.1681  0.3679
19132TIP3    H278812   1.913   5.294  17.070  0.5270 -0.4462 -0.1266
19133TIP3   OH278813   6.359   3.403  17.210  0.2992 -0.3639 -0.4764
19133TIP3    H178814   6.381   3.383  17.301 -0.5969 -1.1365 -0.4254
19133TIP3    H278815   6.425   3.356  17.159 -0.7922 -2.1109 -0.3024
19134TIP3   OH278816   4.331   2.260   4.748 -0.7904 -0.5369  0.0676
19134TIP3    H178817   4.422   2.272   4.775 -1.1855  0.3923  1.0305
19134TIP3    H278818   4.328   2.289   4.657  0.2509 -2.2842 -0.5352
19135TIP3   OH278819   6.565   1.377   1.227  0.2387 -0.1705 -0.2034
19135TIP3    H178820   6.574   1.460   1.273 -1.4452 -0.0463 -0.0550
19135TIP3    H278821   6.544   1.402   1.137  0.5034 -0.4349 -0.3404
19136TIP3   OH278822   2.248   0.489  14.743  0.2454 -0.0353 -0.0171
19136TIP3    H178823   2.204   0.516  14.662  0.6764  0.8978  0.0491
19136TIP3    H278824   2.201   0.410  14.770 -0.6903  0.3272 -0.5278
19137TIP3   OH278825   4.626   0.636  13.977  0.2712 -0.4515 -0.0009
19137TIP3    H178826   4.713   0.675  13.972 -1.0403  2.4937 -0.8205
19137TIP3    H278827   4.596   0.631  13.887 -2.5798  3.7962  0.5883
19138TIP3   OH278828   6.283   3.238  12.765 -0.2451 -0.3478  0.0932
19138TIP3    H178829   6.217   3.304  12.748  1.1080  0.7429 -1.0431
19138TIP3    H278830   6.296   3.194  12.681 -0.0723 -1.0475  0.4841
19139TIP3   OH278831   1.123   2.988  14.734  0.0230 -0.4300 -0.3434
19139TIP3    H178832   1.083   3.075  14.732  1.2851  0.1535 -0.7599
19139TIP3    H278833   1.208   3.001  14.776  1.0043 -1.1174 -2.0304
19140TIP3   OH278834   0.266   3.119   0.860  0.7038 -0.5168 -0.6294
19140TIP3    H178835   0.304   3.060   0.795 -1.0381 -2.3451 -0.0139
19140TIP3    H278836   0.226   3.062   0.925  0.4429  1.3266  0.8857
19141TIP3   OH278837   4.337   3.441  16.963  0.6881  0.1842  0.7086
19141TIP3    H178838   4.286   3.505  17.013 -1.8416 -2.8295  2.2364
19141TIP3    H278839   4.329   3.470  16.872 -2.4847  0.7609  1.0827
19142TIP3   OH278840   4.515   5.951  17.005 -0.7767  0.6104  0.2037
19142TIP3    H178841   4.545   5.900  16.931  0.1530 -0.4066  1.2662
19142TIP3    H278842   4.580   6.020  17.015 -0.0611 -0.1769  1.0297
19143TIP3   OH278843   0.721   5.493  14.010  0.1841 -0.1134  0.0758
19143TIP3    H178844   0.780   5.565  14.030 -0.3209  0.3817 -0.2197
19143TIP3    H278845   0.776   5.430  13.962  1.2661 -1.0815  2.5133
19144TIP3   OH278846   6.137   5.356  13.440  0.1303  0.0588  0.8377
19144TIP3    H178847   6.135   5.264  13.411 -0.7014  0.5508 -0.7231
19144TIP3    H278848   6.230   5.378  13.443  0.2742 -0.3766 -0.3016
19145TIP3   OH278849   3.407   2.578   5.191  0.0488  0.4205  0.1997
19145TIP3    H178850   3.316   2.608   5.182 -0.3722 -0.5214  1.2347
19145TIP3    H278851   3.400   2.484   5.210  1.2472  0.3424  0.3145
19146TIP3   OH278852   4.522   2.432  13.477  0.1941  0.3487 -0.1493
19146TIP3    H178853   4.465   2.462  13.548  1.7613  0.9217  0.9006
19146TIP3    H278854   4.467   2.436  13.399 -1.3442  0.4232  0.9086
19147TIP3   OH278855   1.826   2.640  14.520 -0.1810  0.2358 -0.2239
19147TIP3    H178856   1.740   2.637  14.479 -0.4364 -0.3610  0.3518
19147TIP3    H278857   1.812   2.685  14.603 -0.0208 -0.2732  0.0803
19148TIP3   OH278858   3.472   3.833   0.250  0.4977  0.3977 -0.0189
19148TIP3    H178859   3.511   3.920   0.239  1.0508  0.1467 -0.0377
19148TIP3    H278860   3.391   3.837   0.199 -0.3718  1.4741  1.4159
19149TIP3   OH278861   1.163   6.170   0.478  0.3172 -0.1710  0.2299
19149TIP3    H178862   1.164   6.264   0.495  1.5636  0.1044 -1.2703
19149TIP3    H278863   1.080   6.155   0.433  1.0027  0.5738 -1.3360
19150TIP3   OH278864   5.951   0.211  14.709  0.3266  0.7218  0.1906
19150TIP3    H178865   6.046   0.208  14.723  0.4018 -1.2738 -0.5379
19150TIP3    H278866   5.940   0.191  14.616 -0.8844 -0.5501  0.5943
19151TIP3   OH278867   2.768   0.909  16.107 -0.0715 -0.4658 -0.7401
19151TIP3    H178868   2.858   0.882  16.127 -0.5309 -0.5112  1.3371
19151TIP3    H278869   2.777   0.997  16.072  0.6309  0.3342  1.3770
19152TIP3   OH278870   5.413   0.712  12.622  0.4955  0.0955 -0.1857
19152TIP3    H178871   5.471   0.714  12.545 -0.6190 -0.2794 -1.0576
19152TIP3    H278872   5.381   0.621  12.625 -1.3759  0.7103 -0.7394
19153TIP3   OH278873   0.001   5.568   2.959 -0.0368 -0.3180  0.7452
19153TIP3    H178874   0.069   5.633   2.940  0.4432 -0.9545  0.2460
19153TIP3    H278875  -0.045   5.603   3.035  3.1578 -1.5706  3.4037
19154TIP3   OH278876   4.887   3.360   2.518  1.0088 -0.0590  0.5003
19154TIP3    H178877   4.926   3.441   2.552 -0.5524  0.4071  1.2739
19154TIP3    H278878   4.801   3.356   2.561 -0.3939 -0.2901 -2.2115
19155TIP3   OH278879   3.200   5.820   0.350  0.3821 -0.4511  0.2153
19155TIP3    H178880   3.198   5.726   0.362 -1.1729 -0.2552  1.6255
19155TIP3    H278881   3.194   5.833   0.255 -2.2923 -1.6971  0.1880
19156TIP3   OH278882   4.186   5.190  14.292 -0.1843 -0.0584  0.3554
19156TIP3    H178883   4.186   5.179  14.197 -0.4032  1.6757  0.1354
19156TIP3    H278884   4.279   5.186  14.317 -0.2505 -2.5046  0.3482
19157TIP3   OH278885   4.738   0.061   6.245  0.0173 -0.3889  0.0309
19157TIP3    H178886   4.660   0.007   6.229 -0.4569  0.1155  0.5909
19157TIP3    H278887   4.713   0.148   6.216  0.2339 -0.1392  0.5837
19158TIP3   OH278888   2.135   6.729  15.547 -0.0718 -0.1025  0.2046
19158TIP3    H178889   2.149   6.636  15.530  1.4696 -0.2669  2.1178
19158TIP3    H278890   2.079   6.759  15.476  0.2530 -2.2684 -0.9983
19159TIP3   OH278891   1.010   1.271  15.406  0.2687 -0.0311 -0.1124
19159TIP3    H178892   0.983   1.361  15.390 -0.2026 -0.1614 -0.0415
19159TIP3    H278893   1.101   1.267  15.375 -0.5233 -0.2057 -2.4994
19160TIP3   OH278894   6.482   1.501   4.374 -0.0235  0.2743 -0.9904
19160TIP3    H178895   6.545   1.573   4.365  0.3036  0.2228  0.6748
19160TIP3    H278896   6.415   1.536   4.432 -0.1185 -0.5903 -0.5776
19161TIP3   OH278897   4.498   1.604   3.347  0.1078 -0.2273 -0.0288
19161TIP3    H178898   4.432   1.561   3.402 -1.8580  0.7804 -1.5482
19161TIP3    H278899   4.503   1.693   3.381  0.6162 -0.2684  0.0092
19162TIP3   OH278900   0.897   5.068   1.922  0.9784 -0.5493  0.0817
19162TIP3    H178901   0.973   5.048   1.866  0.0452 -0.1762 -1.3348
19162TIP3    H278902   0.869   5.155   1.894  0.7413 -0.1900  1.4246
19163TIP3   OH278903   5.435   6.759   2.030  0.4635  0.2267 -0.2374
19163TIP3    H178904   5.379   6.759   1.953 -0.4820  1.7582  0.4330
19163TIP3    H278905   5.475   6.846   2.031 -2.5516  1.6891  3.1357
19164TIP3   OH278906   4.684   4.630  13.736  0.6669 -0.1499 -0.0531
19164TIP3    H178907   4.663   4.707  13.788 -1.6388 -1.1528  0.5643
19164TIP3    H278908   4.727   4.570  13.797  1.8373  0.3703 -0.3648
19165TIP3   OH278909   1.537   3.143  16.688 -0.2504 -0.3669 -0.4771
19165TIP3    H178910   1.528   3.107  16.776  0.0610  0.1238 -0.2409
19165TIP3    H278911   1.539   3.238  16.702  2.9105 -0.3452 -0.7116
19166TIP3   OH278912   5.692   0.315  16.104  0.0293  0.5068 -0.0507
19166TIP3    H178913   5.680   0.277  16.017 -0.3749 -1.1718  0.7137
19166TIP3    H278914   5.758   0.383  16.092  0.6989 -0.3832 -1.4839
19167TIP3   OH278915   4.268   5.955  12.663  0.4532 -0.0101 -0.1999
19167TIP3    H178916   4.317   5.893  12.716 -1.5331  0.0437  1.7600
19167TIP3    H278917   4.291   6.041  12.698  1.1865  0.1988 -1.1835
19168TIP3   OH278918   6.231   6.683  15.562 -0.0882 -0.2259 -0.1296
19168TIP3    H178919   6.140   6.709  15.576 -0.5720 -1.7722 -0.2594
19168TIP3    H278920   6.240   6.601  15.611  1.2189 -0.1245 -0.1821
19169TIP3   OH278921   0.890   1.583   1.221  0.3210 -0.2074  0.0729
19169TIP3    H178922   0.842   1.509   1.183 -2.1871  1.1236  0.5763
19169TIP3    H278923   0.823   1.646   1.244  2.3423  1.7276  0.8215
19170TIP3   OH278924   1.502   0.140  11.888  0.6892  1.0459  0.3465
19170TIP3    H178925   1.520   0.201  11.959 -0.0125  0.7698  0.7654
19170TIP3    H278926   1.423   0.094  11.915  1.8453 -0.8701  0.5768
19171TIP3   OH278927   5.589   0.714   5.625  0.2030 -0.2978  0.1475
19171TIP3    H178928   5.628   0.698   5.539 -1.9358 -2.8543 -0.4066
19171TIP3    H278929   5.589   0.629   5.668 -1.9292  0.2342  1.2985
19172TIP3   OH278930   3.896   5.912  15.942  0.0751 -0.1385  0.1462
19172TIP3    H178931   3.909   5.997  15.985  0.6912  0.8922 -1.9750
19172TIP3    H278932   3.972   5.860  15.968  0.4474  0.4690  0.2905
19173TIP3   OH278933   1.769   3.844  15.152 -0.3745  0.2264 -0.2605
19173TIP3    H178934   1.851   3.822  15.108 -0.4117 -0.6549  0.1034
19173TIP3    H278935   1.709   3.773  15.130 -0.9466  0.7057 -0.2676
19174TIP3   OH278936   4.716   6.461   1.799  0.1578 -0.5685  0.2008
19174TIP3    H178937   4.773   6.516   1.853 -0.2556  0.7960 -0.7243
19174TIP3    H278938   4.775   6.418   1.737  0.1631  1.4489 -1.2768
19175TIP3   OH278939   5.894   5.081  12.652 -0.4668 -0.0428  0.2461
19175TIP3    H178940   5.935   5.108  12.570  1.1653  0.1104  1.0919
19175TIP3    H278941   5.804   5.061  12.628 -0.4385  1.5408 -1.2843
19176TIP3   OH278942   6.741   5.766   0.169  0.1038  0.2045  0.3589
19176TIP3    H178943   6.754   5.810   0.085  2.0215 -0.9701  0.0181
19176TIP3    H278944   6.693   5.686   0.147 -0.4717  0.4851  0.5636
19177TIP3   OH278945   1.410   1.955   0.491  0.1407  0.8016 -0.2765
19177TIP3    H178946   1.379   2.003   0.569  0.9302  1.2624 -0.2493
19177TIP3    H278947   1.488   1.908   0.521 -1.1842 -1.3179 -0.0337
19178TIP3   OH278948   3.408   3.285  13.775  0.3123 -0.8536 -0.1658
19178TIP3    H178949   3.395   3.205  13.723 -0.0724 -1.2727  0.5601
19178TIP3    H278950   3.390   3.258  13.865  0.5548 -0.0324  0.1368
19179TIP3   OH278951   2.630   2.114  12.364  0.4636  0.0092 -0.2466
19179TIP3    H178952   2.572   2.069  12.425  0.2750 -0.4720 -0.7783
19179TIP3    H278953   2.675   2.179  12.418 -0.7378  0.5562  0.1331
19180TIP3   OH278954   1.379   4.072  13.376 -0.2024  0.6881  0.3309
19180TIP3    H178955   1.381   4.032  13.290 -1.5195 -1.6450  1.3320
19180TIP3    H278956   1.286   4.086  13.394  0.1062  2.0308  0.9932
19181TIP3   OH278957   3.659   1.143   2.920 -0.1104 -0.8115  0.5213
19181TIP3    H178958   3.613   1.133   3.004  0.1228 -2.8783  0.4200
19181TIP3    H278959   3.720   1.070   2.917 -0.9720 -1.4710 -2.0014
19182TIP3   OH278960   6.473   1.054  11.434  0.1753 -0.2949 -0.2289
19182TIP3    H178961   6.473   1.074  11.340 -0.7818  0.1412 -0.1428
19182TIP3    H278962   6.550   1.099  11.468  1.6087 -2.0000 -1.1202
19183TIP3   OH278963   0.097   2.018  11.285 -0.4343  0.2046 -0.1120
19183TIP3    H178964   0.143   2.034  11.203 -1.5317 -0.1218 -0.7987
19183TIP3    H278965   0.131   2.084  11.345 -0.2355  0.9883 -1.0717
19184TIP3   OH278966   6.583   6.703   3.480  0.0391  0.4584 -0.0384
19184TIP3    H178967   6.673   6.733   3.495 -0.4146  0.8698  2.0468
19184TIP3    H278968   6.593   6.618   3.438  1.4270  0.1701  0.8169
19185TIP3   OH278969   6.533   5.933   5.404  0.0411 -0.2221  0.8973
19185TIP3    H178970   6.497   5.859   5.453 -1.4545 -0.7627 -0.9535
19185TIP3    H278971   6.457   5.969   5.358  1.2657  0.7852 -0.3437
19186TIP3   OH278972   5.361   4.024  11.306 -1.1192 -0.0970  0.3546
19186TIP3    H178973   5.310   4.031  11.386  0.8112 -0.8998  1.6961
19186TIP3    H278974   5.435   3.968  11.329 -0.2571  0.0522 -1.8558
19187TIP3   OH278975   5.970   2.835  11.770 -0.0497 -0.4869  0.0379
19187TIP3    H178976   5.977   2.922  11.732  1.7368 -2.0376 -3.4215
19187TIP3    H278977   6.034   2.834  11.842  0.5986  0.7477 -0.5157
19188TIP3   OH278978   5.100   2.269  14.070 -0.1097 -0.0304 -0.6694
19188TIP3    H178979   5.131   2.351  14.108  0.6458  0.2663 -1.8895
19188TIP3    H278980   5.113   2.204  14.138  0.6291  0.6020 -0.2033
19189TIP3   OH278981   5.751   1.746  13.107 -0.6613 -0.6518  0.1527
19189TIP3    H178982   5.659   1.750  13.132 -1.3508  0.7717 -2.3582
19189TIP3    H278983   5.799   1.777  13.184 -2.4975  1.5232  0.4592
19190TIP3   OH278984   3.487   2.778   6.048  0.0284  0.0074  0.3382
19190TIP3    H178985   3.531   2.861   6.060 -0.7330  0.4539  0.0679
19190TIP3    H278986   3.490   2.761   5.954  1.3523 -0.9233  0.5406
19191TIP3   OH278987   3.361   3.013  15.825 -0.3506  0.3425 -0.3557
19191TIP3    H178988   3.442   2.966  15.846  1.4113  2.9289 -1.0629
19191TIP3    H278989   3.368   3.034  15.732 -1.1720  1.7700 -0.1198
19192TIP3   OH278990   5.674   2.964  16.617 -0.3758  0.4023  0.1769
19192TIP3    H178991   5.685   2.920  16.701 -2.0291  0.2099  0.3117
19192TIP3    H278992   5.671   3.057  16.639  1.2864  0.4827  0.0933
19193TIP3   OH278993   0.597   6.308   1.450  0.7797 -0.1467  0.1889
19193TIP3    H178994   0.683   6.318   1.408  0.1679 -0.6036 -1.1827
19193TIP3    H278995   0.534   6.325   1.380 -0.2586 -1.3953  0.8101
19194TIP3   OH278996   2.754   2.797  15.900  0.1731 -0.5076  0.2063
19194TIP3    H178997   2.660   2.805  15.913  0.5568  1.7561  2.0656
19194TIP3    H278998   2.765   2.717  15.849 -2.8091 -0.2704 -0.9132
19195TIP3   OH278999   4.866   4.259   2.331  0.1789 -0.0077 -0.7635
19195TIP3    H179000   4.803   4.331   2.329  0.4561  0.3163  1.2674
19195TIP3    H279001   4.932   4.282   2.267 -0.7214  0.6195 -1.4804
19196TIP3   OH279002   0.319   6.077   5.421  0.4187 -0.1202  0.1602
19196TIP3    H179003   0.312   6.031   5.337  1.9886 -0.5381  0.2500
19196TIP3    H279004   0.333   6.168   5.397  0.6154 -0.1989 -0.0333
19197TIP3   OH279005   2.038   5.539  14.557 -0.1601 -0.3643  0.4791
19197TIP3    H179006   2.132   5.531  14.538 -0.3940 -0.2217 -0.7786
19197TIP3    H279007   2.034   5.567  14.648  1.0548  0.4295  0.3031
19198TIP3   OH279008   5.843   4.721   3.942 -0.3598 -0.4412  0.2159
19198TIP3    H179009   5.752   4.695   3.927 -0.6392  0.1493  0.8602
19198TIP3    H279010   5.889   4.695   3.862 -1.5546  1.4046 -1.0970
19199TIP3   OH279011   0.278   4.316  11.804  0.0929 -0.3172 -0.2888
19199TIP3    H179012   0.292   4.323  11.898  1.6021  0.5166 -0.5681
19199TIP3    H279013   0.365   4.299  11.768 -0.3491  0.1533 -1.6111
19200TIP3   OH279014   4.157   3.329   5.223  0.1685  0.6084 -0.2294
19200TIP3    H179015   4.187   3.262   5.162 -1.0665 -0.6271  0.4589
19200TIP3    H279016   4.231   3.344   5.281  0.9668  0.9582 -1.3351
19201TIP3   OH279017   2.607   2.945  13.623  0.1959  0.0653 -0.2177
19201TIP3    H179018   2.531   2.995  13.595  0.4551 -0.5588 -2.1064
19201TIP3    H279019   2.575   2.855  13.632  0.8236 -0.3257 -1.6666
19202TIP3   OH279020   3.200   5.765  16.736 -0.3781  0.7430 -0.0438
19202TIP3    H179021   3.263   5.711  16.785 -1.0130  1.4677  1.5947
19202TIP3    H279022   3.245   5.786  16.654  1.2917  0.7646  0.8571
19203TIP3   OH279023   6.268   4.263  11.316 -0.0566 -0.1865  0.6079
19203TIP3    H179024   6.333   4.217  11.263 -1.4795 -1.0689 -0.4060
19203TIP3    H279025   6.282   4.232  11.406  0.2156 -1.1850  0.2163
19204TIP3   OH279026   4.853   0.882  16.968 -0.8849  0.0473  0.3575
19204TIP3    H179027   4.931   0.932  16.991  1.1632 -2.8218 -0.0716
19204TIP3    H279028   4.805   0.939  16.908  0.8300  1.9010  0.6746
19205TIP3   OH279029   3.305   2.884  15.302  0.1181  0.6249  0.2877
19205TIP3    H179030   3.396   2.896  15.274 -0.3756 -0.8262 -2.1609
19205TIP3    H279031   3.309   2.812  15.365  0.6937  0.6037  0.2318
19206TIP3   OH279032   0.739   5.313   2.964  0.6927 -0.2189 -0.5711
19206TIP3    H179033   0.829   5.337   2.943  1.2242 -1.8951 -0.2378
19206TIP3    H279034   0.746   5.235   3.019 -0.9376 -0.0245 -0.0407
19207TIP3   OH279035   0.368   2.912   0.705  0.2071  0.6207 -0.1136
19207TIP3    H179036   0.381   2.902   0.610 -0.3912  3.0222 -0.4829
19207TIP3    H279037   0.408   2.834   0.743  0.0212 -0.6131 -2.3827
19208TIP3   OH279038   3.977   1.498   2.909  0.1321  0.2200  0.5046
19208TIP3    H179039   4.038   1.533   2.974  0.1693 -0.0845  0.6370
19208TIP3    H279040   3.903   1.558   2.909 -0.2143 -0.1976  1.3869
19209TIP3   OH279041   1.732   5.126  17.195  0.0078  0.8553  0.6142
19209TIP3    H179042   1.801   5.164  17.248  2.1028  1.3389 -2.3076
19209TIP3    H279043   1.654   5.178  17.216  0.4676  0.2660  3.9788
19210TIP3   OH279044   4.812   1.101   4.504 -0.6147 -0.4328 -0.4045
19210TIP3    H179045   4.893   1.086   4.553 -0.9097 -2.1934 -0.4365
19210TIP3    H279046   4.789   1.192   4.525 -0.0492 -0.7375  1.7210
19211TIP3   OH279047   3.138   6.496  10.527  0.0220 -0.1545  0.5679
19211TIP3    H179048   3.076   6.467  10.459 -0.6774  2.3628  0.1065
19211TIP3    H279049   3.173   6.414  10.563 -2.6238 -1.6170 -0.0395
19212TIP3   OH279050   0.491   2.965  16.171 -0.9965 -0.5772  0.7963
19212TIP3    H179051   0.462   3.002  16.088 -0.8670 -1.9266  0.1283
19212TIP3    H279052   0.586   2.960  16.163 -1.1141 -2.3488  0.2952
19213TIP3   OH279053   5.476   6.738   5.866  0.0723  0.9793 -0.0267
19213TIP3    H179054   5.480   6.684   5.945  1.0870  1.4753  0.2641
19213TIP3    H279055   5.404   6.799   5.883 -1.5402 -0.7231 -0.6441
19214TIP3   OH279056   4.481   5.527  11.280 -0.3942  0.4315  0.3646
19214TIP3    H179057   4.490   5.556  11.371  1.2624 -2.8084  1.3333
19214TIP3    H279058   4.477   5.431  11.287  0.8235  0.0829 -3.0450
19215TIP3   OH279059   3.872   1.849   6.212  0.6824 -0.4953  1.1330
19215TIP3    H179060   3.904   1.774   6.262 -1.8926 -1.9760  0.6120
19215TIP3    H279061   3.898   1.831   6.122  0.1962 -0.6986  1.0318
19216TIP3   OH279062   5.698   2.691   3.422  0.5569 -1.6177 -0.7080
19216TIP3    H179063   5.764   2.746   3.380 -0.2480  0.6858  0.9084
19216TIP3    H279064   5.748   2.628   3.474  1.5006 -0.6616 -0.4451
19217TIP3   OH279065   1.430   2.552   1.603  0.4700 -0.7962  0.0809
19217TIP3    H179066   1.373   2.489   1.558 -0.5148 -1.5820  2.3254
19217TIP3    H279067   1.392   2.637   1.582  1.2489 -0.9713 -2.2117
19218TIP3   OH279068   1.968   2.965   4.001 -0.5142  0.6551 -0.2475
19218TIP3    H179069   1.999   2.901   3.937 -3.0155 -1.6755  0.7857
19218TIP3    H279070   2.048   3.002   4.038  0.9920 -1.3011 -1.4263
19219TIP3   OH279071   5.613   5.397   1.867 -0.2285 -0.3124 -0.6805
19219TIP3    H179072   5.548   5.396   1.938  1.5207 -0.7120  0.9407
19219TIP3    H279073   5.577   5.337   1.801 -0.7786 -1.7642  0.8935
19220TIP3   OH279074   1.537   2.158   6.227 -0.1152 -0.6705 -0.6303
19220TIP3    H179075   1.552   2.124   6.139  2.0081 -1.4537 -0.0187
19220TIP3    H279076   1.564   2.250   6.223 -2.9305  0.1562 -1.5243
19221TIP3   OH279077   1.884   2.165   2.285 -0.0048 -0.2593  0.3321
19221TIP3    H179078   1.921   2.080   2.262  0.7129  0.4181 -1.0429
19221TIP3    H279079   1.794   2.162   2.253 -0.4400 -1.0377  1.5977
19222TIP3   OH279080   1.850   0.306  12.032 -0.0345 -0.1171 -0.0381
19222TIP3    H179081   1.794   0.234  12.059 -2.3244  0.9262 -1.8285
19222TIP3    H279082   1.861   0.360  12.111 -2.4824  0.2394  0.0871
19223TIP3   OH279083   4.149   6.550  16.061 -0.1541 -0.2572  0.0687
19223TIP3    H179084   4.080   6.491  16.030 -0.7396 -0.8205  2.3131
19223TIP3    H279085   4.127   6.635  16.024 -0.8949 -0.8645 -0.9116
19224TIP3   OH279086   0.292   5.401   5.697  0.0358 -0.0296 -0.3850
19224TIP3    H179087   0.270   5.411   5.604 -0.2343  1.0683 -0.2051
19224TIP3    H279088   0.386   5.379   5.696  0.5394  2.0077 -0.8399
19225TIP3   OH279089   4.868   3.665   4.437  0.1028  0.1466  0.1547
19225TIP3    H179090   4.954   3.664   4.479 -0.1862 -1.0773  0.7375
19225TIP3    H279091   4.887   3.662   4.343  0.7171  1.2908  0.2399
19226TIP3   OH279092   1.566   4.829  14.214  0.3683  0.1562  0.0178
19226TIP3    H179093   1.484   4.793  14.247  0.5933 -0.2530  0.1404
19226TIP3    H279094   1.548   4.848  14.122  1.3811 -3.9670 -1.1296
19227TIP3   OH279095   3.988   6.341   4.687 -0.1356 -0.6288  0.6667
19227TIP3    H179096   3.941   6.278   4.632  0.5815 -1.5583  1.1075
19227TIP3    H279097   3.924   6.409   4.706 -0.1050  0.2614 -2.1945
19228TIP3   OH279098   6.203   3.233  15.374 -0.0199  0.1435 -0.1131
19228TIP3    H179099   6.137   3.300  15.393 -0.0420  0.0252  0.2315
19228TIP3    H279100   6.199   3.174  15.449  0.8805  0.4483  0.1749
19229TIP3   OH279101   3.619   4.864  14.920  0.6482  0.0296 -0.1634
19229TIP3    H179102   3.613   4.944  14.868  0.9037 -0.4467 -0.9447
19229TIP3    H279103   3.711   4.838  14.913  0.2409 -1.1931 -1.2529
19230TIP3   OH279104   0.483   0.093   1.287 -0.5078 -0.2061  0.1095
19230TIP3    H179105   0.572   0.120   1.311 -0.6663  0.2728  0.1711
19230TIP3    H279106   0.455   0.037   1.359  0.0457 -1.0418 -0.3028
19231TIP3   OH279107   3.499   6.134   2.790  0.1163  0.2345  0.3964
19231TIP3    H179108   3.534   6.221   2.811  0.0038  0.1463  0.9553
19231TIP3    H279109   3.522   6.080   2.865  0.5983 -0.3421 -0.1575
19232TIP3   OH279110   0.594   1.138  11.535 -0.1783 -0.7784  0.1120
19232TIP3    H179111   0.672   1.150  11.479 -1.5985 -1.0006 -1.9708
19232TIP3    H279112   0.566   1.049  11.518 -1.4786 -0.3657  0.0830
19233TIP3   OH279113   2.759   6.118   3.334 -0.3514 -0.3807  0.4531
19233TIP3    H179114   2.714   6.079   3.259 -0.0357 -0.5685  0.3627
19233TIP3    H279115   2.751   6.212   3.320  1.6501 -0.3884 -0.9981
19234TIP3   OH279116   0.084   0.572  11.786 -0.2240 -0.1185  0.3139
19234TIP3    H179117   0.065   0.607  11.873 -0.4929 -0.0834  0.2417
19234TIP3    H279118   0.176   0.594  11.771 -0.5668  1.1575 -0.0125
19235TIP3   OH279119   6.088   3.275  13.127 -0.3782  0.1891 -0.2727
19235TIP3    H179120   6.075   3.352  13.071 -0.8464 -0.6380 -1.3114
19235TIP3    H279121   6.103   3.312  13.214 -0.8953  1.4604 -0.7011
19236TIP3   OH279122   4.136   4.806  12.529  0.1180  0.2290  0.3038
19236TIP3    H179123   4.103   4.839  12.613 -1.5110  0.5395 -0.4281
19236TIP3    H279124   4.201   4.741  12.553 -1.4374 -0.8014  1.8398
19237TIP3   OH279125   1.153   0.025   5.178 -0.3848  0.0972  0.6519
19237TIP3    H179126   1.190  -0.044   5.233 -1.6044 -1.2810 -0.2127
19237TIP3    H279127   1.083  -0.018   5.129 -2.4271  2.4142  1.4595
19238TIP3   OH279128   0.219   6.196  13.237  0.9614 -0.2686 -0.2216
19238TIP3    H179129   0.196   6.248  13.160  1.7690 -0.5758 -0.6704
19238TIP3    H279130   0.139   6.197  13.290  0.9824  1.4641 -0.1918
19239TIP3   OH279131   2.061   2.297  13.453  0.1008  0.1113  0.5706
19239TIP3    H179132   2.037   2.310  13.362 -0.0709 -1.5578  0.3543
19239TIP3    H279133   2.046   2.382  13.495 -0.2339  0.7672 -0.8475
19240TIP3   OH279134   1.963   4.146  15.754 -0.4428  0.2802  0.0524
19240TIP3    H179135   1.872   4.150  15.723 -0.1814  1.4985 -0.5836
19240TIP3    H279136   1.981   4.053  15.763 -1.3023 -0.0303 -1.2174
19241TIP3   OH279137   3.896   0.445   2.275 -0.6289 -0.3924  0.5255
19241TIP3    H179138   3.938   0.531   2.284  0.3804 -0.7783 -0.4461
19241TIP3    H279139   3.966   0.382   2.292 -0.3222 -1.0647 -2.9516
19242TIP3   OH279140   5.208   4.897  14.082 -0.3341  0.4142  0.2756
19242TIP3    H179141   5.196   4.905  14.177  0.2110 -1.3375  0.5026
19242TIP3    H279142   5.123   4.920  14.046 -0.5153  1.2116  1.1805
19243TIP3   OH279143   2.884   5.860   0.242 -0.1020  0.2630  0.2954
19243TIP3    H179144   2.952   5.857   0.175  0.8743  2.5680  1.1238
19243TIP3    H279145   2.827   5.786   0.222  3.1372 -2.3162  0.1234
19244TIP3   OH279146   3.293   2.448   1.376 -0.0644 -0.1383  0.1836
19244TIP3    H179147   3.271   2.532   1.335 -1.4247 -0.8121 -0.4782
19244TIP3    H279148   3.277   2.462   1.469  1.5044  0.8999  0.3251
19245TIP3   OH279149   0.742   5.914  17.197  0.1153 -0.1621 -0.8883
19245TIP3    H179150   0.717   5.998  17.160 -3.3111 -1.0534 -0.8022
19245TIP3    H279151   0.701   5.913  17.284  0.0660 -1.9139 -0.9067
19246TIP3   OH279152   4.691   2.491   4.224  0.2524  0.3275  0.1042
19246TIP3    H179153   4.678   2.585   4.220  0.1867  0.2714 -1.0321
19246TIP3    H279154   4.602   2.454   4.231  0.2055  0.3005 -0.5737
19247TIP3   OH279155   1.894   1.717   0.018 -0.4664  0.1963 -0.0537
19247TIP3    H179156   1.929   1.751  -0.065  0.8106  0.6485  0.6441
19247TIP3    H279157   1.800   1.732   0.013 -0.4179  0.1028 -1.4708
19248TIP3   OH279158   1.051   0.424   2.783 -0.3309 -0.5557  0.2123
19248TIP3    H179159   1.068   0.512   2.815 -2.4571 -0.0222  0.0095
19248TIP3    H279160   1.134   0.394   2.748  0.7540  0.8363  1.5361
19249TIP3   OH279161   3.872   3.486   4.463  0.2120 -0.2791  0.3839
19249TIP3    H179162   3.886   3.468   4.556  0.1613 -1.0470  0.2420
19249TIP3    H279163   3.788   3.446   4.444 -0.2355  0.7222  0.2358
19250TIP3   OH279164   0.698   5.338   5.384 -0.1838  0.0769  0.5277
19250TIP3    H179165   0.747   5.419   5.396  2.9883 -1.5699 -0.4752
19250TIP3    H279166   0.629   5.360   5.322  1.0182  1.8794 -0.2047
19251TIP3   OH279167   1.905   4.266   0.670  0.3157 -0.4708  0.2965
19251TIP3    H179168   1.959   4.193   0.637  1.3367  0.9284 -1.2436
19251TIP3    H279169   1.860   4.298   0.592 -0.7290  0.0550  1.1164
19252TIP3   OH279170   5.729   0.685   1.685 -0.0515 -0.1493  0.0426
19252TIP3    H179171   5.650   0.734   1.703 -0.0927 -0.3356  0.3679
19252TIP3    H279172   5.716   0.650   1.596  0.2736  0.9871 -0.4593
19253TIP3   OH279173   1.708   6.431  16.442 -0.0164  0.0357 -0.3134
19253TIP3    H179174   1.678   6.487  16.513  0.7354 -0.4749  0.4209
19253TIP3    H279175   1.715   6.489  16.367 -0.9010  0.5684  0.0028
19254TIP3   OH279176   3.412   1.177  11.131  0.6315 -0.2628 -0.2048
19254TIP3    H179177   3.477   1.191  11.199 -0.3045  0.4954  0.5359
19254TIP3    H279178   3.443   1.230  11.057  0.3733  0.8297  0.4648
19255TIP3   OH279179   6.509   6.518  13.152  0.6866  0.6309 -0.5299
19255TIP3    H179180   6.536   6.465  13.226  0.4848  1.5308  0.1906
19255TIP3    H279181   6.590   6.557  13.119  0.5845  1.4871  0.2038
19256TIP3   OH279182   4.282   1.850  17.208  0.2843 -0.0425 -0.7179
19256TIP3    H179183   4.239   1.777  17.165 -0.6967  0.2151 -0.1800
19256TIP3    H279184   4.281   1.921  17.143  2.6420 -0.9551 -1.8247
19257TIP3   OH279185   4.361   5.089  15.216 -0.4166 -0.4553 -0.5146
19257TIP3    H179186   4.397   5.033  15.285 -0.5833 -0.8821 -0.7728
19257TIP3    H279187   4.363   5.178  15.253  2.1007 -0.2790 -0.9892
19258TIP3   OH279188   6.396   0.031   4.721 -0.7401  0.5260 -0.0494
19258TIP3    H179189   6.345   0.107   4.692  0.2999  1.3405  0.2205
19258TIP3    H279190   6.416   0.049   4.813  0.9499  0.7401 -0.4420
19259TIP3   OH279191   2.533   0.051  13.313 -0.0027  0.1696  0.0870
19259TIP3    H179192   2.547   0.009  13.398 -0.8866  0.5455  0.4223
19259TIP3    H279193   2.557  -0.015  13.249  2.8996  0.6323  0.6292
19260TIP3   OH279194   5.638   1.406  15.480  0.0000  0.5866  0.8490
19260TIP3    H179195   5.656   1.402  15.386 -1.1159  1.3197  0.5800
19260TIP3    H279196   5.656   1.497  15.503 -0.5908  0.6271  1.1508
19261TIP3   OH279197   0.552   4.268  15.538  0.3939  0.5758  0.8517
19261TIP3    H179198   0.557   4.363  15.530 -0.4502  0.4677 -1.3848
19261TIP3    H279199   0.642   4.238  15.527  0.3215  0.9813 -1.1200
19262TIP3   OH279200   6.266   1.298  16.738 -0.6219  0.2831  0.3760
19262TIP3    H179201   6.184   1.343  16.753 -0.6824 -0.3176  1.9092
19262TIP3    H279202   6.250   1.208  16.768 -0.5749 -0.8586 -2.7786
19263TIP3   OH279203   3.978   2.954   2.403  0.0030  0.0333 -0.4831
19263TIP3    H179204   3.958   2.868   2.367 -2.3834  0.0122  0.8199
19263TIP3    H279205   3.935   3.016   2.345  0.2937  0.2571 -0.4614
19264TIP3   OH279206   5.369   5.886  12.191 -0.1554 -0.0203  0.5273
19264TIP3    H179207   5.375   5.806  12.138 -1.1534  0.7840 -0.8250
19264TIP3    H279208   5.294   5.871  12.248 -0.6478  0.1579 -0.0751
19265TIP3   OH279209   0.400   2.962  14.044 -0.3596 -0.0769  0.1091
19265TIP3    H179210   0.347   3.026  14.092 -0.7882  0.4622 -1.0802
19265TIP3    H279211   0.405   2.886  14.103 -1.1497  0.4620  0.8747
19266TIP3   OH279212   5.147   0.147  11.106 -0.1321  0.3728  0.3716
19266TIP3    H179213   5.088   0.079  11.076 -0.1426  0.3598  0.4216
19266TIP3    H279214   5.171   0.196  11.027  1.8106 -1.1992 -0.0505
19267TIP3   OH279215   3.301   2.201  15.652  0.0935  0.3977 -0.5326
19267TIP3    H179216   3.322   2.117  15.611 -2.8257 -2.4226  3.3844
19267TIP3    H279217   3.215   2.224  15.617 -0.1303  0.5346  0.0915
19268TIP3   OH279218   4.029   3.359  14.634  0.0629 -0.1141 -0.2455
19268TIP3    H179219   4.119   3.329  14.650  0.2910  1.1708  1.0240
19268TIP3    H279220   3.976   3.280  14.644  0.9507 -0.7033 -0.0496
19269TIP3   OH279221   4.176   1.923   4.548  0.2202  1.2548 -0.2683
19269TIP3    H179222   4.206   1.843   4.506 -1.6837  0.8280 -0.8785
19269TIP3    H279223   4.255   1.976   4.560  1.4746 -0.6533  0.0387
19270TIP3   OH279224   1.016   0.776   2.471 -0.6288 -0.9211 -0.4278
19270TIP3    H179225   0.924   0.791   2.452 -0.2317  1.6055 -0.5784
19270TIP3    H279226   1.029   0.813   2.558  0.6095  0.4724 -1.1692
19271TIP3   OH279227   5.714   2.042  10.992 -0.4076 -0.6766  0.1211
19271TIP3    H179228   5.703   1.951  11.018  0.6446 -0.8802 -0.1224
19271TIP3    H279229   5.625   2.077  10.989 -1.0781 -2.4446 -2.5279
19272TIP3   OH279230   0.789   3.966   6.070 -0.1547  0.0172 -0.7136
19272TIP3    H179231   0.758   4.034   6.011  0.2588  0.6570 -0.1960
19272TIP3    H279232   0.878   3.946   6.039  0.1599  0.5314 -0.1699
19273TIP3   OH279233   3.733   3.517  12.648  0.2370 -0.5358 -0.1082
19273TIP3    H179234   3.768   3.579  12.711  0.2521 -0.7479  0.0925
19273TIP3    H279235   3.796   3.445  12.647  0.7531 -0.0793 -1.1070
19274TIP3   OH279236   1.993   5.822   2.719  0.5012  0.1656 -0.0503
19274TIP3    H179237   2.048   5.872   2.659  0.1731  0.7709  0.1556
19274TIP3    H279238   2.055   5.786   2.783  0.7526  0.1827 -0.2837
19275TIP3   OH279239   4.303   0.119  16.242 -0.1557  0.5614 -0.0734
19275TIP3    H179240   4.388   0.117  16.286  0.3886  1.9780 -1.0160
19275TIP3    H279241   4.321   0.086  16.154 -0.4506  1.4415 -0.4723
19276TIP3   OH279242   3.226   4.839   2.449 -0.0491 -0.0635 -0.7434
19276TIP3    H179243   3.161   4.774   2.474  1.2548 -1.3425 -0.5831
19276TIP3    H279244   3.228   4.901   2.522  0.0327 -0.8934 -0.0358
19277TIP3   OH279245   1.908   4.997  16.793 -0.1037 -0.5061  0.1951
19277TIP3    H179246   1.852   5.011  16.870 -0.2420  0.2151 -0.0399
19277TIP3    H279247   1.855   4.943  16.734 -1.2847  1.7611 -0.8525
19278TIP3   OH279248   3.423   0.743  13.389  0.2629 -0.3752 -0.8977
19278TIP3    H179249   3.404   0.745  13.295  1.3420  3.9990 -1.1519
19278TIP3    H279250   3.519   0.741  13.393  0.2063 -1.3313  0.1574
19279TIP3   OH279251   0.727   6.491   6.927  0.2387 -0.1729 -0.7739
19279TIP3    H179252   0.813   6.504   6.969  0.5213  3.6818 -2.3158
19279TIP3    H279253   0.747   6.459   6.840  0.0643 -0.3299 -0.7562
19280TIP3   OH279254   0.013   0.417  12.002  0.2634 -0.0176 -0.1605
19280TIP3    H179255   0.013   0.334  11.955  0.8055 -0.5932  0.8376
19280TIP3    H279256  -0.051   0.405  12.072  1.7068 -0.2704  1.1342
19281TIP3   OH279257   0.024   1.017  13.432 -0.5126 -0.8702  0.1941
19281TIP3    H179258   0.039   1.054  13.519  3.2415 -0.5946 -0.4585
19281TIP3    H279259   0.026   0.922  13.446 -3.3677 -0.8513  0.8811
19282TIP3   OH279260   1.739   2.650   5.206 -0.5361 -0.1795 -0.1312
19282TIP3    H179261   1.649   2.673   5.229 -0.5028 -2.6535  2.7470
19282TIP3    H279262   1.784   2.734   5.199 -2.3650  0.9809  1.5079
19283TIP3   OH279263   6.690   1.380   0.899 -1.2349  0.3092 -0.6197
19283TIP3    H179264   6.678   1.314   0.831 -1.2727 -1.3866  0.9657
19283TIP3    H279265   6.603   1.390   0.938 -0.8612 -0.1026  0.3544
19284TIP3   OH279266   5.389   1.076   1.617  0.2480  0.3048  0.1140
19284TIP3    H179267   5.463   1.128   1.649  0.2215 -0.4970  1.4958
19284TIP3    H279268   5.333   1.140   1.572 -0.6120  1.8359  3.2197
19285TIP3   OH279269   6.174   3.136   6.963 -0.3737  0.4045 -0.0937
19285TIP3    H179270   6.101   3.182   6.922 -0.9928 -0.1057  0.4271
19285TIP3    H279271   6.201   3.071   6.898  0.4560  1.4509 -0.8010
19286TIP3   OH279272   5.165   2.251   3.347 -0.0068  0.1351 -0.0527
19286TIP3    H179273   5.201   2.245   3.259  0.5345  1.7553  0.0426
19286TIP3    H279274   5.216   2.188   3.398 -0.5182 -1.0172 -0.9428
19287TIP3   OH279275   2.675   2.115  12.097  0.3632  0.2724 -0.3218
19287TIP3    H179276   2.674   2.056  12.172  0.2093 -1.3621 -1.5770
19287TIP3    H279277   2.642   2.198  12.131 -1.0547 -0.8345  1.1041
19288TIP3   OH279278   3.676   0.535   3.142 -0.3652 -0.2878  0.0091
19288TIP3    H179279   3.765   0.537   3.176 -0.2083 -2.2673 -0.2373
19288TIP3    H279280   3.687   0.534   3.047 -0.6249 -1.1162 -0.0147
19289TIP3   OH279281   1.277   2.085  15.006  0.1504  0.1663 -0.4811
19289TIP3    H179282   1.204   2.118  14.953  0.5575  1.1260 -0.4506
19289TIP3    H279283   1.268   2.131  15.089 -0.7797 -1.7034  0.4747
19290TIP3   OH279284   4.843   5.877  11.850 -0.5153  0.4185  0.6716
19290TIP3    H179285   4.804   5.806  11.901  0.6003  0.8897  2.2303
19290TIP3    H279286   4.936   5.871  11.869 -0.1597  1.0276 -0.8229
19291TIP3   OH279287   4.265   6.230   3.538 -0.1074 -0.1936 -0.6875
19291TIP3    H179288   4.209   6.180   3.478  0.1611 -0.6197 -0.5881
19291TIP3    H279289   4.215   6.234   3.620  1.3184 -3.3595  0.4488
19292TIP3   OH279290   4.570   3.109   1.928  0.0284  0.0916  0.9414
19292TIP3    H179291   4.549   3.197   1.961  0.8828 -0.0788  1.9488
19292TIP3    H279292   4.618   3.125   1.847 -2.0460  0.5136 -0.2306
19293TIP3   OH279293   0.914   1.762  12.502 -0.2473  0.1114 -0.4007
19293TIP3    H179294   0.865   1.733  12.425  0.4842 -0.6004 -0.6019
19293TIP3    H279295   0.873   1.845  12.526 -3.6114 -1.9281  1.3093
19294TIP3   OH279296   2.232   5.321   0.541  0.1434  0.3253 -0.1925
19294TIP3    H179297   2.281   5.372   0.606 -0.4971 -0.7733  1.1776
19294TIP3    H279298   2.208   5.385   0.473  0.0825  1.6734  1.0670
19295TIP3   OH279299   6.437   0.013  15.431 -0.5671  0.1016 -0.0673
19295TIP3    H179300   6.475   0.074  15.494 -1.3106 -0.8592  1.3760
19295TIP3    H279301   6.356  -0.016  15.473 -0.9440 -0.7678 -1.3657
19296TIP3   OH279302   0.818   4.783   4.119 -0.4340  0.5599 -0.0293
19296TIP3    H179303   0.871   4.716   4.162 -0.4409  0.3762 -0.2992
19296TIP3    H279304   0.818   4.857   4.179 -2.0389 -0.3815  1.1650
19297TIP3   OH279305   6.316   5.976  15.362  0.1622  0.1584  0.1970
19297TIP3    H179306   6.272   5.894  15.341  1.5066 -0.7651  0.8668
19297TIP3    H279307   6.283   5.999  15.449  1.8079 -1.1390  1.1978
19298TIP3   OH279308   0.907   3.457   4.241 -0.2944 -0.2812 -0.1752
19298TIP3    H179309   0.815   3.430   4.238  0.0508 -1.3830 -1.2842
19298TIP3    H279310   0.948   3.395   4.302 -0.0158 -0.6955 -0.7732
19299TIP3   OH279311   2.796   0.254   0.028 -0.0380 -0.1713  0.2460
19299TIP3    H179312   2.862   0.314  -0.006  0.0915 -0.8111 -0.6550
19299TIP3    H279313   2.775   0.288   0.115  0.6037  0.7190  0.0593
19300TIP3   OH279314   4.459   1.312   3.802  0.1947 -0.0385  0.0932
19300TIP3    H179315   4.509   1.386   3.767 -0.3504  0.0746 -0.4542
19300TIP3    H279316   4.368   1.341   3.797 -0.0968 -1.1119 -1.0037
19301TIP3   OH279317   6.604   5.857  16.210  0.2373 -0.1289 -0.0728
19301TIP3    H179318   6.534   5.826  16.268  0.6140  0.9502  0.9718
19301TIP3    H279319   6.682   5.809  16.238  1.0605  2.4107  2.2464
19302TIP3   OH279320   1.223   2.164  16.299 -0.0300 -0.0484 -0.5780
19302TIP3    H179321   1.284   2.168  16.372 -0.8418 -0.2854  0.1258
19302TIP3    H279322   1.272   2.197  16.224  1.3984 -1.5744 -0.3274
19303TIP3   OH279323   1.213   6.159  17.095 -0.0530 -0.5135  0.6258
19303TIP3    H179324   1.227   6.089  17.030 -0.5061  0.7397 -0.8442
19303TIP3    H279325   1.190   6.112  17.175 -0.1061 -2.0817 -0.2778
19304TIP3   OH279326   6.392   6.483  11.533 -0.2203  0.3116  0.1062
19304TIP3    H179327   6.327   6.434  11.483  1.5397  1.0742 -3.0860
19304TIP3    H279328   6.371   6.465  11.624 -3.6246 -1.0861 -0.8701
19305TIP3   OH279329   4.057   1.655  17.058  0.5053 -0.2459 -0.7104
19305TIP3    H179330   4.105   1.595  17.001  0.8454 -0.0186 -0.6631
19305TIP3    H279331   4.013   1.716  16.999 -0.4552 -0.9981 -0.7890
19306TIP3   OH279332   1.208   5.862   3.316 -0.1117  0.3997 -0.1127
19306TIP3    H179333   1.241   5.829   3.233 -0.7254  0.4728 -0.3914
19306TIP3    H279334   1.163   5.787   3.356 -0.2968  0.5131 -0.1045
19307TIP3   OH279335   4.213   3.793   0.312  0.0237  0.2236 -0.4564
19307TIP3    H179336   4.154   3.723   0.342 -2.2034  1.1580 -2.5657
19307TIP3    H279337   4.204   3.861   0.378 -1.4687  0.4566 -0.8797
19308TIP3   OH279338   0.832   5.718   0.916 -0.4107  0.3833  0.7347
19308TIP3    H179339   0.817   5.624   0.909 -3.1435  0.8991 -0.8416
19308TIP3    H279340   0.850   5.732   1.010  0.4754 -1.7210  0.9111
19309TIP3   OH279341   1.531   4.403   2.818 -0.5922  0.1362  0.2338
19309TIP3    H179342   1.597   4.375   2.881 -0.2177  0.9505  0.2073
19309TIP3    H279343   1.458   4.436   2.871 -1.1846 -1.1861  0.2731
19310TIP3   OH279344   4.543   4.449   0.354  0.3178  0.6937  0.1939
19310TIP3    H179345   4.562   4.518   0.291 -0.6002  0.6576 -0.1272
19310TIP3    H279346   4.628   4.408   0.371  0.7227  1.3371 -0.2738
19311TIP3   OH279347   6.178   0.921   4.060 -0.4474 -0.8807 -0.2977
19311TIP3    H179348   6.174   0.910   4.155 -0.0635 -0.2363 -0.2012
19311TIP3    H279349   6.246   0.988   4.046 -2.4491  1.1045 -0.8514
19312TIP3   OH279350   2.447   1.828  13.890  0.4735 -0.4352  0.4582
19312TIP3    H179351   2.369   1.837  13.835 -0.2582 -0.3775  1.4945
19312TIP3    H279352   2.482   1.917  13.896 -0.6062 -0.0819  1.7529
19313TIP3   OH279353   0.250   0.250  11.278  0.2397  0.0906  0.1163
19313TIP3    H179354   0.247   0.165  11.234  1.8403  0.9330 -1.6797
19313TIP3    H279355   0.192   0.306  11.226  0.1443  0.4242  0.5785
19314TIP3   OH279356   6.726   2.364  13.798 -0.2638  0.3735  0.1602
19314TIP3    H179357   6.737   2.408  13.883  1.4860 -0.4041  0.3731
19314TIP3    H279358   6.679   2.283  13.819  2.2825 -1.0128  0.8323
19315TIP3   OH279359   0.155   2.130   4.371 -0.7132 -0.2305  0.3527
19315TIP3    H179360   0.124   2.133   4.461 -0.5188 -0.9514  0.4494
19315TIP3    H279361   0.091   2.074   4.326 -0.1822 -0.7989  0.3011
19316TIP3   OH279362   0.388   4.659  14.684  0.6337  0.3022 -0.9697
19316TIP3    H179363   0.348   4.728  14.736  0.0158 -0.1357 -0.8514
19316TIP3    H279364   0.482   4.677  14.687  0.7886 -0.7579  1.8280
19317TIP3   OH279365   3.136   5.858  14.686  0.6704  0.2928  0.5487
19317TIP3    H179366   3.080   5.792  14.645  2.2637 -1.3985  1.0141
19317TIP3    H279367   3.115   5.853  14.779  0.4629  0.7599  0.5243
19318TIP3   OH279368   3.457   2.335   1.813 -0.1599  0.1623 -0.5398
19318TIP3    H179369   3.525   2.316   1.748 -0.6117  0.6559 -1.1619
19318TIP3    H279370   3.501   2.388   1.879  0.3881 -0.6318 -0.2637
19319TIP3   OH279371   3.379   4.982  12.825 -0.1154  0.1249  0.5446
19319TIP3    H179372   3.408   5.047  12.761 -1.3392 -0.8347 -1.0280
19319TIP3    H279373   3.458   4.960  12.874  1.2958 -0.6050 -1.9654
19320TIP3   OH279374   1.108   5.620  12.424 -0.2605 -0.1226  0.2441
19320TIP3    H179375   1.138   5.530  12.429  0.8862  0.1675 -1.0890
19320TIP3    H279376   1.013   5.614  12.433 -0.1140 -1.3581  1.1254
19321TIP3   OH279377   4.348   0.860  13.821 -0.8975 -0.1158  0.5271
19321TIP3    H179378   4.356   0.920  13.896 -1.7647  2.7035 -1.5519
19321TIP3    H279379   4.283   0.902  13.764  2.1345 -0.4749 -3.3740
19322TIP3   OH279380   0.913   4.216   4.128 -0.0363  0.1153  0.2558
19322TIP3    H179381   0.969   4.166   4.068 -0.3991 -0.3907  0.3377
19322TIP3    H279382   0.919   4.169   4.211  0.8436  1.0875  0.7562
19323TIP3   OH279383   6.667   4.851   2.310  0.4212 -0.3652  0.0625
19323TIP3    H179384   6.714   4.920   2.357  0.5931 -0.3970 -0.0604
19323TIP3    H279385   6.736   4.800   2.268  0.4690 -1.9819  2.0275
19324TIP3   OH279386   0.128   5.461   1.619  0.2195  0.2545 -0.8320
19324TIP3    H179387   0.068   5.534   1.632  0.9286  0.9711 -1.4573
19324TIP3    H279388   0.160   5.472   1.529  0.2165 -0.9163 -0.9830
19325TIP3   OH279389   4.295   3.591  11.741 -0.0135  0.2096  0.2789
19325TIP3    H179390   4.237   3.648  11.792 -0.7024 -0.1072 -0.1475
19325TIP3    H279391   4.260   3.594  11.652  1.3619  0.9892 -0.2449
19326TIP3   OH279392   1.823   1.989  15.879 -0.4116  0.0204  0.3735
19326TIP3    H179393   1.756   2.055  15.864 -0.3182 -0.2144 -1.1678
19326TIP3    H279394   1.792   1.912  15.831  0.3775 -0.4601  0.6312
19327TIP3   OH279395   2.103   2.360   3.278  0.0964 -0.1308  0.1132
19327TIP3    H179396   2.024   2.310   3.296 -0.8890  2.0969  2.2214
19327TIP3    H279397   2.074   2.431   3.221  0.8004 -0.0160 -0.1033
19328TIP3   OH279398   0.297   1.041  15.668 -0.2598 -0.0318 -0.0381
19328TIP3    H179399   0.294   1.090  15.587 -1.8182  1.5858  0.9771
19328TIP3    H279400   0.382   1.062  15.706  1.3572 -2.3766 -2.1546
19329TIP3   OH279401   1.806   5.802  14.733 -0.4260  0.1688  0.4553
19329TIP3    H179402   1.899   5.822  14.744 -0.0958 -1.5802  1.0628
19329TIP3    H279403   1.779   5.764  14.817 -1.3075 -0.6824 -0.1971
19330TIP3   OH279404   3.270   6.353  12.671 -0.4889  0.0221 -0.0530
19330TIP3    H179405   3.314   6.413  12.611 -0.8772 -0.5839 -0.9627
19330TIP3    H279406   3.194   6.321  12.622  0.0578 -1.6897  0.1656
19331TIP3   OH279407   4.039   4.384   1.842  0.0023  0.2458  0.0610
19331TIP3    H179408   3.956   4.426   1.866  0.3360  0.3818  0.9984
19331TIP3    H279409   4.054   4.410   1.751 -1.2161 -0.1588 -0.2595
19332TIP3   OH279410   0.733   3.065  10.456 -0.4382 -0.2202 -0.4347
19332TIP3    H179411   0.690   2.999  10.402  1.4687 -3.0092  1.2935
19332TIP3    H279412   0.796   3.107  10.398 -2.9306  1.4607 -2.0408
19333TIP3   OH279413   3.450   2.407   3.787 -0.1795  0.1921  0.0918
19333TIP3    H179414   3.527   2.371   3.744 -0.4369 -0.3882  0.1199
19333TIP3    H279415   3.427   2.343   3.854  2.5258  2.8752  3.7892
19334TIP3   OH279416   1.924   1.611  16.416  0.1592 -0.1249 -0.4570
19334TIP3    H179417   1.832   1.588  16.402  0.3051 -0.8106 -0.3146
19334TIP3    H279418   1.940   1.590  16.508  0.8639 -1.4566 -0.8649
19335TIP3   OH279419   0.466   6.334   1.219  0.3165 -0.1578  0.0131
19335TIP3    H179420   0.498   6.289   1.141 -2.1300 -0.4151 -0.8855
19335TIP3    H279421   0.442   6.421   1.188 -0.0276 -0.0311  0.6303
19336TIP3   OH279422   6.722   5.142   3.178 -0.0784 -0.1408 -0.2332
19336TIP3    H179423   6.640   5.102   3.208 -0.2898  0.5277  0.0667
19336TIP3    H279424   6.741   5.210   3.242  1.9106 -1.7702  0.9895
19337TIP3   OH279425   2.716   2.433  14.348 -0.2848 -0.8346 -0.4368
19337TIP3    H179426   2.729   2.423  14.254 -3.5807  1.4188 -1.2266
19337TIP3    H279427   2.730   2.526  14.364  0.5431 -1.2536  1.3918
19338TIP3   OH279428   6.490   0.142   0.752 -0.4692  0.2352  0.1661
19338TIP3    H179429   6.517   0.155   0.843  1.2616 -0.2245 -0.2620
19338TIP3    H279430   6.539   0.208   0.704 -0.4849 -0.2953 -0.5806
19339TIP3   OH279431   6.182   5.457  14.537  0.5313 -0.3594 -0.1267
19339TIP3    H179432   6.232   5.376  14.533 -0.6236 -1.0923  0.0867
19339TIP3    H279433   6.234   5.514  14.594  0.8453 -1.3125  0.5649
19340TIP3   OH279434   4.795   6.561  14.787 -0.4060 -0.1617  0.1865
19340TIP3    H179435   4.789   6.655  14.801 -1.3037 -0.2740  0.5961
19340TIP3    H279436   4.875   6.535  14.832 -0.3754  0.3420  0.4270
19341TIP3   OH279437   1.989   5.454   0.808  0.3719  0.0922 -0.6813
19341TIP3    H179438   2.032   5.480   0.890 -1.0184  1.2855 -0.3070
19341TIP3    H279439   1.982   5.359   0.814  1.8229  0.0022 -0.1878
19342TIP3   OH279440   6.611   4.020  11.327  0.1084 -0.0850 -0.7460
19342TIP3    H179441   6.583   3.938  11.287 -0.2848 -0.3223 -0.0182
19342TIP3    H279442   6.660   3.993  11.405 -1.1904  0.3535  0.2630
19343TIP3   OH279443   0.243   6.323  14.768 -0.3558  0.2172 -0.4926
19343TIP3    H179444   0.247   6.391  14.835 -1.5750  1.3353 -1.5130
19343TIP3    H279445   0.153   6.292  14.771 -0.3719  0.1462 -1.4789
19344TIP3   OH279446   0.513   6.665   3.064  0.2070 -0.0101  0.2096
19344TIP3    H179447   0.534   6.599   3.130 -0.4868  0.6309  1.0670
19344TIP3    H279448   0.472   6.615   2.993 -0.0047 -0.5527  0.7093
19345TIP3   OH279449   4.185   3.386  14.003 -0.0827  0.7975  0.6326
19345TIP3    H179450   4.185   3.350  14.092  2.5963  2.4813  1.3492
19345TIP3    H279451   4.186   3.481  14.015  0.6747  1.0337 -1.2001
19346TIP3   OH279452   3.197   6.775   5.976  0.0936 -0.0071 -0.0535
19346TIP3    H179453   3.130   6.784   6.044 -0.9395 -2.8783 -0.5964
19346TIP3    H279454   3.163   6.824   5.901  0.5327  1.9066  0.9582
19347TIP3   OH279455   2.117   0.390  15.404  0.0263  0.8531  0.3867
19347TIP3    H179456   2.037   0.415  15.357  0.5675  1.1705 -0.3612
19347TIP3    H279457   2.096   0.406  15.496 -1.2849 -0.4300  0.3349
19348TIP3   OH279458   2.445   5.415   0.112 -0.1505 -0.0314 -0.2347
19348TIP3    H179459   2.395   5.472   0.053 -1.0995 -1.1394 -0.5135
19348TIP3    H279460   2.379   5.365   0.159  0.6181  0.7255  1.6757
19349TIP3   OH279461   4.074   5.082  12.473  0.7383  0.5117 -0.2157
19349TIP3    H179462   4.155   5.131  12.460  0.2082  1.3617 -0.3388
19349TIP3    H279463   4.102   4.991  12.480  1.8758  0.9708  1.4913
19350TIP3   OH279464   4.679   6.030   5.651 -0.1206  0.9906  0.6012
19350TIP3    H179465   4.647   6.026   5.561  0.0608  0.1751  0.5762
19350TIP3    H279466   4.619   5.973   5.700  0.2825  0.7864  0.8537
19351TIP3   OH279467   6.315   4.334   3.454  0.0110  0.0691  0.1132
19351TIP3    H179468   6.312   4.325   3.549  2.2522  2.6113  0.4975
19351TIP3    H279469   6.364   4.257   3.425 -0.7071 -0.7383  0.9860
19352TIP3   OH279470   5.237   5.296  13.382  0.2425  0.5099  0.1043
19352TIP3    H179471   5.279   5.338  13.458  1.5678  0.0049 -0.3318
19352TIP3    H279472   5.182   5.227  13.420 -1.5218  2.2572  0.7883
19353TIP3   OH279473   5.006   2.625  15.199  0.5767 -0.1773  0.2786
19353TIP3    H179474   4.989   2.563  15.270 -0.7855  0.4185  0.4766
19353TIP3    H279475   5.072   2.685  15.236  0.2178 -0.1500  0.8867
19354TIP3   OH279476   0.468   1.218   3.425 -0.2070 -0.2231 -0.2419
19354TIP3    H179477   0.489   1.181   3.511 -1.4111 -2.5501 -0.8889
19354TIP3    H279478   0.501   1.308   3.429  1.9242 -1.0220  1.7898
19355TIP3   OH279479   1.780   4.403   4.004 -0.1761  0.4069 -0.1822
19355TIP3    H179480   1.687   4.426   4.002 -0.0495  0.8973 -0.4243
19355TIP3    H279481   1.813   4.443   4.085  0.0892  1.2636 -0.7071
19356TIP3   OH279482   2.811   5.746   1.041 -0.2990  0.2146 -0.1350
19356TIP3    H179483   2.765   5.783   0.966 -0.4813 -0.5373 -0.3971
19356TIP3    H279484   2.798   5.810   1.111  0.0558  1.0215 -0.8000
19357TIP3   OH279485   0.720   2.848   3.808 -0.2340 -0.2672 -0.2752
19357TIP3    H179486   0.673   2.907   3.748 -1.1172 -0.0557  0.6110
19357TIP3    H279487   0.718   2.894   3.892 -0.4742 -1.3340  0.3034
19358TIP3   OH279488   0.141   1.821  16.648  0.0002 -0.0941  0.3325
19358TIP3    H179489   0.187   1.888  16.698 -0.4434  2.2033 -2.2403
19358TIP3    H279490   0.208   1.755  16.628  0.7991  0.3404  1.4985
19359TIP3   OH279491   5.786   6.185  16.995  0.0768  0.4615  0.8480
19359TIP3    H179492   5.710   6.156  17.046 -1.9731  4.0632 -0.0063
19359TIP3    H279493   5.748   6.220  16.914  2.9174 -0.5041 -0.9501
19360TIP3   OH279494   4.062   3.979  13.705  0.4818 -0.1754 -0.1997
19360TIP3    H179495   4.095   3.889  13.693  2.5906  0.4315  0.7703
19360TIP3    H279496   3.990   3.970  13.768 -0.5010 -1.3940 -1.4682
19361TIP3   OH279497   5.447   6.242   0.138  0.2337  0.0066  0.0773
19361TIP3    H179498   5.454   6.336   0.118  0.0761 -0.0343 -0.1754
19361TIP3    H279499   5.353   6.228   0.149  0.4423  0.4382  2.8093
19362TIP3   OH279500   6.345   2.735   4.942 -0.0693  0.2669  0.0771
19362TIP3    H179501   6.358   2.728   5.036  2.3831  2.9819  0.0126
19362TIP3    H279502   6.390   2.659   4.905 -1.0840 -0.8315  1.0625
19363TIP3   OH279503   4.265   1.358  13.758 -0.2555  0.3545 -0.1019
19363TIP3    H179504   4.328   1.380  13.690  0.1004  1.0605  0.4424
19363TIP3    H279505   4.316   1.362  13.840 -1.1361  1.5227  0.4025
19364TIP3   OH279506   1.118   2.054  12.919 -0.0048 -0.2879  0.3380
19364TIP3    H179507   1.190   2.056  12.982  1.0177  0.9313 -0.8453
19364TIP3    H279508   1.043   2.087  12.967  1.0131  1.6743  0.6307
19365TIP3   OH279509   3.332   4.886   3.638  0.2378  0.4751 -0.0964
19365TIP3    H179510   3.344   4.826   3.565 -0.4826  0.7310 -0.4283
19365TIP3    H279511   3.411   4.876   3.691  1.3780  1.2870 -1.6197
19366TIP3   OH279512   2.888   6.074  13.502 -0.3406  0.2762  1.0665
19366TIP3    H179513   2.805   6.104  13.538 -1.3229 -1.2518  0.1330
19366TIP3    H279514   2.886   6.102  13.410  0.3755  0.6292  1.1547
19367TIP3   OH279515   3.362   4.016  13.974 -0.2931 -0.1870  0.2274
19367TIP3    H179516   3.409   4.024  14.057  0.4408 -1.0563 -0.1044
19367TIP3    H279517   3.375   4.101  13.931 -0.5187  0.2004  0.9109
19368TIP3   OH279518   0.178   4.734   2.683 -0.0834 -0.2721  0.4850
19368TIP3    H179519   0.248   4.798   2.670 -0.9317  0.7138  0.6829
19368TIP3    H279520   0.198   4.694   2.768  0.7785 -0.6970  0.0849
19369TIP3   OH279521   3.483   2.030   4.859 -0.0733 -0.5884  0.2111
19369TIP3    H179522   3.514   2.120   4.862 -1.2425  0.1240 -4.5948
19369TIP3    H279523   3.562   1.978   4.845  0.3806 -0.1336  1.0233
19370TIP3   OH279524   2.502   6.113   3.775  0.0564 -0.4322 -0.2868
19370TIP3    H179525   2.507   6.208   3.783 -1.7323 -0.3364  0.1066
19370TIP3    H279526   2.468   6.098   3.686 -0.4033 -0.6625 -0.0759
19371TIP3   OH279527   4.023   4.666   4.655  0.4523 -0.0154  0.6524
19371TIP3    H179528   4.026   4.571   4.642 -0.9472 -0.2085  1.6229
19371TIP3    H279529   3.976   4.677   4.738  0.7537  1.5255  0.6304
19372TIP3   OH279530   5.162   4.158   2.606  1.0270  0.3529  0.2999
19372TIP3    H179531   5.071   4.188   2.603  0.5566 -0.8677  1.8070
19372TIP3    H279532   5.201   4.190   2.525 -1.0909 -0.2354 -0.9778
19373TIP3   OH279533   2.878   0.424  14.004 -0.1923  0.7157 -0.3201
19373TIP3    H179534   2.815   0.484  14.044  0.3001  0.0770  1.4230
19373TIP3    H279535   2.840   0.337  14.015  0.0395  0.5051 -1.0867
19374TIP3   OH279536   2.153   3.971   1.222 -0.8113 -0.2263 -0.4309
19374TIP3    H179537   2.084   3.995   1.284 -0.6556 -0.3079 -0.2277
19374TIP3    H279538   2.153   4.043   1.158  0.5863  1.0263  0.9423
19375TIP3   OH279539   5.771   6.294   0.254 -0.3327 -0.1896  0.5290
19375TIP3    H179540   5.681   6.312   0.224  0.9219  1.3680 -2.5752
19375TIP3    H279541   5.814   6.380   0.252  1.7341 -1.2109  0.0953
19376TIP3   OH279542   0.610   1.292  16.798 -0.0893 -0.0723  0.5546
19376TIP3    H179543   0.655   1.364  16.754  0.0981 -0.1683  0.5870
19376TIP3    H279544   0.573   1.332  16.877  1.4263 -0.3394  1.4327
19377TIP3   OH279545   3.408   2.560  14.580  0.0548 -0.3900 -0.0035
19377TIP3    H179546   3.422   2.474  14.619 -0.3212 -1.5374 -2.3173
19377TIP3    H279547   3.363   2.542  14.497 -2.1392  2.2135  0.5601
19378TIP3   OH279548   5.928   0.104  13.680  0.3215 -0.4983  0.8760
19378TIP3    H179549   5.986   0.175  13.652  0.9607 -1.2682  0.2140
19378TIP3    H279550   5.969   0.070  13.760 -0.4235  0.3878  1.6589
19379TIP3   OH279551   3.317   1.008   0.844 -0.1847  0.0491  0.0434
19379TIP3    H179552   3.332   0.918   0.814  1.8658  1.0341 -2.0792
19379TIP3    H279553   3.290   0.999   0.935  0.8444 -2.6604  0.1196
19380TIP3   OH279554   4.247   3.045   0.597  0.0505  0.1684 -0.1894
19380TIP3    H179555   4.265   3.011   0.509  0.7108 -1.1072  0.4232
19380TIP3    H279556   4.332   3.075   0.629 -0.5884  2.8562 -0.8761
19381TIP3   OH279557   2.668   3.216   4.347 -0.0129  0.5492  0.2577
19381TIP3    H179558   2.763   3.225   4.339  0.0727 -0.3832  0.1987
19381TIP3    H279559   2.656   3.155   4.420 -0.5693  0.9403  0.4903
19382TIP3   OH279560   0.783   2.419   1.124  0.1245 -0.1549  0.0524
19382TIP3    H179561   0.776   2.327   1.101 -1.1469 -0.3539  1.1101
19382TIP3    H279562   0.696   2.441   1.159  1.0550  0.8641  1.8057
19383TIP3   OH279563   3.848   4.275  14.310  0.0781  0.3513  0.2754
19383TIP3    H179564   3.860   4.327  14.230  2.1513 -1.6290 -0.7571
19383TIP3    H279565   3.768   4.226  14.293  0.2916  0.2319 -0.4301
19384TIP3   OH279566   0.999   5.074   2.190  0.1756 -0.4159 -0.0259
19384TIP3    H179567   1.005   5.121   2.107  0.3760  0.4009  0.4380
19384TIP3    H279568   0.910   5.093   2.221 -0.1884 -1.4072 -0.4520
19385TIP3   OH279569   2.309   6.345   5.900 -0.2951  0.1853 -0.1095
19385TIP3    H179570   2.264   6.429   5.906 -1.1874 -0.0583 -2.6192
19385TIP3    H279571   2.383   6.360   5.843  0.2446 -0.4546  0.4085
19386TIP3   OH279572   2.276   4.156   5.681  0.4189  0.7053 -0.1374
19386TIP3    H179573   2.251   4.065   5.695  2.1741  0.5212  2.0778
19386TIP3    H279574   2.303   4.160   5.589 -1.1916 -0.6205 -0.6741
19387TIP3   OH279575   5.429   3.849  12.597 -0.1344  0.4229 -0.3431
19387TIP3    H179576   5.335   3.830  12.588 -0.3956  0.9640  0.9992
19387TIP3    H279577   5.433   3.916  12.666  1.2247  0.5815 -0.5640
19388TIP3   OH279578   6.777   2.345   4.212 -0.0165  0.3061 -0.4136
19388TIP3    H179579   6.709   2.318   4.274 -0.6187  1.0578 -0.7355
19388TIP3    H279580   6.842   2.275   4.217  0.4197  0.8189  1.7776
19389TIP3   OH279581   4.224   2.807  13.675  0.7204 -0.5558 -0.1641
19389TIP3    H179582   4.281   2.840  13.744 -0.2289 -0.8830  0.7876
19389TIP3    H279583   4.140   2.790  13.718 -0.5632  1.2913 -1.8207
19390TIP3   OH279584   6.133   3.878  11.851  0.1315  0.0535 -0.4961
19390TIP3    H179585   6.062   3.857  11.790 -0.3003 -0.3371  0.1405
19390TIP3    H279586   6.161   3.794  11.886  0.9424  0.2026 -0.7708
19391TIP3   OH279587   6.553   2.262   4.382  0.4211 -0.0842 -0.1290
19391TIP3    H179588   6.483   2.285   4.321 -0.1570  1.6642  1.1539
19391TIP3    H279589   6.521   2.184   4.427 -1.9627  2.1881  2.3278
19392TIP3   OH279590   5.721   3.000   4.142 -0.0996  0.5295  0.0272
19392TIP3    H179591   5.792   2.997   4.206  0.7584  0.3519 -0.9246
19392TIP3    H279592   5.645   2.968   4.189  0.8509 -1.0142  0.5436
19393TIP3   OH279593   2.145   5.518   2.565  0.0703 -0.3915  0.3585
19393TIP3    H179594   2.144   5.511   2.661 -0.0484  2.6582  0.6151
19393TIP3    H279595   2.089   5.594   2.546  1.4625  0.0802 -2.0318
19394TIP3   OH279596   4.412   6.422  11.617  0.2467  0.2264 -0.4726
19394TIP3    H179597   4.327   6.381  11.636 -0.0843  1.5748  1.0712
19394TIP3    H279598   4.473   6.349  11.611 -0.7280 -0.6552  0.0886
19395TIP3   OH279599   4.619   3.954  12.252 -0.1579 -0.7624  0.4414
19395TIP3    H179600   4.605   3.864  12.282  1.5232 -0.4964  2.1508
19395TIP3    H279601   4.702   3.951  12.205  0.7163  0.1525  1.8558
19396TIP3   OH279602   0.484   1.299   2.556  0.0780  0.1550  0.0419
19396TIP3    H179603   0.470   1.310   2.462 -0.1088  0.2971  0.0863
19396TIP3    H279604   0.501   1.388   2.588  0.4631  0.0665  0.0906
19397TIP3   OH279605   3.784   4.859   1.340  0.3802 -0.0632  0.2031
19397TIP3    H179606   3.847   4.790   1.363 -0.2469 -0.2836  1.2762
19397TIP3    H279607   3.827   4.940   1.365  0.9124 -0.0892 -0.5941
19398TIP3   OH279608   6.051   6.645  12.534 -0.0194  0.3483 -0.1873
19398TIP3    H179609   6.003   6.618  12.612 -1.6663  1.2981 -0.8574
19398TIP3    H279610   6.118   6.706  12.566 -0.4826  0.4924  0.5132
19399TIP3   OH279611   1.680   1.313   0.481 -0.0808  0.3596 -0.1448
19399TIP3    H179612   1.728   1.377   0.428 -0.9882  1.0874 -0.1138
19399TIP3    H279613   1.619   1.367   0.532 -1.8953 -0.6495 -1.2055
19400TIP3   OH279614   3.389   3.784   3.275  0.3575  0.6522  0.4314
19400TIP3    H179615   3.316   3.796   3.215  0.2491  1.3138  0.6895
19400TIP3    H279616   3.445   3.720   3.232 -1.3331 -1.3413  1.1229
19401TIP3   OH279617   2.600   0.792   5.349 -0.0528 -0.4800  0.0863
19401TIP3    H179618   2.505   0.779   5.340 -0.2356  0.6861  0.2203
19401TIP3    H279619   2.609   0.884   5.374  1.0914 -0.7170  0.5595
19402TIP3   OH279620   1.914   1.047  10.879  0.4144 -0.3204 -0.1829
19402TIP3    H179621   1.910   0.978  10.946  0.5467 -0.4245 -0.2808
19402TIP3    H279622   1.989   1.100  10.904 -1.7559  1.8904  1.9134
19403TIP3   OH279623   3.589   2.525   2.012 -0.8774 -0.0333 -0.0790
19403TIP3    H179624   3.661   2.584   1.991  0.7597 -1.5333  1.0709
19403TIP3    H279625   3.626   2.466   2.078 -2.4567 -2.2980 -1.1501
19404TIP3   OH279626   0.924   4.672   6.210 -0.2514 -0.7894  0.0344
19404TIP3    H179627   0.949   4.616   6.136  2.0136 -1.4412  1.2109
19404TIP3    H279628   0.885   4.612   6.273 -1.7253 -0.3141 -0.4028
19405TIP3   OH279629   4.214   4.814  14.349 -0.1767  0.1089 -0.2362
19405TIP3    H179630   4.190   4.745  14.410 -0.9722 -0.0081 -0.6857
19405TIP3    H279631   4.147   4.882  14.362 -0.0553  0.3027 -0.6103
19406TIP3   OH279632   2.436   5.161  13.477  0.0415  0.5118 -0.4670
19406TIP3    H179633   2.506   5.224  13.460  1.2066 -0.8243 -0.7535
19406TIP3    H279634   2.376   5.171  13.403 -0.5476  2.2997  0.2464
19407TIP3   OH279635   0.911   2.134   2.144 -0.9233 -0.8416 -0.1807
19407TIP3    H179636   0.858   2.178   2.211  0.1911  0.5806 -0.2198
19407TIP3    H279637   1.001   2.145   2.173 -0.4274 -0.2817 -1.8668
19408TIP3   OH279638   5.605   5.714   4.444  0.7257  0.1603  0.8215
19408TIP3    H179639   5.554   5.753   4.515  1.0022  1.3762  0.3605
19408TIP3    H279640   5.589   5.620   4.453  0.3167  0.3377  2.1525
19409TIP3   OH279641   6.673   4.917  10.730  0.2190 -0.4029  0.7240
19409TIP3    H179642   6.595   4.863  10.742 -0.4186  0.2274 -0.4597
19409TIP3    H279643   6.737   4.859  10.687 -1.1413  0.2650 -2.3850
19410TIP3   OH279644   2.672   3.566   1.366 -0.1239  0.0127  0.1747
19410TIP3    H179645   2.671   3.662   1.370 -1.3124 -0.0571  2.0851
19410TIP3    H279646   2.613   3.544   1.294 -0.2961  0.6890  0.1051
19411TIP3   OH279647   0.209   0.807  13.732  0.0113  0.1600  0.1111
19411TIP3    H179648   0.226   0.816  13.826  0.8701  1.6274 -0.1711
19411TIP3    H279649   0.175   0.892  13.706 -0.3393 -0.2894 -0.8877
19412TIP3   OH279650   2.951   3.101   1.205 -0.6301  0.0384  0.2215
19412TIP3    H179651   2.895   3.115   1.129  0.1065 -2.2180 -0.7726
19412TIP3    H279652   2.896   3.055   1.268 -0.2657 -1.1006 -0.2821
19413TIP3   OH279653   1.246   3.197   0.315 -0.3460 -0.0689  1.1067
19413TIP3    H179654   1.249   3.179   0.409  1.0159  0.7829  1.2278
19413TIP3    H279655   1.230   3.291   0.309 -0.6735 -0.1653  0.4859
19414TIP3   OH279656   4.699   1.909   6.569 -0.5520  0.1566  0.1613
19414TIP3    H179657   4.728   1.982   6.624 -1.7616 -1.7787  3.5323
19414TIP3    H279658   4.611   1.933   6.541 -0.3166  0.7201 -0.0913
19415TIP3   OH279659   6.755   6.783  12.667 -0.0148  0.1233  0.3115
19415TIP3    H179660   6.790   6.867  12.638  1.1846 -0.4717  0.0244
19415TIP3    H279661   6.828   6.740  12.711 -1.3322  0.3126  2.8019
19416TIP3   OH279662   4.138   1.867   5.180  0.1654 -0.7273  0.4278
19416TIP3    H179663   4.224   1.828   5.186 -0.0692 -1.0314  2.2045
19416TIP3    H279664   4.093   1.818   5.111  0.7218 -1.9106  0.8978
19417TIP3   OH279665   2.983   2.600  12.155 -0.6125 -0.5439 -0.1189
19417TIP3    H179666   2.969   2.507  12.173  1.2896 -0.9949 -0.8136
19417TIP3    H279667   2.980   2.605  12.059  0.6486 -0.1248 -0.1341
19418TIP3   OH279668   2.278   0.813  16.274  0.2857  0.2978 -0.1894
19418TIP3    H179669   2.352   0.800  16.332  1.5328  0.2720 -1.7497
19418TIP3    H279670   2.316   0.843  16.191 -1.0781 -2.8480 -2.0792
19419TIP3   OH279671   3.802   4.616  14.391 -0.2852 -0.3055  0.4889
19419TIP3    H179672   3.709   4.596  14.401 -0.2431 -0.8179 -0.1380
19419TIP3    H279673   3.814   4.700  14.437 -1.3813  0.5938 -0.8288
19420TIP3   OH279674   0.209   2.373  12.406 -0.3867  0.0933 -0.1207
19420TIP3    H179675   0.282   2.427  12.439  0.0231 -0.4713 -0.0888
19420TIP3    H279676   0.169   2.427  12.338 -0.0316  0.4735 -0.0375
19421TIP3   OH279677   0.570   5.337   3.323  0.0416  0.0927 -0.3432
19421TIP3    H179678   0.538   5.256   3.362  0.4941  0.4875  0.8774
19421TIP3    H279679   0.665   5.333   3.333 -0.0587  1.7797  1.8288
19422TIP3   OH279680   2.996   4.358  12.864 -0.5067  0.4263  0.2255
19422TIP3    H179681   3.085   4.353  12.899 -0.3930 -1.7142 -0.2567
19422TIP3    H279682   2.941   4.379  12.939  0.0869 -1.1483  1.1357
19423TIP3   OH279683   2.369   5.966  13.580  0.1589  0.1813  0.1842
19423TIP3    H179684   2.365   5.943  13.673 -0.0630  0.0094  0.1329
19423TIP3    H279685   2.315   6.045  13.573  0.1203  0.1551  0.1883
19424TIP3   OH279686   5.341   0.115  16.867 -0.1879  0.2386  0.7096
19424TIP3    H179687   5.263   0.164  16.892  1.1422  1.7648  1.9529
19424TIP3    H279688   5.378   0.164  16.794 -0.2607 -0.3645  0.2605
19425TIP3   OH279689   1.660   4.982  12.374  0.6257 -0.3487 -0.1868
19425TIP3    H179690   1.571   5.017  12.376  0.1461 -1.4523 -1.5708
19425TIP3    H279691   1.656   4.902  12.425  0.8593 -0.3473 -0.1644
19426TIP3   OH279692   6.039   1.623  12.588 -0.0001 -0.1171 -0.2987
19426TIP3    H179693   5.974   1.643  12.656  1.1114  1.0695  0.4523
19426TIP3    H279694   6.123   1.630  12.634  0.7061 -0.5399 -1.5195
19427TIP3   OH279695   4.412   1.713  15.440 -0.1759  0.3402  0.2327
19427TIP3    H179696   4.471   1.789  15.438 -1.4228  1.3151 -0.5878
19427TIP3    H279697   4.460   1.646  15.488  0.8098  1.7791  1.2903
19428TIP3   OH279698   1.870   0.730  13.303 -0.3554 -0.6063 -0.3048
19428TIP3    H179699   1.872   0.759  13.211 -1.9717  1.6714  0.3402
19428TIP3    H279700   1.847   0.809  13.352  0.6986 -1.7661  2.0936
19429TIP3   OH279701   0.689   2.616   2.591  0.2031 -0.2800  0.1602
19429TIP3    H179702   0.767   2.577   2.631 -0.1808 -0.4926  0.7150
19429TIP3    H279703   0.646   2.542   2.546 -0.6127 -0.5496  1.3512
19430TIP3   OH279704   5.473   2.766   1.746  0.1633 -0.4084  0.2745
19430TIP3    H179705   5.402   2.710   1.716  0.3837 -0.3314 -0.3918
19430TIP3    H279706   5.470   2.760   1.842  0.4402 -1.8678  0.1919
19431TIP3   OH279707   4.440   1.880  16.142 -0.5904  0.1156 -0.5034
19431TIP3    H179708   4.506   1.948  16.132  1.5871 -1.7841  0.4773
19431TIP3    H279709   4.482   1.801  16.109 -2.2628 -1.2199  0.4574
19432TIP3   OH279710   3.908   1.870   1.866  0.0044  0.1511 -0.3431
19432TIP3    H179711   3.944   1.827   1.944 -0.3290 -1.1391 -0.8832
19432TIP3    H279712   3.828   1.821   1.846  0.6884 -0.2805 -2.1519
19433TIP3   OH279713   5.885   5.988  12.803 -0.3594  0.6678  0.0014
19433TIP3    H179714   5.818   5.920  12.810  0.2948  0.0767  0.4768
19433TIP3    H279715   5.916   5.982  12.713 -0.2444  0.2927  0.0686
19434TIP3   OH279716   6.073   0.872  14.486  0.1251  0.4450 -0.1212
19434TIP3    H179717   6.031   0.944  14.531  1.5839  0.2279  1.6506
19434TIP3    H279718   6.138   0.913  14.429  1.2538  0.5304  1.2088
19435TIP3   OH279719   0.081   1.033  15.353 -0.5763 -0.3227  0.4190
19435TIP3    H179720   0.005   1.091  15.346  0.1325  0.5793  0.1200
19435TIP3    H279721   0.149   1.088  15.391 -0.2722 -1.3171  1.3429
19436TIP3   OH279722   3.216   0.237   2.792 -0.4725  0.5820 -0.0266
19436TIP3    H179723   3.154   0.214   2.861 -1.8038  2.6119 -0.5023
19436TIP3    H279724   3.260   0.315   2.825  1.6735 -0.6612  0.1785
19437TIP3   OH279725   4.429   4.754  17.182  0.0146 -0.2008 -0.9393
19437TIP3    H179726   4.437   4.810  17.105  1.3665 -0.7247 -1.2023
19437TIP3    H279727   4.455   4.810  17.255 -0.2072 -0.0238 -0.9943
19438TIP3   OH279728   2.764   3.155   5.508  0.0739 -0.6476  0.2456
19438TIP3    H179729   2.768   3.182   5.600  1.1855  0.3259 -0.0806
19438TIP3    H279730   2.816   3.075   5.504  0.1487 -0.6086  0.4366
19439TIP3   OH279731   3.118   4.363   1.208  0.7585 -0.4570 -0.3278
19439TIP3    H179732   3.113   4.347   1.302  1.2253  0.1367 -0.2049
19439TIP3    H279733   3.033   4.402   1.186  0.6366 -0.6246 -0.1610
19440TIP3   OH279734   1.033   2.071   0.170 -0.8685  0.1107  0.0773
19440TIP3    H179735   0.939   2.078   0.186 -1.0325 -1.6959 -0.0041
19440TIP3    H279736   1.058   2.156   0.133 -2.3628  0.7747  0.5622
19441TIP3   OH279737   2.391   6.101   4.863  0.1412  0.4456 -0.3557
19441TIP3    H179738   2.430   6.184   4.888 -1.5375  0.6777  1.5650
19441TIP3    H279739   2.390   6.103   4.767  3.7648  0.8922 -0.4507
19442TIP3   OH279740   6.328   5.958  15.890 -0.0321 -0.1914 -0.6656
19442TIP3    H179741   6.308   6.023  15.823  0.5723 -0.3936 -1.0458
19442TIP3    H279742   6.404   5.993  15.936 -1.0973  0.4668  0.6310
19443TIP3   OH279743   5.901   1.458  14.083  0.1136 -0.2409  0.5161
19443TIP3    H179744   5.977   1.402  14.066  0.5545  0.3086  0.6819
19443TIP3    H279745   5.903   1.523  14.012  0.3777  0.3863  1.0938
19444TIP3   OH279746   2.470   5.509  11.076  0.7774 -0.0485  1.1129
19444TIP3    H179747   2.412   5.577  11.041  1.7417  1.2402  1.9587
19444TIP3    H279748   2.532   5.492  11.005  1.2224  0.7843  1.2908
19445TIP3   OH279749   1.933   5.787  16.675  0.0272  0.2860 -0.1202
19445TIP3    H179750   1.954   5.744  16.592 -0.9745  0.7337 -0.6127
19445TIP3    H279751   1.884   5.865  16.650 -1.5579 -0.3372  0.9398
19446TIP3   OH279752   5.834   1.448   0.700  0.3595 -1.1976 -0.1603
19446TIP3    H179753   5.899   1.472   0.634  1.1600  1.3810  1.5026
19446TIP3    H279754   5.885   1.420   0.775 -0.3249  1.6977  1.4815
19447TIP3   OH279755   0.901   6.220   2.925 -0.5821 -0.0173 -0.7313
19447TIP3    H179756   0.996   6.225   2.908 -0.4553 -0.9752 -0.3355
19447TIP3    H279757   0.866   6.170   2.852 -0.4819 -1.4392  0.1721
19448TIP3   OH279758   4.688   0.512   1.450  0.4685 -0.0572 -0.2077
19448TIP3    H179759   4.688   0.580   1.517  0.0657  1.3539 -1.6059
19448TIP3    H279760   4.605   0.465   1.463  1.5659 -1.5026  1.9242
19449TIP3   OH279761   5.795   6.757   2.540 -0.1587  0.4288 -0.2236
19449TIP3    H179762   5.801   6.753   2.445 -1.2855  0.5639 -0.3030
19449TIP3    H279763   5.883   6.732   2.571  0.7247  2.0943 -1.3231
19450TIP3   OH279764   0.362   0.541   3.148 -0.1830 -0.2306  0.1439
19450TIP3    H179765   0.406   0.594   3.215  0.7888 -0.8494 -0.0063
19450TIP3    H279766   0.412   0.460   3.144 -0.5976 -0.4414 -0.9099
19451TIP3   OH279767   6.383   5.848   5.146  0.6745 -0.6817 -0.1407
19451TIP3    H179768   6.363   5.819   5.235  1.8835 -3.9872 -0.8596
19451TIP3    H279769   6.297   5.861   5.106  0.1093  1.6699  1.6945
19452TIP3   OH279770   3.271   5.448  11.119  0.1999 -0.2697 -0.1455
19452TIP3    H179771   3.218   5.370  11.101  1.0663 -0.7215 -0.7719
19452TIP3    H279772   3.280   5.491  11.034  1.0894 -0.3643 -0.1013
19453TIP3   OH279773   0.250   3.345  12.022  0.1936  0.3730 -0.4420
19453TIP3    H179774   0.332   3.363  12.067 -0.9350  1.1851  1.3402
19453TIP3    H279775   0.208   3.430  12.014 -0.2074  0.0585 -1.9366
19454TIP3   OH279776   2.199   2.831  15.600  0.6435  0.7241  0.2955
19454TIP3    H179777   2.243   2.887  15.536 -0.2233  1.3370  0.2302
19454TIP3    H279778   2.150   2.768  15.547  0.3872  0.8734  0.3530
19455TIP3   OH279779   0.813   5.425   6.425 -0.0947  0.0255  0.0420
19455TIP3    H179780   0.884   5.486   6.405 -0.0284  0.5432  1.8080
19455TIP3    H279781   0.755   5.473   6.482 -1.2815 -0.7951 -0.4493
19456TIP3   OH279782   6.427   1.316   4.792  0.0154  0.4393 -0.6274
19456TIP3    H179783   6.522   1.315   4.779 -0.1691 -0.0365 -1.9643
19456TIP3    H279784   6.411   1.242   4.851  0.4601  0.4659 -0.4679
19457TIP3   OH279785   0.162   0.199  12.963  0.4213  0.1896 -0.2438
19457TIP3    H179786   0.073   0.200  12.998  0.8046  0.7349  0.7442
19457TIP3    H279787   0.159   0.136  12.891 -0.8550  0.4955 -0.4800
19458TIP3   OH279788   0.383   0.694   3.886  0.4549 -0.3346  0.5047
19458TIP3    H179789   0.307   0.641   3.908  1.8392 -1.9787  1.3763
19458TIP3    H279790   0.410   0.663   3.799  0.2300  0.1538  0.2559
19459TIP3   OH279791   6.215   4.167   0.970  0.0276  0.9188 -0.0540
19459TIP3    H179792   6.139   4.111   0.956  0.4427  0.3770 -0.1501
19459TIP3    H279793   6.224   4.218   0.889 -1.5257  2.5606  0.7571
19460TIP3   OH279794   4.443   1.372  12.902  0.3262  0.0508 -0.0106
19460TIP3    H179795   4.485   1.457  12.887  0.8016 -0.2008 -0.1425
19460TIP3    H279796   4.386   1.359  12.827  0.3358  0.2090 -0.0447
19461TIP3   OH279797   5.912   1.325  16.482 -0.2918 -0.0194  0.5611
19461TIP3    H179798   5.925   1.266  16.556  0.5351 -0.3602  0.1506
19461TIP3    H279799   5.860   1.397  16.517  2.3266  1.1724  2.1607
19462TIP3   OH279800   3.959   1.288  12.282  0.1481 -0.5258 -0.0215
19462TIP3    H179801   3.913   1.235  12.217 -0.6677 -1.3692  1.2167
19462TIP3    H279802   3.978   1.227  12.353  1.1387  0.3563  0.4777
19463TIP3   OH279803   5.926   3.114  11.689 -0.0920 -0.5945 -0.7250
19463TIP3    H179804   5.848   3.149  11.646  0.4649 -0.2882 -1.4923
19463TIP3    H279805   5.986   3.188  11.693 -0.7740 -0.1318  2.1880
19464TIP3   OH279806   4.777   4.757  15.232  0.4376  0.0452 -0.2378
19464TIP3    H179807   4.713   4.802  15.177  0.6345  0.3721 -0.2036
19464TIP3    H279808   4.856   4.812  15.226  0.9284 -0.7034 -0.8143
19465TIP3   OH279809   0.839   3.275  16.377  0.1160 -0.2887  0.1820
19465TIP3    H179810   0.768   3.266  16.441  1.0400  1.2426  1.4550
19465TIP3    H279811   0.794   3.293  16.294 -1.0229 -0.6991  0.6950
19466TIP3   OH279812   5.397   1.005  15.834 -0.0131  0.5151  0.4837
19466TIP3    H179813   5.371   0.913  15.823  1.6357  0.0382  0.4310
19466TIP3    H279814   5.344   1.052  15.769 -0.1801 -0.5205 -0.1565
19467TIP3   OH279815   5.102   0.898  16.342 -0.0607  0.1307 -0.5156
19467TIP3    H179816   5.126   0.954  16.268 -1.8147 -0.7786 -1.8227
19467TIP3    H279817   5.006   0.899  16.343 -0.0528  0.3754  1.9689
19468TIP3   OH279818   0.289   6.572  13.948  0.6459  0.6294 -0.6071
19468TIP3    H179819   0.300   6.478  13.960  3.2348  0.7219 -2.0358
19468TIP3    H279820   0.366   6.611  13.989 -0.3493  2.1452 -0.1199
19469TIP3   OH279821   5.870   4.671  17.079  0.4115  0.0781 -0.4803
19469TIP3    H179822   5.801   4.694  17.141  0.0707 -0.6371 -0.5902
19469TIP3    H279823   5.943   4.729  17.101 -1.4514  3.3766 -2.6978
19470TIP3   OH279824   4.982   1.325  17.145  0.3766  0.0720  0.1001
19470TIP3    H179825   5.017   1.243  17.110 -0.0526  0.1759 -0.5874
19470TIP3    H279826   5.057   1.385  17.145  0.1319  0.4163 -1.7555
19471TIP3   OH279827   6.442   1.512  16.137 -0.1867  0.2426  0.1481
19471TIP3    H179828   6.503   1.573  16.180 -1.0413  0.8672  0.4894
19471TIP3    H279829   6.356   1.552  16.149 -0.7988 -1.1938  0.6384
19472TIP3   OH279830   3.376   0.598   0.371  0.0865  0.1714  0.1891
19472TIP3    H179831   3.387   0.516   0.324 -1.0773 -1.0615  1.9851
19472TIP3    H279832   3.299   0.584   0.426 -0.4414  2.6423  0.1670
19473TIP3   OH279833   1.012   5.958   5.005  0.1047  0.1109 -0.0097
19473TIP3    H179834   1.105   5.971   5.024  0.1161  0.7827 -0.4919
19473TIP3    H279835   0.986   6.038   4.959 -0.8083  0.0965  0.4757
19474TIP3   OH279836   4.205   5.842   0.454 -0.1760  0.1841  0.0037
19474TIP3    H179837   4.142   5.841   0.382 -0.6935 -3.7349  0.4040
19474TIP3    H279838   4.275   5.782   0.425  0.2630 -0.3913  2.1751
19475TIP3   OH279839   4.994   2.282   0.231  0.3501  0.0263 -0.5735
19475TIP3    H179840   5.013   2.375   0.243  0.1491  0.1436 -1.1773
19475TIP3    H279841   4.970   2.251   0.319  0.3653  0.5527 -0.3841
19476TIP3   OH279842   0.674   0.983   3.584  0.2914  0.8180  0.0743
19476TIP3    H179843   0.714   0.972   3.670 -1.0719  1.7302  0.8552
19476TIP3    H279844   0.583   0.956   3.596  0.4194 -0.3822 -1.4432
19477TIP3   OH279845   0.250   6.549  14.357  0.5461  0.1015 -0.0351
19477TIP3    H179846   0.228   6.457  14.373 -1.0340  0.4546 -0.0993
19477TIP3    H279847   0.314   6.571  14.424 -1.4875 -0.1500  2.0681
19478TIP3   OH279848   3.777   6.625  12.248 -0.0376  0.8859 -0.6018
19478TIP3    H179849   3.872   6.617  12.256  0.0087  3.0662  1.2857
19478TIP3    H279850   3.764   6.693  12.182 -0.2976  1.0101 -0.4206
19479TIP3   OH279851   4.368   4.096   6.212 -0.2605  0.2756  0.7322
19479TIP3    H179852   4.427   4.102   6.287  0.8772 -0.8201 -0.0448
19479TIP3    H279853   4.330   4.008   6.219 -0.4030  0.2947  0.2229
19480TIP3   OH279854   5.843   1.688   5.416  0.3318  0.6646 -0.3034
19480TIP3    H179855   5.809   1.627   5.350  0.5356  0.8639 -0.5883
19480TIP3    H279856   5.883   1.759   5.366  1.9603  0.0061  0.0138
19481TIP3   OH279857   6.783   3.638  15.578 -0.0457  0.5328  0.4537
19481TIP3    H179858   6.802   3.572  15.510  1.0461 -0.0693  1.3200
19481TIP3    H279859   6.715   3.597  15.632  1.2073 -0.2622  1.4752
19482TIP3   OH279860   2.151   4.414   2.432  0.1892 -0.2731  0.7065
19482TIP3    H179861   2.120   4.463   2.356  2.3271  1.4067  0.8788
19482TIP3    H279862   2.072   4.375   2.469 -0.9557 -0.8233 -2.1361
19483TIP3   OH279863   2.354   3.103  16.005 -0.6437 -0.0725 -0.4451
19483TIP3    H179864   2.386   3.193  16.006  0.1911 -0.3366 -1.4759
19483TIP3    H279865   2.272   3.105  16.055  1.7126  0.3261  3.5671
19484TIP3   OH279866   5.151   3.394   6.729  0.5379 -0.5208 -0.2733
19484TIP3    H179867   5.160   3.313   6.779  0.3392  0.2807  1.0942
19484TIP3    H279868   5.102   3.369   6.651 -2.5552 -1.0714  1.7765
19485TIP3   OH279869   5.713   5.140   3.116  0.2888  0.3850  0.2810
19485TIP3    H179870   5.699   5.097   3.031  0.3485  2.0219 -0.5774
19485TIP3    H279871   5.763   5.075   3.167 -0.0262 -0.7489 -0.8103
19486TIP3   OH279872   1.973   4.149   1.672  0.3758  0.0943 -0.6521
19486TIP3    H179873   2.040   4.121   1.735 -0.9010  2.2624  1.7380
19486TIP3    H279874   1.944   4.067   1.630  0.9920 -1.4528  1.8555
19487TIP3   OH279875   1.277   5.846   3.691  0.4370  0.3950 -0.1712
19487TIP3    H179876   1.194   5.885   3.716  0.3022  0.0548 -0.0812
19487TIP3    H279877   1.324   5.916   3.646 -0.2262  0.3532 -0.9411
19488TIP3   OH279878   6.648   0.438   4.023 -0.2397  0.1132 -0.3742
19488TIP3    H179879   6.581   0.502   3.998 -1.2561 -0.7915 -0.0381
19488TIP3    H279880   6.608   0.388   4.095  1.2235  0.2712  0.5747
19489TIP3   OH279881   2.639   5.944  15.047 -0.0022  0.2365  0.0157
19489TIP3    H179882   2.589   5.949  14.965  4.7705 -0.8435 -3.1457
19489TIP3    H279883   2.675   6.033  15.058 -0.4045  0.3037  0.7952
19490TIP3   OH279884   4.532   6.546  14.971  0.1813 -0.4840 -0.9672
19490TIP3    H179885   4.561   6.527  15.061  0.5493 -2.1395 -1.4171
19490TIP3    H279886   4.613   6.552  14.920 -0.0501  0.0144 -1.2786
19491TIP3   OH279887   4.431   1.649   2.207 -0.2662  0.3983 -0.8319
19491TIP3    H179888   4.513   1.657   2.158 -0.5252  2.0855 -1.0308
19491TIP3    H279889   4.379   1.586   2.158  0.3012  0.5135 -1.5858
19492TIP3   OH279890   2.763   6.364  12.818  0.4326  0.2441 -0.0507
19492TIP3    H179891   2.787   6.374  12.725  1.2059 -0.2553  0.0899
19492TIP3    H279892   2.843   6.333  12.860 -0.5874 -1.9930  0.3330
19493TIP3   OH279893   1.106   6.269  14.815 -0.2603  0.0355  0.1986
19493TIP3    H179894   1.132   6.177  14.826 -0.5767  0.1502  2.0565
19493TIP3    H279895   1.114   6.307  14.902 -0.3352  1.7395 -0.5109
19494TIP3   OH279896   0.884   4.008  11.448  0.0647 -0.5795 -0.4443
19494TIP3    H179897   0.939   3.970  11.380 -0.6955 -0.7290 -0.9866
19494TIP3    H279898   0.809   4.046  11.400 -0.5472 -0.8146  0.3121
19495TIP3   OH279899   3.686   2.402   4.570 -0.3776 -0.1247  0.0510
19495TIP3    H179900   3.766   2.367   4.532 -1.7579 -1.4821 -1.7013
19495TIP3    H279901   3.703   2.496   4.579  1.3143 -0.3642 -0.5167
19496TIP3   OH279902   4.012   2.775  13.850 -0.9456  0.3543  0.2939
19496TIP3    H179903   3.990   2.865  13.825 -0.0397  0.7499  0.9111
19496TIP3    H279904   3.928   2.734  13.868 -1.5017  0.5855 -1.6140
19497TIP3   OH279905   0.495   3.065  15.893 -0.2427  0.4392  0.2184
19497TIP3    H179906   0.577   3.018  15.879 -0.5732 -0.3847  0.9772
19497TIP3    H279907   0.520   3.157  15.898  0.4655  0.3081 -0.8829
19498TIP3   OH279908   4.907   4.408  12.341 -0.6206  0.0053  0.1819
19498TIP3    H179909   4.872   4.494  12.318  1.4838  0.0433 -3.1160
19498TIP3    H279910   4.846   4.345  12.302 -1.9106 -0.0766  2.2138
19499TIP3   OH279911   3.035   0.777  14.852  0.0823 -0.3192 -0.2427
19499TIP3    H179912   3.085   0.723  14.791  2.0225  1.2658 -0.1139
19499TIP3    H279913   2.999   0.715  14.915  0.8129 -1.6396 -1.1045
19500TIP3   OH279914   0.030   5.909  12.621 -0.1749 -0.1078  0.0196
19500TIP3    H179915   0.000   5.989  12.578 -0.9589 -1.2732 -1.6617
19500TIP3    H279916   0.026   5.842  12.552  0.1305 -1.6673  1.4937
19501TIP3   OH279917   4.434   0.474  14.076  0.0377 -0.2600 -0.0181
19501TIP3    H179918   4.426   0.401  14.015  1.5682 -0.0115 -0.5497
19501TIP3    H279919   4.518   0.515  14.053 -0.3277  1.0554  0.9252
19502TIP3   OH279920   2.430   0.052   2.607 -0.1547  0.2601 -0.2378
19502TIP3    H179921   2.416  -0.003   2.530 -1.1064  0.1005  0.0326
19502TIP3    H279922   2.423  -0.008   2.681  0.0107  0.5388  0.0069
19503TIP3   OH279923   1.712   2.721  16.071 -0.4304 -0.1588  0.0532
19503TIP3    H179924   1.718   2.627  16.054  0.3320 -0.1947  0.5085
19503TIP3    H279925   1.675   2.727  16.159  2.6049 -0.1023  1.3802
19504TIP3   OH279926   4.222   4.311  13.237 -0.2168 -0.5612 -0.4128
19504TIP3    H179927   4.141   4.354  13.264  0.2628  0.5193 -0.6404
19504TIP3    H279928   4.247   4.357  13.157  0.7095 -0.7655 -0.2469
19505TIP3   OH279929   6.235   1.710  16.101 -0.1361  0.1422  0.0733
19505TIP3    H179930   6.179   1.737  16.028 -1.1565  1.0782  1.1779
19505TIP3    H279931   6.179   1.716  16.178  1.4360  0.9479  1.1959
19506TIP3   OH279932   3.013   4.738  12.403  0.1099  0.2238 -0.4302
19506TIP3    H179933   2.926   4.699  12.403  0.2111 -0.0637  1.7282
19506TIP3    H279934   3.069   4.671  12.364 -0.4857  0.0388 -0.9755
19507TIP3   OH279935   3.748   5.599  13.906  0.0963 -0.4803  0.3525
19507TIP3    H179936   3.773   5.595  13.814 -0.2810 -0.7914  0.2599
19507TIP3    H279937   3.677   5.664  13.909  0.1494 -0.4261  0.4304
19508TIP3   OH279938   4.739   5.385   6.628 -0.1741 -0.1491  0.7171
19508TIP3    H179939   4.712   5.330   6.702  0.0890 -0.2130  0.7679
19508TIP3    H279940   4.659   5.429   6.600 -0.0747  0.7024  1.7310
19509TIP3   OH279941   4.274   2.996  15.732  0.0824 -0.0776 -0.2213
19509TIP3    H179942   4.334   2.930  15.767  0.1277 -0.1922 -0.5108
19509TIP3    H279943   4.232   3.034  15.809 -1.0817 -1.5166 -0.1106
19510TIP3   OH279944   1.525   1.157  15.233 -0.1264  0.2324 -0.4063
19510TIP3    H179945   1.497   1.087  15.174  0.4750 -1.1843  0.9847
19510TIP3    H279946   1.611   1.130  15.265 -0.0516  1.4165  0.4424
19511TIP3   OH279947   2.638   4.655  13.618 -0.7799 -0.4171  0.2271
19511TIP3    H179948   2.664   4.716  13.549 -1.3618  0.6442  0.9402
19511TIP3    H279949   2.630   4.709  13.696 -0.8215 -1.4960  0.9760
19512TIP3   OH279950   6.431   0.610   0.697 -0.2967 -0.1931 -0.2450
19512TIP3    H179951   6.389   0.589   0.614  0.5508 -0.2837 -0.6554
19512TIP3    H279952   6.406   0.538   0.756  0.8428 -1.2740 -1.0353
19513TIP3   OH279953   2.564   5.532  13.615 -0.4913 -0.4031  0.1042
19513TIP3    H179954   2.576   5.623  13.587  0.2244 -1.0576 -1.8017
19513TIP3    H279955   2.626   5.521  13.687 -1.2710  0.8821  0.9990
19514TIP3   OH279956   3.122   6.608   1.108 -0.4448 -0.3856 -0.1943
19514TIP3    H179957   3.176   6.652   1.174 -1.3534 -0.1565  0.4205
19514TIP3    H279958   3.082   6.535   1.156  1.6484 -2.3956 -1.3937
19515TIP3   OH279959   2.854   2.181   3.385  0.0405  0.5375  0.1462
19515TIP3    H179960   2.895   2.147   3.305 -0.6937  0.6359 -0.2806
19515TIP3    H279961   2.824   2.269   3.360 -0.4422  0.4589  0.4471
19516TIP3   OH279962   2.876   3.720   3.705  0.6891  0.4469 -0.2094
19516TIP3    H179963   2.901   3.806   3.737 -1.0370  0.7467  0.4122
19516TIP3    H279964   2.784   3.711   3.730  0.6455 -1.2804 -0.8993
19517TIP3   OH279965   4.435   3.544   5.301  0.1271 -0.1439  0.4060
19517TIP3    H179966   4.497   3.488   5.254 -0.2514 -0.8362  0.7188
19517TIP3    H279967   4.425   3.501   5.386 -2.7224 -1.4443 -0.5273
19518TIP3   OH279968   0.181   1.456  15.741 -0.7250 -0.0850  0.2335
19518TIP3    H179969   0.219   1.510  15.672 -0.4622 -1.4466 -0.7151
19518TIP3    H279970   0.086   1.461  15.726 -0.6081 -1.4535 -1.0775
19519TIP3   OH279971   2.318   0.974   2.067 -0.0975 -0.4696  0.2084
19519TIP3    H179972   2.314   0.883   2.037  0.3475 -1.1234  2.0454
19519TIP3    H279973   2.395   1.010   2.023 -0.7357 -0.7324 -1.1504
19520TIP3   OH279974   2.118   5.369  13.483 -0.1809  0.1272  0.3632
19520TIP3    H179975   2.055   5.311  13.440  0.3369 -0.4325  0.3461
19520TIP3    H279976   2.091   5.370  13.575 -2.1800  2.4894 -0.1881
19521TIP3   OH279977   3.061   0.964   5.119  1.0959 -0.0761 -0.4830
19521TIP3    H179978   3.155   0.975   5.105  1.2138  1.2216  1.2393
19521TIP3    H279979   3.049   0.972   5.213 -0.9432  1.3905 -0.8309
19522TIP3   OH279980   4.686   3.391  15.381 -0.6486 -0.6344  0.1202
19522TIP3    H179981   4.749   3.451  15.341 -0.9261 -0.6679 -0.3753
19522TIP3    H279982   4.601   3.419  15.347 -1.1125  0.4851  2.1159
19523TIP3   OH279983   3.822   4.950   3.773 -0.1818 -0.0756 -0.2197
19523TIP3    H179984   3.803   4.872   3.720  0.3137 -0.2966 -0.0809
19523TIP3    H279985   3.896   4.923   3.828 -1.3455 -0.1760  1.3121
19524TIP3   OH279986   0.051   2.258  16.017  0.0282 -0.3209 -0.0697
19524TIP3    H179987   0.089   2.269  16.104  0.7503  0.3553 -0.4659
19524TIP3    H279988   0.001   2.338  16.002 -1.6557 -1.2397  0.4763
19525TIP3   OH279989   4.918   2.018  11.222 -0.1469 -0.2587 -0.0959
19525TIP3    H179990   4.928   2.110  11.248 -1.9141  0.3876 -1.6465
19525TIP3    H279991   4.886   1.975  11.301  0.9426  0.3953  0.7192
19526TIP3   OH279992   5.070   4.842  13.502 -0.5758  0.2648 -0.6931
19526TIP3    H179993   5.012   4.775  13.539  0.2087 -0.2090 -0.2963
19526TIP3    H279994   5.142   4.792  13.462  0.7187  0.8964  0.7919
19527TIP3   OH279995   3.284   0.251  11.673 -0.0449  0.2212  0.4678
19527TIP3    H179996   3.219   0.238  11.742 -1.1212  0.5372 -0.4871
19527TIP3    H279997   3.282   0.345  11.654 -0.9451 -0.1130 -1.1517
19528TIP3   OH279998   2.887   6.599  13.148 -0.0957 -0.2329  0.1714
19528TIP3    H179999   2.825   6.670  13.166 -0.5837 -0.2325 -1.4009
19528TIP3    H280000   2.862   6.529  13.208 -1.0006  0.1322  0.2220
19529TIP3   OH280001   6.269   2.699   2.430  0.3767 -0.2640  0.0151
19529TIP3    H180002   6.299   2.784   2.397 -0.3907  0.3550  0.8922
19529TIP3    H280003   6.345   2.642   2.422  0.7423  0.3587 -1.0925
19530TIP3   OH280004   1.532   6.618   1.581 -0.0357  0.1849 -0.4406
19530TIP3    H180005   1.610   6.673   1.573  0.1259 -0.0741 -0.6610
19530TIP3    H280006   1.462   6.679   1.605  0.4428  0.2579  0.8216
19531TIP3   OH280007   1.943   2.071   1.529  0.6488  0.3372 -0.3633
19531TIP3    H180008   1.903   2.086   1.443 -1.3422  1.0454  0.6582
19531TIP3    H280009   1.951   2.159   1.567  0.2198 -0.0879  0.7354
19532TIP3   OH280010   4.285   0.110  13.299 -0.6069  0.4578  0.1519
19532TIP3    H180011   4.336   0.188  13.320  1.9710 -1.1748  0.1691
19532TIP3    H280012   4.341   0.061  13.239 -2.9862 -0.5024 -1.3614
19533TIP3   OH280013   0.526   6.179   5.984 -0.2565 -0.5587 -0.5930
19533TIP3    H180014   0.489   6.170   5.896  0.6728 -2.1668 -0.8532
19533TIP3    H280015   0.549   6.089   6.009 -3.7394 -0.6541  2.7598
19534TIP3   OH280016   1.210   4.905  13.226  0.3746  0.1818 -0.5524
19534TIP3    H180017   1.225   4.834  13.163 -3.0500 -2.0199  0.9538
19534TIP3    H280018   1.122   4.936  13.206 -0.3373  0.1791  2.3984
19535TIP3   OH280019   3.226   3.338   1.027 -0.0332  0.4755  0.2946
19535TIP3    H180020   3.212   3.262   1.083  0.0577  0.8763  0.8636
19535TIP3    H280021   3.218   3.304   0.938  0.3588 -0.2726  0.5400
19536TIP3   OH280022   3.832   2.591  15.790  0.2250  0.5410  0.0976
19536TIP3    H180023   3.770   2.624  15.725  1.3386  0.7239 -0.9111
19536TIP3    H280024   3.780   2.577  15.869 -0.6317  2.9834  0.0047
19537TIP3   OH280025   1.914   0.591   5.445  0.5280  0.3136  0.1661
19537TIP3    H180026   1.895   0.503   5.414  0.3300 -0.0669  1.3421
19537TIP3    H280027   1.947   0.637   5.368 -0.6004 -0.4058 -0.7682
19538TIP3   OH280028   1.619   1.193   4.627 -0.4801 -0.3387  0.2366
19538TIP3    H180029   1.638   1.261   4.692  0.5023 -0.5956  0.2172
19538TIP3    H280030   1.545   1.145   4.665  0.1363 -0.5406  1.2093
19539TIP3   OH280031   4.519   3.057   0.682 -0.2094 -0.1039  0.1671
19539TIP3    H180032   4.538   2.972   0.643  0.4321  0.9543 -1.8877
19539TIP3    H280033   4.554   3.051   0.771  0.3578 -1.7821 -0.1608
19540TIP3   OH280034   2.470   0.689  16.425  0.1442 -0.2388  0.6768
19540TIP3    H180035   2.529   0.662  16.354  2.7503  0.2910  2.5713
19540TIP3    H280036   2.469   0.614  16.485 -1.5473 -0.4422  0.4078
19541TIP3   OH280037   1.029   3.615   0.612  0.2640  0.4565 -0.6121
19541TIP3    H180038   0.951   3.640   0.663  0.1404 -0.6639 -0.2464
19541TIP3    H280039   1.081   3.695   0.607  0.4913  0.4782  1.6545
19542TIP3   OH280040   0.706   1.748  15.359  0.1735  0.1740  0.2133
19542TIP3    H180041   0.664   1.748  15.445 -1.3811  1.9785 -0.5083
19542TIP3    H280042   0.720   1.656  15.339 -2.1520 -0.4017  1.1194
19543TIP3   OH280043   3.083   0.039  11.483 -0.6429 -0.1330 -0.5643
19543TIP3    H180044   3.040  -0.005  11.410 -0.4727  0.3164 -0.9352
19543TIP3    H280045   3.152  -0.020  11.511 -0.0570  0.1434 -1.4182
19544TIP3   OH280046   3.026   2.801   0.571  0.1963 -0.5467  0.2006
19544TIP3    H180047   2.972   2.747   0.513  2.2321 -1.1912 -1.1639
19544TIP3    H280048   3.084   2.737   0.614  0.4305  0.2096  1.0051
19545TIP3   OH280049   6.194   5.214  12.550 -0.3987  0.2037 -0.3491
19545TIP3    H180050   6.172   5.265  12.628 -0.8254  2.2271 -1.7431
19545TIP3    H280051   6.109   5.186  12.515 -0.2610  0.1674 -0.6554
19546TIP3   OH280052   4.199   5.563  16.364 -0.0388 -0.2283  0.4154
19546TIP3    H180053   4.254   5.485  16.370 -0.3795 -0.4943  0.1050
19546TIP3    H280054   4.131   5.551  16.430  0.9233  0.6307  1.5871
19547TIP3   OH280055   0.403   2.065  16.976 -0.2725 -0.4709 -0.2949
19547TIP3    H180056   0.453   1.997  17.021  1.0962 -0.8601 -2.3115
19547TIP3    H280057   0.453   2.146  16.992 -0.6540 -0.3412  0.2227
19548TIP3   OH280058   2.203   0.245   1.756  0.6256  0.1856  0.3431
19548TIP3    H180059   2.144   0.277   1.687  2.2765  1.8146 -0.3782
19548TIP3    H280060   2.167   0.161   1.782 -0.9450  0.2903 -1.3945
19549TIP3   OH280061   5.754   6.633   3.300 -0.0125  0.2059  0.0083
19549TIP3    H180062   5.702   6.710   3.320 -0.4148 -0.4766  1.6896
19549TIP3    H280063   5.829   6.639   3.361 -0.0388 -0.7106  0.1333
19550TIP3   OH280064   4.599   1.515   1.813  0.3734  0.1962  0.5271
19550TIP3    H180065   4.537   1.471   1.872  1.0123 -1.4194  0.0257
19550TIP3    H280066   4.572   1.487   1.726  2.1102 -0.9435  0.3402
19551TIP3   OH280067   3.982   3.966  15.293  0.9035 -0.2741 -0.1963
19551TIP3    H180068   4.061   3.988  15.244  0.3004  1.3750 -0.4766
19551TIP3    H280069   3.992   4.014  15.376 -0.6489  1.4728 -0.9894
19552TIP3   OH280070   6.710   1.157   4.134  0.4889 -0.1664 -0.5244
19552TIP3    H180071   6.663   1.111   4.064  2.9536 -4.2882  0.3372
19552TIP3    H280072   6.641   1.191   4.192 -1.4889  0.2486 -3.0559
19553TIP3   OH280073   4.076   5.781  16.539  0.2113  0.1555  0.1278
19553TIP3    H180074   4.156   5.809  16.584  1.3763 -1.0494 -1.1500
19553TIP3    H280075   4.065   5.690  16.566  0.2804 -0.2265 -1.1072
19554TIP3   OH280076   0.915   1.228   2.469 -0.1608 -0.2343  0.3760
19554TIP3    H180077   0.862   1.292   2.422  0.6522  0.2517  0.1255
19554TIP3    H280078   0.859   1.199   2.541 -0.9392 -0.0580 -0.1532
19555TIP3   OH280079   2.277   4.989   5.769  0.0343 -0.2679 -0.2296
19555TIP3    H180080   2.267   4.922   5.837 -1.1791  1.2849  1.1599
19555TIP3    H280081   2.270   4.941   5.687 -1.8268 -1.7144  0.7441
19556TIP3   OH280082   5.257   6.160  14.822  0.0227  0.8301 -0.8199
19556TIP3    H180083   5.290   6.114  14.899  0.9306  1.3616 -0.8873
19556TIP3    H280084   5.162   6.164  14.836  0.1346  0.5440  0.0593
19557TIP3   OH280085   3.091   5.519   3.068 -0.4598  0.2671 -0.0446
19557TIP3    H180086   3.154   5.487   3.133  0.4851 -1.2598 -1.6574
19557TIP3    H280087   3.111   5.612   3.060  1.1338 -0.0508  0.0019
19558TIP3   OH280088   6.698   3.416  11.532  0.6130 -0.4679  0.2410
19558TIP3    H180089   6.605   3.392  11.537  0.6094 -0.4900  0.0931
19558TIP3    H280090   6.714   3.426  11.438  0.3535  1.1330  0.3428
19559TIP3   OH280091   1.671   2.156   2.680 -0.2985  0.2165  0.1033
19559TIP3    H180092   1.673   2.090   2.611 -0.0240 -0.5346  0.8221
19559TIP3    H280093   1.743   2.131   2.738 -0.7578  0.6420  0.8518
19560TIP3   OH280094   0.876   3.421   3.346  0.2483  0.7164 -0.1542
19560TIP3    H180095   0.829   3.371   3.413  0.0130  1.4217  0.2206
19560TIP3    H280096   0.932   3.357   3.303 -1.4360 -0.2563 -0.9624
19561TIP3   OH280097   0.554   3.690  16.792 -0.0191 -0.2550 -0.1757
19561TIP3    H180098   0.479   3.750  16.791 -0.5714 -0.9386  0.5450
19561TIP3    H280099   0.524   3.613  16.745 -0.2005 -1.0471  1.2247
19562TIP3   OH280100   4.516   4.991   0.106  0.6669 -0.7401 -0.5379
19562TIP3    H180101   4.480   5.033   0.184  0.1628 -1.2710 -0.4782
19562TIP3    H280102   4.528   5.062   0.044 -1.0396 -0.6292 -0.7621
19563TIP3   OH280103   5.086   5.691   1.024 -0.4393 -0.1806  0.1893
19563TIP3    H180104   5.102   5.698   0.930 -0.5991 -0.3134  0.1527
19563TIP3    H280105   5.172   5.676   1.062 -0.9360 -5.0904 -0.3728
19564TIP3   OH280106   1.904   2.473  10.759 -0.6568 -0.1173 -0.4280
19564TIP3    H180107   1.873   2.388  10.730  0.1806 -0.4254 -0.4245
19564TIP3    H280108   1.862   2.486  10.844 -1.4653 -0.1368 -0.8162
19565TIP3   OH280109   1.646   0.326   1.198  0.3774  0.4536  0.7575
19565TIP3    H180110   1.621   0.356   1.285 -0.2050 -1.0920  1.1427
19565TIP3    H280111   1.604   0.389   1.138 -0.0205  0.9614  1.5573
19566TIP3   OH280112   5.422   3.239  14.684 -0.7940 -0.4615 -0.2260
19566TIP3    H180113   5.416   3.168  14.748 -1.0728  0.9670  1.3471
19566TIP3    H280114   5.386   3.315  14.728 -1.5091  0.4368 -2.2866
19567TIP3   OH280115   0.373   3.192  11.646 -0.2793  0.4512 -0.1050
19567TIP3    H180116   0.328   3.236  11.717 -0.1041  2.9640 -1.4842
19567TIP3    H280117   0.417   3.262  11.598  0.4903 -1.2926 -2.0517
19568TIP3   OH280118   5.150   1.265  15.210  0.1992  0.0083  0.5908
19568TIP3    H180119   5.235   1.298  15.180  0.1515  0.2212  0.6868
19568TIP3    H280120   5.166   1.239  15.301  0.4519 -1.0357  0.2522
19569TIP3   OH280121   6.627   5.336  14.111 -0.2272  0.7600  0.0397
19569TIP3    H180122   6.712   5.381  14.106  0.3564 -0.4579 -1.2855
19569TIP3    H280123   6.625   5.297  14.198  0.4894  0.9489  0.1446
19570TIP3   OH280124   2.909   2.857  14.908  0.0193 -0.5858  0.3861
19570TIP3    H180125   2.976   2.828  14.970  1.2914 -1.3491 -1.2944
19570TIP3    H280126   2.828   2.822  14.943  0.6943 -0.8730  1.7019
19571TIP3   OH280127   0.445   4.445  16.771 -0.2065 -0.0690  0.1234
19571TIP3    H180128   0.494   4.373  16.730 -1.1365  0.5937 -2.2834
19571TIP3    H280129   0.354   4.415  16.771 -0.5143  0.8345 -0.3198
19572TIP3   OH280130   2.466   1.345   1.546  0.2308  0.3739  0.3643
19572TIP3    H180131   2.477   1.424   1.493 -0.9718  1.4290  1.6523
19572TIP3    H280132   2.377   1.315   1.526  1.0032 -1.1997 -0.8172
19573TIP3   OH280133   2.410   0.343   5.744  0.6233 -0.2921  0.3870
19573TIP3    H180134   2.461   0.320   5.821  0.9069 -3.4804 -0.6431
19573TIP3    H280135   2.462   0.309   5.670 -0.1595  1.7011 -1.1408
19574TIP3   OH280136   1.177   2.831   2.929 -0.5019 -0.1372  0.1994
19574TIP3    H180137   1.204   2.740   2.923 -1.1636 -0.2327 -1.5656
19574TIP3    H280138   1.086   2.828   2.957 -0.6848 -0.0406 -0.3785
19575TIP3   OH280139   0.081   4.469   2.853  0.1015  0.2036 -0.0927
19575TIP3    H180140   0.052   4.556   2.880 -0.4825  0.1391 -0.5075
19575TIP3    H280141   0.173   4.465   2.879 -0.0953  0.6366  0.6824
19576TIP3   OH280142   2.495   6.394   1.732 -0.2361  0.3719  0.0839
19576TIP3    H180143   2.559   6.449   1.686 -0.6488  0.9909  0.2408
19576TIP3    H280144   2.547   6.344   1.794  0.1023  0.8790  0.2162
19577TIP3   OH280145   2.308   3.928  12.722 -0.2623  0.1452  0.7811
19577TIP3    H180146   2.261   3.861  12.771  1.8439 -1.7099  0.3364
19577TIP3    H280147   2.245   3.959  12.657 -1.0715 -1.8365  0.5984
19578TIP3   OH280148   2.896   0.629  16.563  0.3040 -0.0617  0.3273
19578TIP3    H180149   2.862   0.586  16.641  2.5809  0.7367  1.8219
19578TIP3    H280150   2.891   0.723  16.583  2.5071  0.0943  0.2369
19579TIP3   OH280151   6.696   3.707   0.720 -0.1457  0.2558 -0.1245
19579TIP3    H180152   6.735   3.645   0.781 -0.4937  0.7476  0.6022
19579TIP3    H280153   6.768   3.732   0.662  1.1694  2.6486  2.4033
19580TIP3   OH280154   2.549   1.269   4.361 -0.0498 -0.5722  0.0587
19580TIP3    H180155   2.559   1.189   4.311  0.1744 -0.1796 -0.5262
19580TIP3    H280156   2.518   1.240   4.447  2.2467 -1.4798  0.6044
19581TIP3   OH280157   2.448   5.968  16.120  0.5427  0.6114  0.4254
19581TIP3    H180158   2.438   5.988  16.027  1.5747  3.3878  0.8564
19581TIP3    H280159   2.531   5.921  16.125  0.4562  0.4007 -0.0702
19582TIP3   OH280160   3.902   6.524   3.268  0.6032  0.2553 -0.2712
19582TIP3    H180161   3.903   6.453   3.333 -1.8877 -1.0807 -1.5990
19582TIP3    H280162   3.809   6.542   3.255  1.1239  1.6884 -2.2163
19583TIP3   OH280163   2.667   5.599  12.617 -0.4871 -0.5973 -0.3654
19583TIP3    H180164   2.602   5.669  12.608 -0.9296 -0.6866  1.8035
19583TIP3    H280165   2.746   5.644  12.650 -0.3944 -0.9213 -0.1376
19584TIP3   OH280166   5.271   0.503  11.294 -0.1235  0.0683 -0.0962
19584TIP3    H180167   5.340   0.506  11.228 -1.0846  3.4147 -1.0553
19584TIP3    H280168   5.193   0.533  11.248 -1.5770 -0.7646  1.7395
19585TIP3   OH280169   0.667   3.119  15.273 -0.2260 -0.1968  0.2522
19585TIP3    H180170   0.639   3.074  15.353  1.7672 -1.5232  0.2407
19585TIP3    H280171   0.752   3.156  15.294  0.6380 -1.1485 -1.4471
19586TIP3   OH280172   6.552   3.012   6.688  0.2569 -0.2390  0.3481
19586TIP3    H180173   6.459   3.008   6.710  0.1016 -0.9685 -0.4111
19586TIP3    H280174   6.597   2.992   6.770 -0.2535  0.2460  0.7467
19587TIP3   OH280175   0.374   5.392  12.336 -0.1260  0.1061 -0.3813
19587TIP3    H180176   0.446   5.381  12.274  1.9103 -1.7578  2.2426
19587TIP3    H280177   0.333   5.305  12.341 -1.2579  0.6341 -0.2521
19588TIP3   OH280178   4.819   6.457  12.824 -0.0325  0.0164 -0.0620
19588TIP3    H180179   4.797   6.487  12.912  3.1648 -0.4045  0.9369
19588TIP3    H280180   4.766   6.512  12.766 -1.3129  1.0845  2.0622
19589TIP3   OH280181   4.160   5.055   2.740  0.0043 -0.2079 -1.1947
19589TIP3    H180182   4.187   5.076   2.651  1.3823 -1.7166 -1.1500
19589TIP3    H280183   4.143   4.961   2.739  0.4858 -0.3249  0.2489
19590TIP3   OH280184   2.645   3.212   0.350 -0.5131 -0.4457 -0.2703
19590TIP3    H180185   2.555   3.181   0.347 -0.8758  0.3815  1.5590
19590TIP3    H280186   2.661   3.249   0.263 -2.5963  1.2058  0.0192
19591TIP3   OH280187   3.551   5.065   1.752 -0.0862 -0.2809  0.0674
19591TIP3    H180188   3.555   5.158   1.775  1.9000 -1.0206  2.8943
19591TIP3    H280189   3.459   5.050   1.730 -0.3414  2.4435 -0.9010
19592TIP3   OH280190   5.374   3.587   3.886 -0.3816  0.3118  0.1154
19592TIP3    H180191   5.299   3.532   3.908 -1.5542  1.7120 -0.2867
19592TIP3    H280192   5.374   3.590   3.790  1.1297 -0.9328  0.0651
19593TIP3   OH280193   6.560   3.426  12.163 -0.2026 -0.3144 -0.0559
19593TIP3    H180194   6.571   3.345  12.113  1.7478  1.0146 -1.8645
19593TIP3    H280195   6.615   3.414  12.240 -2.1744 -1.8260  1.1806
19594TIP3   OH280196   0.788   1.851   3.941 -0.3667 -0.2939  0.1276
19594TIP3    H180197   0.804   1.780   3.879  0.7914 -0.0825  0.1652
19594TIP3    H280198   0.812   1.930   3.894  1.5904 -0.2168  1.1642
19595TIP3   OH280199   5.540   1.867  12.240  0.2736  0.4462  0.3701
19595TIP3    H180200   5.584   1.913  12.312 -0.2671  1.1288  0.2738
19595TIP3    H280201   5.542   1.775  12.266  0.4613  0.6363  1.0582
19596TIP3   OH280202   4.732   4.252  15.130 -0.6433 -0.1466  0.4181
19596TIP3    H180203   4.671   4.326  15.125 -1.8088 -1.1494 -0.4581
19596TIP3    H280204   4.740   4.221  15.040  2.4314  0.9349  0.2358
19597TIP3   OH280205   0.081   1.593  12.389  0.1265 -0.4400 -0.0605
19597TIP3    H180206   0.001   1.573  12.341 -0.9419  1.6850  0.7884
19597TIP3    H280207   0.053   1.646  12.464  2.2769  0.1735  0.3698
19598TIP3   OH280208   2.708   0.885   1.409 -0.3242  0.3440  0.0487
19598TIP3    H180209   2.740   0.805   1.453 -1.2643  0.3890  0.8385
19598TIP3    H280210   2.786   0.922   1.368  0.3256 -0.4353  0.5460
19599TIP3   OH280211   2.514   0.800  17.165  0.0173  0.2203 -0.1187
19599TIP3    H180212   2.572   0.725  17.179  2.0504  1.6650 -0.5912
19599TIP3    H280213   2.515   0.847  17.248 -1.4294 -0.3748  0.2462
19600TIP3   OH280214   2.434   5.460   3.351  0.2765  0.2747 -0.3355
19600TIP3    H180215   2.428   5.493   3.261 -0.6398 -1.2330 -0.8414
19600TIP3    H280216   2.511   5.505   3.387  1.5668 -0.2148 -2.3474
19601TIP3   OH280217   4.073   0.455  15.197  0.5978 -0.4130 -0.0781
19601TIP3    H180218   4.008   0.519  15.226  2.0307  0.3802  1.4609
19601TIP3    H280219   4.036   0.370  15.221 -0.4356 -0.0593 -0.3767
19602TIP3   OH280220   5.364   2.010   2.362 -0.1500  0.1535 -0.2018
19602TIP3    H180221   5.368   2.050   2.276  1.6210  0.9656  0.2545
19602TIP3    H280222   5.320   2.074   2.417 -0.3328  0.0691 -0.2482
19603TIP3   OH280223   5.485   1.208   0.842 -0.6372 -0.1683  0.0932
19603TIP3    H180224   5.398   1.240   0.867 -1.6193 -2.2024 -0.5439
19603TIP3    H280225   5.505   1.254   0.761 -2.0831 -1.1957 -0.8822
19604TIP3   OH280226   2.825   3.503   1.054  0.0735  0.4634  0.1410
19604TIP3    H180227   2.733   3.477   1.053  0.7152 -1.8773 -1.8360
19604TIP3    H280228   2.850   3.508   0.962  2.7024 -1.9047  0.6545
19605TIP3   OH280229   2.174   3.819  12.269 -0.5825 -0.1006 -0.1727
19605TIP3    H180230   2.165   3.738  12.219 -0.2421 -0.0714 -0.2839
19605TIP3    H280231   2.085   3.855  12.272 -0.4026  0.5282 -1.8175
19606TIP3   OH280232   4.969   1.333   6.188 -0.2933  0.7533  0.1976
19606TIP3    H180233   4.955   1.416   6.233 -0.7130  1.4971 -1.2571
19606TIP3    H280234   4.890   1.320   6.137  0.5645  0.4340 -1.0850
19607TIP3   OH280235   3.333   0.336  16.921 -0.2010  0.4437  0.0064
19607TIP3    H180236   3.340   0.428  16.896  0.9399  0.6962  1.1864
19607TIP3    H280237   3.418   0.315  16.959 -1.2172 -0.4411  1.8701
19608TIP3   OH280238   2.848   2.201   5.862  0.2702  0.1009  0.4166
19608TIP3    H180239   2.914   2.156   5.808  0.3218 -0.3185  0.8224
19608TIP3    H280240   2.835   2.142   5.936  0.1120  0.6216  0.8002
19609TIP3   OH280241   3.594   3.609   0.325  0.4608  0.4232 -0.2436
19609TIP3    H180242   3.543   3.675   0.278 -0.3798  0.6166  0.9146
19609TIP3    H280243   3.641   3.561   0.257  0.7355  1.9231 -1.1341
19610TIP3   OH280244   0.746   2.308   0.599 -0.0601  0.1320 -0.0168
19610TIP3    H180245   0.673   2.318   0.538 -0.7528  0.6908  0.8739
19610TIP3    H280246   0.774   2.217   0.590 -1.0070 -0.1414 -0.2210
19611TIP3   OH280247   0.271   0.684  11.312  0.4767 -0.1896 -0.1289
19611TIP3    H180248   0.231   0.669  11.226 -2.2460 -1.8604  1.3623
19611TIP3    H280249   0.219   0.755  11.350 -0.0549 -1.2418  1.1582
19612TIP3   OH280250   2.243   2.906  10.799  0.1252  0.1641  0.0627
19612TIP3    H180251   2.180   2.845  10.760  1.2251 -1.2603  0.4655
19612TIP3    H280252   2.328   2.875  10.768  0.7965  0.6997  1.3383
19613TIP3   OH280253   1.384   1.315   5.652  0.1283  0.8614 -0.2450
19613TIP3    H180254   1.458   1.357   5.609  0.8909 -0.6306 -0.4395
19613TIP3    H280255   1.319   1.306   5.583  1.7170 -2.4020 -1.4228
19614TIP3   OH280256   4.796   2.011   3.261  0.1212  0.4738  0.3322
19614TIP3    H180257   4.855   1.974   3.196  1.0806  1.7643  0.4323
19614TIP3    H280258   4.842   1.999   3.344 -1.4239 -1.8375  0.8934
19615TIP3   OH280259   1.891   1.932   3.727 -0.0013 -0.0804  0.0295
19615TIP3    H180260   1.952   2.005   3.727  0.7828 -0.7177  1.4122
19615TIP3    H280261   1.898   1.894   3.639  0.5860  0.6646 -0.2457
19616TIP3   OH280262   1.009   1.734  16.959 -0.1542  0.2552 -0.4189
19616TIP3    H180263   0.926   1.689  16.948  1.2806 -2.3801 -0.7044
19616TIP3    H280264   1.015   1.792  16.883 -1.5510  0.2281 -0.5669
19617TIP3   OH280265   4.259   6.456   2.375 -0.8460  0.1016 -0.0809
19617TIP3    H180266   4.329   6.432   2.315 -0.5208 -0.5783  0.5678
19617TIP3    H280267   4.179   6.447   2.323 -0.3564  2.4683 -1.3126
19618TIP3   OH280268   4.852   0.462   2.398  0.1991  0.5083  0.2129
19618TIP3    H180269   4.829   0.554   2.386  0.0343  0.6601  1.5997
19618TIP3    H280270   4.874   0.455   2.491  0.8914 -0.7063 -0.0345
19619TIP3   OH280271   0.822   5.159   6.455  0.0369 -0.4054 -0.1419
19619TIP3    H180272   0.825   5.254   6.443  3.3464 -0.6548 -1.8152
19619TIP3    H280273   0.734   5.134   6.427 -1.1967  2.2488  1.2235
19620TIP3   OH280274   3.265   3.066   1.964  0.1528 -0.2031  0.1874
19620TIP3    H180275   3.243   3.080   1.872 -0.5220  1.1752  0.5472
19620TIP3    H280276   3.348   3.018   1.962  0.0332 -0.3719 -1.1311
19621TIP3   OH280277   3.556   0.073   1.503 -0.3527 -0.1082  0.4346
19621TIP3    H180278   3.582   0.010   1.570  0.0053 -1.5373 -1.0304
19621TIP3    H280279   3.625   0.140   1.505  1.2087 -1.6588 -0.5048
19622TIP3   OH280280   1.024   5.656  12.107  0.1752 -0.2050 -0.4504
19622TIP3    H180281   0.946   5.672  12.054  0.2549  0.5620 -0.3411
19622TIP3    H280282   0.997   5.591  12.171  0.0447 -1.0597 -1.3620
19623TIP3   OH280283   4.438   2.132  15.365  0.5334 -0.1494 -0.3208
19623TIP3    H180284   4.515   2.168  15.409  0.2404 -0.8673  0.8082
19623TIP3    H280285   4.400   2.071  15.429  0.4477 -1.6884 -1.7893
19624TIP3   OH280286   5.056   0.503   6.022 -0.4368  0.2682  0.1720
19624TIP3    H180287   5.075   0.500   5.928 -0.4746  2.4860  0.0808
19624TIP3    H280288   4.974   0.455   6.031 -0.7061  0.4965 -0.9946
19625TIP3   OH280289   5.693   0.642  14.253  0.2539  0.2550 -0.0104
19625TIP3    H180290   5.780   0.656  14.214 -0.1965  1.7826 -0.4893
19625TIP3    H280291   5.632   0.654  14.181 -0.3102 -2.8397 -0.1517
19626TIP3   OH280292   1.553   0.691   2.302 -0.2524 -0.3510  0.3163
19626TIP3    H180293   1.546   0.769   2.247 -1.0181 -0.5872  0.0674
19626TIP3    H280294   1.535   0.618   2.242 -1.2989 -0.5941  0.9150
19627TIP3   OH280295   3.103   3.564  15.541  0.5763  0.6849 -0.6004
19627TIP3    H180296   3.163   3.491  15.556  0.3478  0.6966  0.3587
19627TIP3    H280297   3.039   3.530  15.478  0.8848  0.2901 -0.6996
19628TIP3   OH280298   2.548   2.488   3.368  0.4083 -0.3080  0.6438
19628TIP3    H180299   2.623   2.481   3.427  1.1247  2.2442  0.0790
19628TIP3    H280300   2.498   2.408   3.385  3.2079 -2.0601  1.0582
19629TIP3   OH280301   1.127   5.516  16.379  0.4309  0.0771  0.4612
19629TIP3    H180302   1.136   5.605  16.344 -0.7701 -0.4195 -1.1252
19629TIP3    H280303   1.209   5.501  16.426  0.3912  2.2542  1.2654
19630TIP3   OH280304   1.153   4.091  14.464 -0.1098  0.1050 -0.3254
19630TIP3    H180305   1.222   4.061  14.523  1.0142  0.1557 -1.5862
19630TIP3    H280306   1.072   4.065  14.508  0.7204 -0.6957  0.7880
19631TIP3   OH280307   6.126   6.761   5.897  0.0329  0.0741  0.2693
19631TIP3    H180308   6.205   6.794   5.941 -0.6927  0.4146  1.3252
19631TIP3    H280309   6.120   6.814   5.817 -0.0811  1.2656  1.0398
19632TIP3   OH280310   2.131   4.839  16.209 -0.3069 -0.2037 -0.1289
19632TIP3    H180311   2.151   4.829  16.303 -0.6420  1.0751  0.0881
19632TIP3    H280312   2.037   4.821  16.203 -0.0413 -1.5127 -0.4140
19633TIP3   OH280313   1.293   5.748   3.091  0.5647 -0.1343  0.0436
19633TIP3    H180314   1.266   5.782   3.005  2.0639  0.0970 -0.3486
19633TIP3    H280315   1.264   5.657   3.091  0.2217 -0.0301 -0.5492
19634TIP3   OH280316   1.462   4.041   5.647 -0.1327 -0.5470  0.4893
19634TIP3    H180317   1.390   3.982   5.629 -0.3938 -0.0567 -0.1013
19634TIP3    H280318   1.421   4.119   5.685  0.0844 -0.2898  0.2061
19635TIP3   OH280319   1.268   0.124  17.097  0.0609  0.6527 -0.2624
19635TIP3    H180320   1.229   0.039  17.080  0.6823  0.1758  0.6284
19635TIP3    H280321   1.195   0.178  17.128  0.0578 -0.1910  1.2567
19636TIP3   OH280322   5.894   1.953  11.966 -0.3658  0.1980 -0.3971
19636TIP3    H180323   5.864   1.965  11.876  1.5897  0.4289 -1.0597
19636TIP3    H280324   5.886   1.859  11.982  0.3847 -0.0184 -1.2400
19637TIP3   OH280325   2.615   2.210  16.410  0.1022  0.0892 -0.0197
19637TIP3    H180326   2.652   2.278  16.466 -1.5393  1.2715 -0.3537
19637TIP3    H280327   2.534   2.248  16.375  0.2081 -1.2653 -1.8325
19638TIP3   OH280328   0.184   6.634  12.219 -0.0385  0.8191  0.3246
19638TIP3    H180329   0.098   6.596  12.233  0.6916 -0.3936  1.5641
19638TIP3    H280330   0.227   6.632  12.305  1.1892  1.4882 -0.2492
19639TIP3   OH280331   1.711   4.943   3.184  0.0254 -0.0544  0.0409
19639TIP3    H180332   1.690   5.025   3.140  0.0094  0.2323  0.5729
19639TIP3    H280333   1.792   4.963   3.233 -0.7110  0.0485  1.2499
19640TIP3   OH280334   0.490   2.779   1.785  0.0120 -0.3928 -1.1066
19640TIP3    H180335   0.571   2.761   1.833  1.1568  2.0528 -2.0413
19640TIP3    H280336   0.482   2.706   1.723  1.5846 -0.5641 -1.1240
19641TIP3   OH280337   6.011   2.130  14.368 -0.7662  0.5940 -0.0816
19641TIP3    H180338   5.918   2.114  14.385 -0.8988  1.3538 -0.0643
19641TIP3    H280339   6.036   2.196  14.433 -0.4414  1.0554 -0.6711
19642TIP3   OH280340   2.961   6.108   0.120  0.1730 -0.3064 -0.3345
19642TIP3    H180341   3.034   6.071   0.071  1.0600 -0.4179  1.0332
19642TIP3    H280342   2.910   6.032   0.148  0.3464 -0.3296 -0.0702
19643TIP3   OH280343   4.687   4.454   2.281  0.5169  0.0629  0.0512
19643TIP3    H180344   4.598   4.426   2.304  1.1865 -1.3232  1.0387
19643TIP3    H280345   4.714   4.510   2.353  1.0473 -0.8748  0.6007
19644TIP3   OH280346   0.010   6.702  15.688  0.1556  0.3734  0.3691
19644TIP3    H180347  -0.067   6.659  15.725  0.8883 -0.3784  1.0428
19644TIP3    H280348   0.068   6.630  15.664  0.3422  0.9144 -0.8260
19645TIP3   OH280349   2.810   4.423  14.039  0.0150 -0.1337 -0.2336
19645TIP3    H180350   2.839   4.392  14.125  0.7172 -0.3357 -0.5388
19645TIP3    H280351   2.812   4.518  14.045  1.7651 -0.1404 -0.5848
19646TIP3   OH280352   4.056   4.979  16.669 -0.1403 -0.0656  0.1643
19646TIP3    H180353   4.072   4.993  16.576 -1.7814  2.3852  0.2214
19646TIP3    H280354   4.120   4.911  16.694  2.0830  1.0881 -2.1299
19647TIP3   OH280355   3.210   1.863   3.088 -0.6566  0.1909 -0.0893
19647TIP3    H180356   3.273   1.930   3.115 -0.6589 -0.3524  1.2971
19647TIP3    H280357   3.244   1.831   3.004  1.7255 -1.1157  1.3265
19648TIP3   OH280358   6.701   3.868  14.768 -0.3350 -0.3745 -0.8496
19648TIP3    H180359   6.747   3.842  14.688 -0.5640 -1.6597 -0.5712
19648TIP3    H280360   6.639   3.935  14.740  0.6705  0.3074 -1.4796
19649TIP3   OH280361   4.416   1.695  10.546 -0.2039  0.6649 -0.2955
19649TIP3    H180362   4.328   1.665  10.566  0.4015 -0.8116  0.2634
19649TIP3    H280363   4.404   1.773  10.492 -1.8406  0.7434  0.1757
19650TIP3   OH280364   1.331   1.099   2.162  0.4277  0.4017  0.0576
19650TIP3    H180365   1.269   1.074   2.231 -0.3790 -0.2361 -0.8850
19650TIP3    H280366   1.360   1.187   2.187 -0.7916  0.6690  0.5599
19651TIP3   OH280367   4.065   0.033  16.336 -0.2985 -0.0190  0.1150
19651TIP3    H180368   4.080  -0.058  16.359  1.7410  0.5117  1.0072
19651TIP3    H280369   4.149   0.064  16.302  0.4079  2.6744  3.8547
19652TIP3   OH280370   5.870   4.325   0.899  0.2870  0.6418  0.1632
19652TIP3    H180371   5.903   4.348   0.812  3.7412 -2.7310  0.4793
19652TIP3    H280372   5.814   4.249   0.885  1.1781 -0.1715  0.8643
19653TIP3   OH280373   0.707   4.688   1.843  0.3592 -0.1067 -0.0999
19653TIP3    H180374   0.793   4.648   1.854  1.6528  2.7202  0.4386
19653TIP3    H280375   0.660   4.668   1.924  0.9977 -0.5045  0.1731
19654TIP3   OH280376   4.484   5.491  11.707 -0.2804 -0.0990  0.2275
19654TIP3    H180377   4.441   5.410  11.678 -0.9340 -0.0405  1.0125
19654TIP3    H280378   4.551   5.507  11.641 -0.7553 -0.7813 -0.4357
19655TIP3   OH280379   5.212   4.545  14.609 -0.7167  0.0505 -0.0032
19655TIP3    H180380   5.132   4.557  14.558 -1.2271 -3.3957 -0.1332
19655TIP3    H280381   5.235   4.453  14.596  2.3255  0.5460  1.4277
19656TIP3   OH280382   0.619   4.329   3.843  0.4421  0.5108  0.3609
19656TIP3    H180383   0.559   4.396   3.877  2.0775  1.6620  1.0239
19656TIP3    H280384   0.625   4.265   3.914  0.6324  0.8099  0.6163
19657TIP3   OH280385   4.497   5.686   5.654 -0.4651 -0.0370 -0.2878
19657TIP3    H180386   4.480   5.778   5.634  0.1816 -0.1111 -1.2013
19657TIP3    H280387   4.424   5.639   5.614 -0.6582  0.0507 -0.0424
19658TIP3   OH280388   4.249   0.038  13.961  0.0249  0.3671  0.4339
19658TIP3    H180389   4.253   0.019  13.868  0.8486 -0.5350  0.6420
19658TIP3    H280390   4.185  -0.024  13.995 -0.4007  0.8097  0.4462
19659TIP3   OH280391   2.413   3.814   3.313  0.1782 -0.1527 -0.0192
19659TIP3    H180392   2.348   3.831   3.244  0.0158 -0.5218  0.0405
19659TIP3    H280393   2.388   3.874   3.384 -0.9538 -1.2612  0.5537
19660TIP3   OH280394   5.909   3.480   4.352  0.0976 -0.0677 -0.4855
19660TIP3    H180395   5.896   3.574   4.339 -0.8444 -0.1243  0.0222
19660TIP3    H280396   6.001   3.471   4.378  0.6912  0.5299 -2.2746
19661TIP3   OH280397   2.975   0.636  13.851 -0.4775 -0.4783  0.0961
19661TIP3    H180398   2.899   0.693  13.866 -0.3455 -0.4282  0.5945
19661TIP3    H280399   2.954   0.556  13.900 -0.4538 -0.6768 -0.2182
19662TIP3   OH280400   2.061   1.391   3.045 -0.3049  0.0651  0.0850
19662TIP3    H180401   2.036   1.333   2.973  1.0182  2.3615 -2.3306
19662TIP3    H280402   2.145   1.356   3.075 -1.0014 -1.0756  0.7544
19663TIP3   OH280403   6.303   5.668   2.347  0.4129 -0.2945  0.1822
19663TIP3    H180404   6.251   5.600   2.303  0.8200  0.0832 -0.8992
19663TIP3    H280405   6.392   5.634   2.347  1.0075  1.1601 -2.3064
19664TIP3   OH280406   3.926   4.781  11.098  0.1022  0.5246  0.0724
19664TIP3    H180407   3.990   4.850  11.083 -1.4925  1.8368 -0.9280
19664TIP3    H280408   3.843   4.828  11.106 -0.9697 -1.2728 -0.3573
19665TIP3   OH280409   2.170   4.372   2.037  0.3017  0.6627  0.0811
19665TIP3    H180410   2.109   4.410   2.100 -0.4563 -1.4222  0.6526
19665TIP3    H280411   2.125   4.294   2.004  1.8197  0.2256 -1.0238
19666TIP3   OH280412   4.191   6.228   4.047  0.0117  0.0077  0.4136
19666TIP3    H180413   4.117   6.241   4.107 -0.2474  1.5159 -0.1977
19666TIP3    H280414   4.239   6.154   4.083  0.0655  1.1214  2.7100
19667TIP3   OH280415   3.029   3.668  17.078  0.0231 -0.7459  0.5687
19667TIP3    H180416   3.031   3.585  17.030 -0.5852 -0.0033 -0.7820
19667TIP3    H280417   3.041   3.735  17.010 -2.3672  0.4154  1.2553
19668TIP3   OH280418   2.876   3.640   4.807 -0.6232  0.0015  0.0343
19668TIP3    H180419   2.955   3.632   4.753 -0.0810 -4.0386  1.2405
19668TIP3    H280420   2.892   3.717   4.862  1.8421  0.0726 -0.7115
19669TIP3   OH280421   4.656   3.834  15.055 -0.1201 -0.0127  0.0217
19669TIP3    H180422   4.680   3.768  14.990  0.0849 -0.1676  0.2536
19669TIP3    H280423   4.644   3.785  15.136 -0.1234  0.2142  0.1589
19670TIP3   OH280424   0.287   5.257  16.367 -0.5294  0.2178 -0.0741
19670TIP3    H180425   0.287   5.168  16.403 -0.9601  0.7545  1.3110
19670TIP3    H280426   0.297   5.245  16.273 -0.6409 -1.3020  0.0860
19671TIP3   OH280427   2.858   4.709  17.200 -0.2231  0.2818 -0.0489
19671TIP3    H180428   2.946   4.676  17.217  0.4268  1.6053 -0.7214
19671TIP3    H280429   2.850   4.787  17.256 -1.4950 -0.6145  1.0562
19672TIP3   OH280430   5.408   3.385   2.077 -0.0199 -0.0720 -0.0812
19672TIP3    H180431   5.362   3.382   2.161  0.7261  0.5323  0.3604
19672TIP3    H280432   5.455   3.469   2.080  0.4491 -0.3129 -0.8667
19673TIP3   OH280433   6.171   2.106  11.768  0.0471 -0.4827  0.2889
19673TIP3    H180434   6.249   2.065  11.730  0.0431 -0.4694  0.2672
19673TIP3    H280435   6.129   2.151  11.695 -0.3197 -1.0137  0.1638
19674TIP3   OH280436   3.340   4.507   1.299 -0.5964 -0.2154  0.3258
19674TIP3    H180437   3.374   4.418   1.299  0.5625  0.2235 -0.1520
19674TIP3    H280438   3.271   4.506   1.232 -0.4261 -0.6884  0.1571
19675TIP3   OH280439   6.590   5.199  11.428  0.7133 -0.2008 -0.6114
19675TIP3    H180440   6.670   5.225  11.383  0.9928  0.7979  0.4277
19675TIP3    H280441   6.615   5.122  11.480  1.4506  1.1128  1.0240
19676TIP3   OH280442   1.901   6.021  14.435 -0.1582  0.1339  0.3486
19676TIP3    H180443   1.910   5.926  14.450 -1.1585 -0.2897 -1.5780
19676TIP3    H280444   1.876   6.056  14.520 -0.0261 -1.3703  1.0389
19677TIP3   OH280445   4.530   1.450   5.918 -0.1589  0.2672  0.1695
19677TIP3    H180446   4.537   1.376   5.978  0.0624 -0.4646 -0.7480
19677TIP3    H280447   4.449   1.494   5.945 -0.6419 -0.6840  0.3006
19678TIP3   OH280448   3.816   0.146   1.926  0.0844 -0.0881 -0.2298
19678TIP3    H180449   3.809   0.211   1.996 -1.0563  0.5315 -0.8981
19678TIP3    H280450   3.877   0.081   1.959  1.0835  1.2295  0.5390
19679TIP3   OH280451   6.248   5.136  14.831 -0.2648 -0.3789  0.3924
19679TIP3    H180452   6.154   5.147  14.847 -0.4311 -2.9585  1.4042
19679TIP3    H280453   6.254   5.118  14.738 -0.5777  1.5486 -0.0258
19680TIP3   OH280454   1.684   4.955   2.727 -0.6459  0.5456  0.3189
19680TIP3    H180455   1.775   4.947   2.698  0.2169  2.6165  2.2881
19680TIP3    H280456   1.658   4.866   2.750  1.0566  0.0125  0.2149
19681TIP3   OH280457   4.177   5.191   0.178  0.6125  0.5973  0.9548
19681TIP3    H180458   4.135   5.272   0.207 -3.2252 -1.6992  2.1831
19681TIP3    H280459   4.264   5.193   0.218 -0.0051  3.3628  2.2733
19682TIP3   OH280460   6.163   5.632  13.961 -0.0779 -0.1943  0.2393
19682TIP3    H180461   6.212   5.617  14.042  0.6866  2.1869  0.2756
19682TIP3    H280462   6.097   5.696  13.985 -0.6523 -0.4108 -0.7406
19683TIP3   OH280463   4.532   4.138   0.391 -0.3755 -0.0832  0.4933
19683TIP3    H180464   4.545   4.183   0.475  0.6722 -1.3271  1.0133
19683TIP3    H280465   4.540   4.207   0.325 -0.1848  0.7346  1.3638
19684TIP3   OH280466   3.107   0.398   3.846 -0.1688 -0.0496 -0.2809
19684TIP3    H180467   3.079   0.435   3.762  2.5112 -0.3786 -1.3802
19684TIP3    H280468   3.200   0.378   3.833 -0.2818 -2.2658  2.0128
19685TIP3   OH280469   6.021   1.924   0.932 -0.1385 -0.5136  0.0167
19685TIP3    H180470   6.023   2.012   0.969  2.3696 -0.2769 -0.5413
19685TIP3    H280471   5.980   1.935   0.846 -2.3427 -0.3891  1.0609
19686TIP3   OH280472   5.970   5.168   5.781  0.1855  0.1651  0.1765
19686TIP3    H180473   5.892   5.122   5.814 -0.0247 -1.9601 -3.0318
19686TIP3    H280474   6.015   5.198   5.859 -1.3253 -2.8707  2.3366
19687TIP3   OH280475   0.799   6.438   0.872 -0.3205 -0.6029 -0.2831
19687TIP3    H180476   0.876   6.418   0.820 -0.7894 -0.2584 -1.1119
19687TIP3    H280477   0.725   6.428   0.811 -0.8780 -0.3190  0.3378
19688TIP3   OH280478   4.433   4.043  15.108  0.1109  0.2954  0.1482
19688TIP3    H180479   4.497   4.056  15.039 -0.6542  0.0929 -0.6073
19688TIP3    H280480   4.470   4.087  15.185  0.8872  0.6506 -0.4346
19689TIP3   OH280481   3.035   1.937  13.972 -0.2370 -0.1806  0.2852
19689TIP3    H180482   3.024   2.004  13.905  1.1977  0.2883  0.5011
19689TIP3    H280483   2.974   1.963  14.042 -2.6348 -1.3539 -1.3242
19690TIP3   OH280484   6.547   1.128  11.194 -0.1564 -0.2924 -0.8780
19690TIP3    H180485   6.640   1.145  11.186 -0.3396  0.9596 -0.3821
19690TIP3    H280486   6.504   1.200  11.149 -0.9263  0.7495  1.4469
19691TIP3   OH280487   5.264   5.505   3.105 -0.1095 -0.7372  0.1294
19691TIP3    H180488   5.297   5.567   3.170 -1.6955 -0.5070  0.7550
19691TIP3    H280489   5.340   5.480   3.053  0.7417  0.9409  0.5454
19692TIP3   OH280490   3.263   2.103   3.416  0.7382 -0.5017  0.1901
19692TIP3    H180491   3.338   2.072   3.466  0.3112 -2.8927 -0.6075
19692TIP3    H280492   3.295   2.110   3.326  0.6886  0.9532  0.2675
19693TIP3   OH280493   5.592   0.835   3.572  0.5660 -0.5139  0.2002
19693TIP3    H180494   5.648   0.901   3.531 -0.0624 -0.1214 -0.0297
19693TIP3    H280495   5.558   0.784   3.498  0.0401 -0.2900  0.2876
19694TIP3   OH280496   4.647   6.688   1.254  0.2314  0.0563  0.1523
19694TIP3    H180497   4.561   6.658   1.225  1.0664 -4.3224  1.8095
19694TIP3    H280498   4.694   6.712   1.174 -2.3371  2.2125 -0.7797
19695TIP3   OH280499   4.961   5.380  12.515  0.6353  0.1241  0.5664
19695TIP3    H180500   5.056   5.389  12.521  0.4700  0.9760  2.2114
19695TIP3    H280501   4.932   5.376  12.606 -1.2807  4.0597  0.2523
19696TIP3   OH280502   4.517   4.741   0.809  0.0733 -0.3737 -0.8641
19696TIP3    H180503   4.435   4.789   0.814 -0.2338 -1.0459  0.6894
19696TIP3    H280504   4.494   4.659   0.765  0.1634 -0.0635 -1.5025
19697TIP3   OH280505   3.696   2.423  13.557 -0.5033  0.1257 -0.2818
19697TIP3    H180506   3.609   2.424  13.597 -0.8962 -1.2492 -1.0921
19697TIP3    H280507   3.733   2.338  13.581  0.7200  0.7880  0.2469
19698TIP3   OH280508   3.659   2.529   5.738  0.4547 -0.1008 -0.1689
19698TIP3    H180509   3.607   2.507   5.661 -0.4855  0.6149  0.2460
19698TIP3    H280510   3.709   2.606   5.712  0.1064  0.1656 -0.0570
19699TIP3   OH280511   6.314   6.461   2.268 -0.6034 -0.0057 -0.3213
19699TIP3    H180512   6.300   6.447   2.361 -1.4606 -2.6815 -0.7948
19699TIP3    H280513   6.403   6.497   2.262 -0.4759  0.0370  1.5136
19700TIP3   OH280514   4.814   0.109  13.359  0.1777 -0.3215 -0.3995
19700TIP3    H180515   4.763   0.185  13.387  0.0471 -0.9305  1.0628
19700TIP3    H280516   4.902   0.144  13.343 -0.3867  0.5159 -1.8136
19701TIP3   OH280517   2.365   2.317  12.672 -0.2424 -0.0991  0.6310
19701TIP3    H180518   2.282   2.327  12.626 -1.4524  0.2818  2.7859
19701TIP3    H280519   2.379   2.403  12.714  0.5089 -0.5896  1.4010
19702TIP3   OH280520   0.342   3.761  12.595  0.5022  0.0433 -0.1981
19702TIP3    H180521   0.274   3.694  12.593 -0.2440  0.7568  0.6201
19702TIP3    H280522   0.404   3.731  12.662 -0.4122  0.6935  0.9721
19703TIP3   OH280523   0.538   2.403  16.271 -0.0013 -0.0515  0.5139
19703TIP3    H180524   0.543   2.499  16.267 -0.2840 -0.1087 -1.7134
19703TIP3    H280525   0.444   2.385  16.277  0.0268 -0.2047  0.4784
19704TIP3   OH280526   1.279   4.985  12.644 -0.3362  0.0635  0.1546
19704TIP3    H180527   1.349   5.024  12.591 -0.1972  0.0274  0.3103
19704TIP3    H280528   1.297   4.891  12.642 -0.6439  0.0105 -0.1828
19705TIP3   OH280529   1.260   0.167  12.920  0.7853 -0.4616  0.3718
19705TIP3    H180530   1.194   0.149  12.987  0.4614 -2.4359 -0.4355
19705TIP3    H280531   1.226   0.241  12.870 -0.9133 -1.5993 -0.1662
19706TIP3   OH280532   6.461   4.742  11.977 -0.4680 -0.1044 -0.0150
19706TIP3    H180533   6.454   4.650  11.951  0.2115 -0.5596  1.3417
19706TIP3    H280534   6.403   4.750  12.052 -0.3465  0.5213  0.0165
19707TIP3   OH280535   2.035   4.642  14.140 -0.1645 -0.8134  0.0954
19707TIP3    H180536   1.990   4.652  14.056  0.4249 -0.3552 -0.1700
19707TIP3    H280537   2.085   4.723  14.150  1.1879 -1.6358  0.0401
19708TIP3   OH280538   1.603   2.177   0.252 -0.3902  0.1074  0.2196
19708TIP3    H180539   1.629   2.261   0.288 -0.0327 -0.1371  0.5308
19708TIP3    H280540   1.526   2.197   0.199 -0.2115  0.6561  0.1619
19709TIP3   OH280541   6.148   2.283   5.673  0.6693 -0.6531  0.6426
19709TIP3    H180542   6.055   2.305   5.681  0.6547  0.0386 -1.1828
19709TIP3    H280543   6.169   2.238   5.754 -1.4881 -1.5956  0.7009
19710TIP3   OH280544   6.050   2.975  14.257 -0.4070 -0.1216  0.4238
19710TIP3    H180545   5.987   3.047  14.267 -0.3471 -0.0514  0.2874
19710TIP3    H280546   6.122   3.012  14.207 -0.1433 -0.1311  0.7895
19711TIP3   OH280547   3.385   2.998   0.701 -0.1932  0.3399 -0.9250
19711TIP3    H180548   3.345   2.981   0.616 -0.3115 -0.2325 -0.7516
19711TIP3    H280549   3.441   2.922   0.718  2.8517  2.1717 -2.2597
19712TIP3   OH280550   5.262   5.455  14.999  0.2742  0.3634 -0.0548
19712TIP3    H180551   5.263   5.377  14.944 -1.1175  0.3872 -0.1167
19712TIP3    H280552   5.349   5.457  15.040  0.0797 -1.5637  0.4608
19713TIP3   OH280553   0.446   5.840  12.966  0.5328 -0.6839 -0.4796
19713TIP3    H180554   0.376   5.853  12.903  0.0252 -1.5437 -0.0933
19713TIP3    H280555   0.413   5.877  13.047 -0.0921 -2.4715  0.0924
19714TIP3   OH280556   5.061   3.295  11.659 -0.2114 -0.6587 -0.7034
19714TIP3    H180557   4.980   3.253  11.688 -0.4000 -0.1529 -0.4791
19714TIP3    H280558   5.123   3.223  11.647  0.1086 -0.8535  1.7187
19715TIP3   OH280559   6.329   3.224   1.606  0.2498  0.4850 -0.0478
19715TIP3    H180560   6.324   3.284   1.681  3.3451  0.1221  0.5307
19715TIP3    H280561   6.284   3.271   1.536 -1.0933  1.6358  1.5229
19716TIP3   OH280562   0.649   0.454   6.639  0.0991  0.5462  0.2763
19716TIP3    H180563   0.629   0.401   6.716  1.8676 -0.9206 -0.2346
19716TIP3    H280564   0.571   0.447   6.584 -0.6464  0.5132  1.3175
19717TIP3   OH280565   5.878   6.556  13.593 -0.1342 -0.9650 -0.4758
19717TIP3    H180566   5.914   6.483  13.542  0.6852 -0.6796 -0.3189
19717TIP3    H280567   5.856   6.517  13.678 -0.9424 -1.3088 -0.8321
19718TIP3   OH280568   3.958   6.218   5.141  0.1857  0.0544 -0.1331
19718TIP3    H180569   4.053   6.220   5.154  0.3207  1.2730 -1.2339
19718TIP3    H280570   3.922   6.263   5.217  0.7054  2.7203 -1.4013
19719TIP3   OH280571   3.294   0.067  14.533 -0.3908 -0.2867  0.0543
19719TIP3    H180572   3.339   0.085  14.450  2.1280  0.1804  1.4707
19719TIP3    H280573   3.224   0.133  14.537  2.1169  2.4576  0.2295
19720TIP3   OH280574   5.445   4.086   2.951  0.4311  0.7168  0.4006
19720TIP3    H180575   5.517   4.134   2.993 -0.0104  0.9534  0.8972
19720TIP3    H280576   5.429   4.011   3.009  2.0065 -0.7897 -1.0665
19721TIP3   OH280577   0.216   6.097   3.239 -0.3873  0.1094  0.2279
19721TIP3    H180578   0.123   6.097   3.216 -0.3988 -2.5897  0.1230
19721TIP3    H280579   0.218   6.131   3.328 -1.7457 -1.7635  1.0228
19722TIP3   OH280580   4.204   4.398   1.341 -0.2048  0.1341 -0.2518
19722TIP3    H180581   4.222   4.317   1.388  0.4169  0.8078  0.6817
19722TIP3    H280582   4.117   4.385   1.303 -0.5376 -0.5751  0.7341
19723TIP3   OH280583   0.849   2.478  12.607 -0.4075 -0.0655 -0.3678
19723TIP3    H180584   0.826   2.513  12.521 -0.4972  0.3205 -0.1884
19723TIP3    H280585   0.902   2.401  12.588 -0.9467 -0.3365 -0.7712
19724TIP3   OH280586   3.702   2.998  15.003  0.8010  0.3104 -0.8048
19724TIP3    H180587   3.702   3.088  14.970  0.5399  0.1116 -1.3528
19724TIP3    H280588   3.789   2.964  14.980  1.0255  0.5302 -0.2935
19725TIP3   OH280589   4.693   0.193   1.591  0.6752 -0.0026  0.6007
19725TIP3    H180590   4.622   0.257   1.598  0.3030 -0.0460 -2.1711
19725TIP3    H280591   4.655   0.112   1.627  0.2071  0.6188  1.5289
19726TIP3   OH280592   5.506   1.653   0.231 -0.2676  0.2861  0.1586
19726TIP3    H180593   5.476   1.590   0.296  2.0790 -0.4882  0.5412
19726TIP3    H280594   5.535   1.729   0.282  2.2426 -0.6006  0.1185
19727TIP3   OH280595   4.632   5.354   1.697  0.3540 -0.0143  0.3613
19727TIP3    H180596   4.585   5.279   1.662 -0.1278  0.7440 -0.6856
19727TIP3    H280597   4.590   5.373   1.780  0.5543 -0.9639  0.6844
19728TIP3   OH280598   1.186   0.716  11.428 -0.1471  0.0126 -0.3798
19728TIP3    H180599   1.126   0.699  11.355  1.3501  0.8566 -1.8294
19728TIP3    H280600   1.205   0.629  11.464 -0.7555 -0.4270 -1.0957
19729TIP3   OH280601   6.176   2.577   4.436  0.4512 -0.8856  0.1680
19729TIP3    H180602   6.253   2.525   4.457  0.2259 -0.7125  1.4843
19729TIP3    H280603   6.181   2.653   4.494 -1.5345 -1.6794  1.4468
19730TIP3   OH280604   5.417   6.392   3.885 -0.2311 -0.4603 -0.6132
19730TIP3    H180605   5.448   6.343   3.809  1.0285 -2.0320  0.8655
19730TIP3    H280606   5.438   6.483   3.866  0.9585 -0.9546 -1.7289
19731TIP3   OH280607   0.509   0.437   1.563  0.3243  0.1839 -0.0448
19731TIP3    H180608   0.422   0.474   1.546  0.9958  1.2263 -1.3196
19731TIP3    H280609   0.562   0.512   1.590  0.0862 -0.9243  3.9158
19732TIP3   OH280610   5.684   1.053  11.123  0.1983 -0.3555 -0.3207
19732TIP3    H180611   5.641   1.096  11.197 -1.4510 -1.6977 -0.4627
19732TIP3    H280612   5.766   1.020  11.159  0.1242  0.3588  0.5199
19733TIP3   OH280613   2.846   5.752   5.106 -0.5119  0.0344 -0.1365
19733TIP3    H180614   2.924   5.701   5.129 -0.7350 -0.0263  0.5099
19733TIP3    H280615   2.851   5.830   5.162 -0.9896 -0.0390  0.0081
19734TIP3   OH280616   5.167   4.503  16.336 -0.2886 -0.2399 -0.3116
19734TIP3    H180617   5.238   4.520  16.398 -1.9722  0.7892  1.3816
19734TIP3    H280618   5.208   4.449  16.268  2.3076  0.9878  0.1845
19735TIP3   OH280619   5.370   0.686   2.965  0.0753 -0.0712  0.2734
19735TIP3    H180620   5.446   0.631   2.983 -0.9223 -1.0417  1.5891
19735TIP3    H280621   5.347   0.724   3.050 -0.4734  0.7953 -0.2487
19736TIP3   OH280622   3.342   5.200   0.694 -0.0467 -0.1013  0.3219
19736TIP3    H180623   3.309   5.285   0.665 -0.8434  0.0199  1.5638
19736TIP3    H280624   3.411   5.179   0.631  0.0415  1.3806 -0.0999
19737TIP3   OH280625   1.195   6.039   5.410  0.4341 -0.1922 -0.0958
19737TIP3    H180626   1.191   5.945   5.428  0.7491 -0.2628 -0.3801
19737TIP3    H280627   1.195   6.081   5.496 -0.3808 -0.4258  0.0197
19738TIP3   OH280628   1.763   6.075  13.245 -0.2987 -0.2021  0.2096
19738TIP3    H180629   1.831   6.127  13.202  0.3192 -1.3020 -0.1532
19738TIP3    H280630   1.746   6.003  13.184 -1.2953 -0.3138  0.6148
19739TIP3   OH280631   5.961   5.580  13.710 -0.0628 -0.5233  0.0593
19739TIP3    H180632   5.981   5.606  13.620 -1.7464 -0.3302 -0.2828
19739TIP3    H280633   5.988   5.654  13.763  2.6037 -1.3443 -0.0779
19740TIP3   OH280634   6.084   4.708  16.444  0.4197 -0.1040 -0.4190
19740TIP3    H180635   6.103   4.691  16.351  2.5510  0.4957 -0.1266
19740TIP3    H280636   6.154   4.767  16.472  0.0003 -0.5535  1.6644
19741TIP3   OH280637   2.918   5.036  13.379  0.0367  0.6473  1.0046
19741TIP3    H180638   3.009   5.054  13.399 -0.3113  0.1886  3.0414
19741TIP3    H280639   2.872   5.045  13.462 -1.3930 -1.5858  0.4940
19742TIP3   OH280640   4.704   3.004  16.605 -0.6063  0.0246  0.2878
19742TIP3    H180641   4.674   2.932  16.549 -1.3825  0.8331 -0.3772
19742TIP3    H280642   4.796   3.015  16.583 -0.1429 -1.5940  1.3289
19743TIP3   OH280643   6.444   5.564   2.970 -0.7233  0.4340 -0.0346
19743TIP3    H180644   6.484   5.540   3.053 -0.5743  0.3926 -0.1180
19743TIP3    H280645   6.405   5.482   2.938  0.1738  0.1957 -0.5347
19744TIP3   OH280646   3.476   4.702   4.785  0.0614 -0.2052 -0.1204
19744TIP3    H180647   3.415   4.666   4.721 -2.0838 -0.4778  2.0086
19744TIP3    H280648   3.424   4.712   4.865  2.1879  1.8924  1.0597
19745TIP3   OH280649   6.494   0.694   2.663  0.4611 -0.3577 -0.2840
19745TIP3    H180650   6.415   0.655   2.624 -0.2924  2.0899 -1.3209
19745TIP3    H280651   6.463   0.775   2.704  1.9107 -0.9969  2.1461
19746TIP3   OH280652   5.065   5.949   2.488  0.4892 -0.1236 -0.2073
19746TIP3    H180653   5.064   6.030   2.537  0.5837 -0.1931 -0.0912
19746TIP3    H280654   4.973   5.922   2.484  0.5988 -0.7308  0.9534
19747TIP3   OH280655   6.535   5.518  12.496 -0.9318 -0.8075 -0.2536
19747TIP3    H180656   6.584   5.555  12.569 -1.9579  0.1851 -0.0590
19747TIP3    H280657   6.527   5.425  12.518 -1.6838 -0.4252  1.1548
19748TIP3   OH280658   6.002   0.666  16.348  0.0703  0.3364 -0.4168
19748TIP3    H180659   5.944   0.661  16.272 -0.7105  0.5333  0.1539
19748TIP3    H280660   6.002   0.759  16.371 -2.4958 -0.1593  1.9259
19749TIP3   OH280661   3.305   3.253  14.083 -0.2207  0.4387  0.1337
19749TIP3    H180662   3.377   3.192  14.099 -0.2247  0.4146  0.0593
19749TIP3    H280663   3.271   3.273  14.170 -0.4621  0.0422  0.1296
19750TIP3   OH280664   2.296   5.322  11.628  0.3088  0.3363 -0.3442
19750TIP3    H180665   2.253   5.239  11.606  1.3480 -0.5212  0.7439
19750TIP3    H280666   2.228   5.388  11.620 -1.0815 -0.9215  0.8597
19751TIP3   OH280667   0.107   2.641  14.674  0.0141 -0.1107  0.6156
19751TIP3    H180668   0.180   2.647  14.737  0.4259 -0.0125  0.1357
19751TIP3    H280669   0.134   2.572  14.613  0.9200  1.6961 -1.0986
19752TIP3   OH280670   1.091   5.128   6.308 -0.2157  0.5866 -0.0751
19752TIP3    H180671   1.123   5.218   6.301 -0.0815  0.4415 -1.4964
19752TIP3    H280672   1.011   5.127   6.255 -0.6310  0.0496  0.5449
19753TIP3   OH280673   1.239   4.315  14.756 -0.1738 -0.0803  0.1000
19753TIP3    H180674   1.273   4.391  14.803 -1.7004 -0.0590  1.2197
19753TIP3    H280675   1.157   4.294  14.801 -1.1219 -0.7371 -1.8529
19754TIP3   OH280676   5.509   4.692   3.580  0.3412 -0.3358 -0.5601
19754TIP3    H180677   5.552   4.612   3.612  0.3414 -0.3327 -0.5530
19754TIP3    H280678   5.415   4.674   3.590  0.2782 -1.0375 -2.2166
19755TIP3   OH280679   1.456   3.816   5.978  0.4454 -0.7907 -0.1123
19755TIP3    H180680   1.508   3.759   6.036  0.5481  0.4367  1.0138
19755TIP3    H280681   1.520   3.878   5.943  0.3797 -1.5090 -1.5554
19756TIP3   OH280682   5.500   3.685   0.103 -0.2288  0.3987 -0.0637
19756TIP3    H180683   5.529   3.632   0.028 -0.7412  0.4646 -0.3123
19756TIP3    H280684   5.574   3.683   0.163  0.6559  1.3728 -1.1042
19757TIP3   OH280685   0.894   5.993  14.650 -0.1617 -0.2704  0.5487
19757TIP3    H180686   0.810   6.020  14.613 -1.4841 -1.0068  2.9008
19757TIP3    H280687   0.937   6.075  14.675  0.2042  0.1567 -1.3867
19758TIP3   OH280688   0.252   5.627  15.972  0.1542 -0.9172  0.5304
19758TIP3    H180689   0.192   5.551  15.972  0.2921 -1.0454 -1.3547
19758TIP3    H280690   0.321   5.603  16.034  1.1672 -3.1492 -1.3787
19759TIP3   OH280691   2.020   2.672  15.446 -0.0173  0.2486  0.2449
19759TIP3    H180692   1.946   2.701  15.392 -0.2188  0.2451  0.5133
19759TIP3    H280693   2.062   2.603  15.395  1.7490  2.4410 -1.3705
19760TIP3   OH280694   0.480   3.946  11.372  0.0962  0.4256 -0.0225
19760TIP3    H180695   0.554   3.980  11.321  0.3133  0.7207  0.4816
19760TIP3    H280696   0.488   3.990  11.457 -0.0165 -0.3724  0.4059
19761TIP3   OH280697   6.270   2.482  12.582  0.2372  0.0313 -0.2194
19761TIP3    H180698   6.249   2.456  12.672 -0.3099 -1.0315 -0.6322
19761TIP3    H280699   6.324   2.410  12.548  2.7562  1.7150  0.1161
19762TIP3   OH280700   5.336   0.323  14.153 -0.3795 -0.0001  0.1489
19762TIP3    H180701   5.323   0.229  14.139  0.8310 -0.0802 -0.4949
19762TIP3    H280702   5.325   0.335  14.248 -0.1557 -0.8519  0.2891
19763TIP3   OH280703   1.740   1.101  14.005 -0.0691 -0.2096 -0.3673
19763TIP3    H180704   1.673   1.114  14.072  1.9182 -1.0162  1.8349
19763TIP3    H280705   1.739   1.183  13.955  0.3738  1.5843  2.4553
19764TIP3   OH280706   1.888   0.046  11.599  0.0560 -0.1204  0.0675
19764TIP3    H180707   1.898   0.116  11.664  0.9248  0.4788 -0.7057
19764TIP3    H280708   1.905   0.089  11.515  1.9362 -1.5700 -0.3039
19765TIP3   OH280709   1.194   6.027  16.043  0.3828 -0.0405 -0.3902
19765TIP3    H180710   1.184   6.031  15.948  0.5667 -1.1292 -0.4627
19765TIP3    H280711   1.288   6.038  16.058  0.0725  2.8291 -0.1509
19766TIP3   OH280712   4.392   0.255  13.598 -0.4596 -0.1829 -0.7717
19766TIP3    H180713   4.419   0.165  13.577  0.0807 -0.3322  0.5353
19766TIP3    H280714   4.297   0.249  13.608 -0.5455 -0.4109 -1.6490
19767TIP3   OH280715   2.280   5.215  13.266  0.2902 -0.1493 -0.0131
19767TIP3    H180716   2.259   5.305  13.290 -0.3412 -0.0970 -0.7184
19767TIP3    H280717   2.275   5.214  13.171  0.1677 -0.9598 -0.0026
19768TIP3   OH280718   2.167   4.008   5.990 -0.0044  0.5870 -0.1257
19768TIP3    H180719   2.159   4.079   6.054 -1.0102 -0.3122  0.7843
19768TIP3    H280720   2.214   3.939   6.038 -2.6496 -0.9225  0.4078
19769TIP3   OH280721   0.357   4.939  16.785 -0.2083 -0.0813  0.3456
19769TIP3    H180722   0.276   4.890  16.793 -0.7609  0.4827 -1.4948
19769TIP3    H280723   0.329   5.029  16.769  0.7623  0.1244 -0.2671
19770TIP3   OH280724   3.116   0.642  14.638 -0.4296  0.2474 -0.1617
19770TIP3    H180725   3.193   0.689  14.606  0.1012 -1.6023 -1.6298
19770TIP3    H280726   3.111   0.563  14.585 -2.3233 -0.5367  1.1115
19771TIP3   OH280727   4.318   5.111   4.447  0.8639  0.0778 -0.6180
19771TIP3    H180728   4.340   5.173   4.517 -1.2043 -2.0831  2.1075
19771TIP3    H280729   4.386   5.044   4.452  0.1475 -0.6248  0.1208
19772TIP3   OH280730   5.664   4.907   1.163  0.3686  0.7304  0.1703
19772TIP3    H180731   5.619   4.965   1.101 -0.2351  0.2375  0.1410
19772TIP3    H280732   5.722   4.854   1.108 -1.0468 -0.5371 -0.1348
19773TIP3   OH280733   1.174   4.102   4.381 -0.0037 -0.3698 -0.4102
19773TIP3    H180734   1.234   4.061   4.442 -1.9284 -1.8567  0.5481
19773TIP3    H280735   1.190   4.059   4.297  0.7399 -0.2632 -0.3204
19774TIP3   OH280736   4.566   5.517  16.151 -0.3152 -0.5017  0.0451
19774TIP3    H180737   4.610   5.432  16.151  0.4910 -0.0940  0.2181
19774TIP3    H280738   4.595   5.559  16.070  2.5529  1.2386  1.8697
19775TIP3   OH280739   4.112   4.998   1.598  0.0464 -0.0354  0.0360
19775TIP3    H180740   4.142   5.070   1.654 -0.8910  0.0853  0.3920
19775TIP3    H280741   4.162   4.923   1.628 -0.0858  0.1405  0.7062
19776TIP3   OH280742   2.732   3.889   4.251  0.0725 -0.0637  0.5077
19776TIP3    H180743   2.662   3.950   4.226  0.6590  0.0972 -0.7534
19776TIP3    H280744   2.747   3.836   4.173  1.2890 -0.1721  0.8096
19777TIP3   OH280745   0.887   4.231   2.856  0.1980  0.3977 -0.4616
19777TIP3    H180746   0.904   4.163   2.920 -0.6250  0.2081 -0.4428
19777TIP3    H280747   0.792   4.230   2.844  0.2552  1.0400 -1.0070
19778TIP3   OH280748   4.861   5.521  12.266  0.3934  0.3144  0.1458
19778TIP3    H180749   4.844   5.493  12.356 -3.4761  2.5179  0.2181
19778TIP3    H280750   4.833   5.446  12.212 -2.4977  0.9536  0.6476
19779TIP3   OH280751   5.984   5.810   3.458  0.9519 -0.0977  0.0646
19779TIP3    H180752   5.895   5.809   3.424  0.3640 -1.3272  1.5668
19779TIP3    H280753   6.038   5.782   3.385  0.1869  1.1657 -1.0173
19780TIP3   OH280754   5.926   1.916  16.516  0.2713 -0.5657  0.3443
19780TIP3    H180755   5.845   1.967  16.524  0.6697  0.0057  0.7010
19780TIP3    H280756   5.994   1.981  16.503  1.1258 -0.8537  3.1773
19781TIP3   OH280757   3.158   0.551   1.014  0.1886  0.3744  0.2390
19781TIP3    H180758   3.242   0.514   1.043  0.5512  1.0285  0.0381
19781TIP3    H280759   3.093   0.511   1.072  0.3799 -1.7616 -0.9713
19782TIP3   OH280760   2.620   4.716  16.259  0.1662  0.1201 -0.2851
19782TIP3    H180761   2.600   4.665  16.180  1.6474  0.6053 -0.9901
19782TIP3    H280762   2.627   4.651  16.328  0.8811 -0.5232 -0.9533
19783TIP3   OH280763   5.216   5.027   5.803 -0.1018  0.2662 -0.0974
19783TIP3    H180764   5.154   5.075   5.858 -1.2071 -0.3743 -0.7569
19783TIP3    H280765   5.297   5.078   5.807 -0.7440  1.2515  0.5767
19784TIP3   OH280766   1.994   5.762   3.594 -0.4604 -0.1797 -0.2196
19784TIP3    H180767   1.899   5.764   3.609 -0.2904 -0.1768  0.9300
19784TIP3    H280768   2.009   5.831   3.530 -1.4101 -1.1453 -1.5198
19785TIP3   OH280769   4.736   2.863  15.583 -0.6306 -0.4744  0.2368
19785TIP3    H180770   4.769   2.866  15.673 -1.2935 -0.8560  0.4957
19785TIP3    H280771   4.736   2.954  15.555 -0.3399 -0.3610  0.5914
19786TIP3   OH280772   4.894   6.552   2.961  0.1383  0.0414  0.4461
19786TIP3    H180773   4.805   6.555   2.994 -0.2385 -0.3549 -0.5302
19786TIP3    H280774   4.949   6.558   3.040 -0.7379  0.1138  1.0585
19787TIP3   OH280775   3.104   5.669  12.598 -0.4281 -0.7174 -0.7116
19787TIP3    H180776   3.037   5.617  12.553 -0.3287 -2.2412  0.8703
19787TIP3    H280777   3.056   5.721  12.662 -0.3302 -0.1918 -1.0644
19788TIP3   OH280778   3.045   3.383   3.106  0.1875 -0.5614  0.3511
19788TIP3    H180779   3.066   3.475   3.090  2.4969 -1.0272  0.5554
19788TIP3    H280780   3.039   3.344   3.019  0.1337 -0.4094  0.2868
19789TIP3   OH280781   6.524   6.007  12.947 -0.4631 -0.6694 -0.3368
19789TIP3    H180782   6.509   6.095  12.914  0.0704 -0.5024 -0.1373
19789TIP3    H280783   6.454   5.954  12.907 -0.5901 -0.2243 -0.7068
19790TIP3   OH280784   4.208   0.020  11.111 -0.4492  0.1376  0.2603
19790TIP3    H180785   4.294   0.027  11.071 -0.3828 -1.2826  0.1410
19790TIP3    H280786   4.172  -0.062  11.078 -1.1454 -0.1416  1.6467
19791TIP3   OH280787   6.374   1.878  16.668  0.5708 -0.1662  0.6095
19791TIP3    H180788   6.318   1.953  16.689  0.5715 -0.0505  0.2025
19791TIP3    H280789   6.351   1.855  16.578 -1.2024 -2.2039  1.5336
19792TIP3   OH280790   2.764   5.938  11.045 -0.4455  0.5982  0.9008
19792TIP3    H180791   2.740   5.930  10.953  1.1489 -1.1275  0.5852
19792TIP3    H280792   2.733   5.856  11.084  1.7332 -0.1117  1.1942
19793TIP3   OH280793   5.956   1.213  12.277  0.0602 -0.1286  0.2543
19793TIP3    H180794   5.996   1.152  12.339  1.5412 -0.1631 -0.6946
19793TIP3    H280795   6.024   1.278  12.260 -0.9453  0.8722  0.0181
19794TIP3   OH280796   5.496   2.578   5.896  0.3118 -0.2022  0.1436
19794TIP3    H180797   5.429   2.617   5.952 -0.7995  0.8493 -1.8588
19794TIP3    H280798   5.516   2.646   5.832  0.6019 -1.8372 -1.5253
19795TIP3   OH280799   1.826   5.708  13.826 -0.1197  0.1119  0.2084
19795TIP3    H180800   1.890   5.756  13.774  0.3570 -0.4748  0.2556
19795TIP3    H280801   1.754   5.689  13.765 -0.5072  1.2573  0.2974
19796TIP3   OH280802   2.995   5.284   2.018  0.2713  0.3836 -0.2853
19796TIP3    H180803   2.943   5.276   1.938  0.0527  1.0511 -0.2173
19796TIP3    H280804   2.932   5.306   2.086 -0.0152 -3.2988  0.7393
19797TIP3   OH280805   2.718   1.629   2.833  0.2350 -0.2827  0.1976
19797TIP3    H180806   2.784   1.668   2.891 -1.2513 -1.3816  2.7044
19797TIP3    H280807   2.702   1.542   2.870 -1.6436 -0.5512 -1.1969
19798TIP3   OH280808   0.111   4.401  12.317  0.1643  0.2079  0.2441
19798TIP3    H180809   0.194   4.440  12.342  1.1778 -1.2496 -0.8003
19798TIP3    H280810   0.096   4.432  12.227 -0.0065 -0.1918  0.1309
19799TIP3   OH280811   1.816   0.264   4.896  0.2630 -0.1401  0.0245
19799TIP3    H180812   1.864   0.186   4.868  1.7862  0.8906 -0.3293
19799TIP3    H280813   1.882   0.334   4.895 -1.3985  1.4616 -1.0893
19800TIP3   OH280814   4.007   1.117  10.785  0.3818  0.4915 -0.5356
19800TIP3    H180815   3.982   1.150  10.871  0.2204  0.1729 -0.4624
19800TIP3    H280816   4.092   1.075  10.798  0.2743  0.2885 -0.4991
19801TIP3   OH280817   1.201   5.867   0.293 -0.3643  0.3638  0.2568
19801TIP3    H180818   1.239   5.780   0.305  0.1385  0.4372 -0.7803
19801TIP3    H280819   1.268   5.927   0.326 -1.6504  0.2846  3.1897
19802TIP3   OH280820   4.188   2.528   5.048 -0.5397  0.3856 -0.4106
19802TIP3    H180821   4.234   2.489   5.122 -1.5762 -1.3940 -0.6758
19802TIP3    H280822   4.098   2.537   5.076 -0.7565  0.5612 -1.1328
19803TIP3   OH280823   3.300   2.765   1.307  0.3172  0.2113  0.1722
19803TIP3    H180824   3.224   2.783   1.252 -0.6453 -1.0887  1.0471
19803TIP3    H280825   3.293   2.829   1.379  0.7863  0.9582 -0.4376
19804TIP3   OH280826   5.120   4.563   6.089  0.3895  0.0840 -0.0577
19804TIP3    H180827   5.175   4.555   6.011  0.8351  1.4415  0.0898
19804TIP3    H280828   5.030   4.556   6.057  0.5128  2.1701 -0.9429
19805TIP3   OH280829   5.922   2.932   5.743  0.0601 -0.3655  0.4437
19805TIP3    H180830   5.945   3.013   5.789 -0.2023  0.3289 -0.6231
19805TIP3    H280831   5.891   2.873   5.812 -1.1188  0.9513  1.0610
19806TIP3   OH280832   0.336   5.716  14.518  0.0708  0.8248 -0.5026
19806TIP3    H180833   0.327   5.621  14.509 -0.2013  0.5841  1.8866
19806TIP3    H280834   0.408   5.727  14.581 -1.9631  2.1090  1.6453
19807TIP3   OH280835   2.928   3.850  16.218 -0.6018  0.3117 -0.6292
19807TIP3    H180836   2.863   3.787  16.188 -0.6890  0.1470 -0.0967
19807TIP3    H280837   3.000   3.841  16.155  0.4397 -2.0931  0.8531
19808TIP3   OH280838   3.543   5.985  12.653  0.2442 -0.3763  0.6886
19808TIP3    H180839   3.601   6.006  12.579 -0.9007  1.0535  0.1707
19808TIP3    H280840   3.478   5.926  12.617 -0.7886  0.9580  0.3366
19809TIP3   OH280841   1.920   0.970   1.537  0.1219 -0.2167  0.2505
19809TIP3    H180842   1.961   1.054   1.514  1.2783 -0.3469  1.7231
19809TIP3    H280843   1.914   0.923   1.454  0.9009  0.7230 -0.3564
19810TIP3   OH280844   1.291   2.748  15.698 -0.0307 -0.3007  0.7597
19810TIP3    H180845   1.284   2.654  15.710 -1.1046 -0.1378  1.4865
19810TIP3    H280846   1.331   2.780  15.779  0.4771 -0.1437  0.4530
19811TIP3   OH280847   1.751   3.025  14.079  0.0541  0.1851 -0.1998
19811TIP3    H180848   1.841   2.999  14.097 -0.0362  0.6290  0.9674
19811TIP3    H280849   1.720   3.062  14.162 -2.2187 -2.8723  0.3767
19812TIP3   OH280850   2.641   3.637   0.242 -0.6717 -0.1088  0.7284
19812TIP3    H180851   2.594   3.554   0.238 -0.5558 -0.2708  2.3963
19812TIP3    H280852   2.714   3.626   0.180 -0.2910 -1.4836  1.4006
19813TIP3   OH280853   3.352   6.706   4.536 -0.0566  0.3571  0.0467
19813TIP3    H180854   3.260   6.699   4.510 -0.1638  1.7584 -0.0153
19813TIP3    H280855   3.398   6.732   4.457  0.2616  0.5121  0.2804
19814TIP3   OH280856   4.553   6.249  14.197 -0.0100 -0.1288  0.0163
19814TIP3    H180857   4.467   6.273  14.163  0.3335  1.2020  0.0641
19814TIP3    H280858   4.535   6.181  14.262 -1.2817  1.9358  1.8817
19815TIP3   OH280859   0.648   6.389   3.859 -0.1215 -0.1612 -0.4243
19815TIP3    H180860   0.553   6.381   3.866 -0.1251  0.5451  0.2904
19815TIP3    H280861   0.672   6.325   3.792 -1.0639 -0.5583 -0.3872
19816TIP3   OH280862   1.796   3.463   3.299 -0.7799  0.0371 -0.3887
19816TIP3    H180863   1.866   3.506   3.347  0.6473 -1.7300 -0.8066
19816TIP3    H280864   1.794   3.374   3.335 -3.1237  0.1886 -0.0688
19817TIP3   OH280865   4.286   3.482   0.212 -0.1753  0.1420 -0.1136
19817TIP3    H180866   4.205   3.474   0.161 -0.1146 -0.2593 -0.1506
19817TIP3    H280867   4.325   3.564   0.182  0.1163 -0.3374 -1.1038
19818TIP3   OH280868   5.319   5.739  15.677  0.7348  1.1320  0.0817
19818TIP3    H180869   5.279   5.746  15.763 -2.1899  2.3018 -1.2949
19818TIP3    H280870   5.356   5.651  15.674 -0.9007  0.3631  1.7955
19819TIP3   OH280871   1.144   2.697   5.765 -0.3270 -0.3316 -0.0669
19819TIP3    H180872   1.063   2.727   5.807  0.2457  1.7752 -0.3931
19819TIP3    H280873   1.211   2.758   5.797  0.6950 -0.6153 -1.6144
19820TIP3   OH280874   0.537   4.183  16.805 -0.3728  0.0224  0.0502
19820TIP3    H180875   0.463   4.196  16.863  0.1485  0.0579  0.7078
19820TIP3    H280876   0.502   4.132  16.732 -0.9328 -0.3627  0.5865
19821TIP3   OH280877   0.630   0.144  16.217 -0.7167  0.4721 -0.4861
19821TIP3    H180878   0.572   0.084  16.264  0.1475  0.5836  0.7526
19821TIP3    H280879   0.716   0.103  16.221 -0.0001  2.0651  0.9000
19822TIP3   OH280880   5.409   1.751  13.661 -0.5997  0.3143 -0.1204
19822TIP3    H180881   5.399   1.670  13.711 -1.1599  1.5783  1.8638
19822TIP3    H280882   5.351   1.740  13.586  0.3798 -1.6813 -0.6128
19823TIP3   OH280883   4.132   2.273  15.321 -0.5871  0.4112  0.2004
19823TIP3    H180884   4.098   2.230  15.400 -0.6004 -0.0707 -0.0629
19823TIP3    H280885   4.224   2.248  15.318 -0.4914  0.7469  0.2715
19824TIP3   OH280886   3.695   0.423  16.466  0.4960 -0.1988  0.1732
19824TIP3    H180887   3.620   0.379  16.506  0.1135  0.5911  0.3266
19824TIP3    H280888   3.746   0.352  16.427 -0.8261 -0.6582 -0.7495
19825TIP3   OH280889   4.064   0.486   4.301 -0.4046 -0.1858 -0.0045
19825TIP3    H180890   4.021   0.410   4.341 -0.4315  0.3752  1.0436
19825TIP3    H280891   4.065   0.552   4.370 -2.0086  1.4291 -1.4934
19826TIP3   OH280892   5.721   5.825   3.413  0.1648 -0.1628  0.1218
19826TIP3    H180893   5.672   5.744   3.421  0.0472 -0.1155 -0.0970
19826TIP3    H280894   5.655   5.891   3.394  0.2232  0.0453  0.6557
19827TIP3   OH280895   4.377   4.199  12.073 -0.1469  0.3263  0.0397
19827TIP3    H180896   4.343   4.114  12.102  0.4307 -0.7870 -2.3836
19827TIP3    H280897   4.302   4.258  12.080 -1.2572 -0.9772 -0.6394
19828TIP3   OH280898   2.609   4.462   5.051 -0.3549 -0.0119 -0.3147
19828TIP3    H180899   2.540   4.496   4.994 -0.1568  0.8369 -0.0602
19828TIP3    H280900   2.623   4.373   5.021 -2.5947 -0.6954  0.5918
19829TIP3   OH280901   4.012   2.526  15.571  0.7813  0.0705  0.5770
19829TIP3    H180902   4.096   2.483  15.588  0.7798  0.8917  2.6986
19829TIP3    H280903   3.958   2.505  15.646 -1.3090 -1.3118 -1.2536
19830TIP3   OH280904   3.175   4.478   0.873  0.8849  0.1865 -0.2105
19830TIP3    H180905   3.228   4.541   0.921  0.2540 -0.8341  1.9078
19830TIP3    H280906   3.227   4.397   0.874 -0.4344 -0.6824  1.4542
19831TIP3   OH280907   1.204   5.815  16.275 -0.6455 -0.3944  0.5491
19831TIP3    H180908   1.166   5.832  16.188 -0.7631  1.1046  0.8977
19831TIP3    H280909   1.236   5.899  16.305 -1.1352 -0.7898  2.2300
19832TIP3   OH280910   5.329   3.592  14.439  0.0483  0.2871 -0.6138
19832TIP3    H180911   5.402   3.635  14.393  0.8148 -0.6082 -0.2580
19832TIP3    H280912   5.304   3.520  14.381  0.7241 -0.5734  0.1384
19833TIP3   OH280913   6.194   3.904  14.718  0.3189 -0.1495  0.8460
19833TIP3    H180914   6.138   3.981  14.710  0.2100 -0.3597 -0.5722
19833TIP3    H280915   6.143   3.843  14.772 -0.9553 -0.4307 -0.6240
19834TIP3   OH280916   3.470   3.950   3.677  0.3187 -0.2951 -0.2176
19834TIP3    H180917   3.526   3.894   3.623  0.1546 -2.2183  1.5395
19834TIP3    H280918   3.387   3.902   3.682  0.6286 -0.6104  2.4752
19835TIP3   OH280919   0.692   1.478  15.233 -0.3873  0.3387  0.3506
19835TIP3    H180920   0.779   1.458  15.268 -1.3131 -2.7818  1.0016
19835TIP3    H280921   0.703   1.476  15.138  0.0952 -0.7681  0.4231
19836TIP3   OH280922   1.777   1.117  10.674  0.2576 -0.0734 -0.6350
19836TIP3    H180923   1.745   1.193  10.723 -0.3034  0.3315 -1.6078
19836TIP3    H280924   1.838   1.074  10.733 -1.0255 -0.0540  0.7344
19837TIP3   OH280925   0.923   3.759  14.890 -0.2201  0.3703 -0.0625
19837TIP3    H180926   0.892   3.670  14.907  0.0484  0.5600  1.5657
19837TIP3    H280927   0.859   3.795  14.829 -0.4229 -0.8807 -0.6047
19838TIP3   OH280928   5.748   1.809   0.734 -0.2818  0.3187 -0.0332
19838TIP3    H180929   5.720   1.738   0.676  2.8849  0.9153 -2.4302
19838TIP3    H280930   5.782   1.765   0.812 -2.3125 -0.5857  0.3681
19839TIP3   OH280931   1.156   3.695  15.608  0.0165  0.7832 -0.0840
19839TIP3    H180932   1.135   3.603  15.594  0.4945  0.8325 -1.1898
19839TIP3    H280933   1.134   3.711  15.700  3.4991 -1.3900  1.2118
19840TIP3   OH280934   4.675   4.832   3.383 -0.6880 -0.0173 -0.2421
19840TIP3    H180935   4.656   4.856   3.292  0.3907  0.5835 -0.3180
19840TIP3    H280936   4.759   4.875   3.402 -0.5121 -0.7934  0.7792
19841TIP3   OH280937   0.889   0.295  15.231 -0.2385 -0.4669  0.0953
19841TIP3    H180938   0.796   0.274  15.234 -0.3771  0.1667  0.1219
19841TIP3    H280939   0.895   0.385  15.263  0.2415 -0.0361 -1.1836
19842TIP3   OH280940   5.953   3.235   4.546 -0.2876 -0.0590 -0.5051
19842TIP3    H180941   6.037   3.190   4.548 -0.6545 -0.7231  0.0760
19842TIP3    H280942   5.914   3.212   4.462 -0.6364 -1.1290 -0.0556
19843TIP3   OH280943   6.278   4.552   6.142  0.0629 -0.4885  0.2735
19843TIP3    H180944   6.288   4.626   6.083 -1.2687 -0.1007  0.5079
19843TIP3    H280945   6.366   4.517   6.154  0.2922 -0.7964 -2.2323
19844TIP3   OH280946   3.099   4.497   2.254  0.2363 -0.0496 -0.5097
19844TIP3    H180947   3.071   4.585   2.281  0.3484 -0.0089 -0.5291
19844TIP3    H280948   3.073   4.441   2.327  1.8639  0.2733  0.3325
19845TIP3   OH280949   3.908   5.678   0.631 -0.5523  0.0863 -0.4864
19845TIP3    H180950   3.946   5.762   0.656  0.2557 -0.9838  2.0787
19845TIP3    H280951   3.813   5.692   0.633 -0.5025  0.1954  2.8393
19846TIP3   OH280952   1.664   5.685  14.050 -0.4827 -0.2944 -0.4041
19846TIP3    H180953   1.644   5.777  14.071 -0.9792 -0.5430  0.2291
19846TIP3    H280954   1.727   5.690  13.979 -1.7068  0.5274 -1.4495
19847TIP3   OH280955   2.408   3.798   0.303 -0.2407  0.1876 -0.5815
19847TIP3    H180956   2.378   3.740   0.374  1.1994  2.0408  1.6330
19847TIP3    H280957   2.493   3.762   0.278  1.5053  2.2201  2.0379
19848TIP3   OH280958   4.098   3.970   2.564 -0.1227 -0.3859 -0.6209
19848TIP3    H180959   4.014   3.925   2.574  0.1175 -0.9921 -1.2448
19848TIP3    H280960   4.143   3.957   2.648 -0.3602 -0.6774 -0.5386
19849TIP3   OH280961   6.035   4.116  12.108 -0.3408  0.3149 -0.7879
19849TIP3    H180962   6.025   4.196  12.160  0.7866  0.7478 -1.2204
19849TIP3    H280963   6.067   4.051  12.171  0.0993  0.5767 -0.7444
19850TIP3   OH280964   3.890   1.038  11.252 -0.8789 -0.4991  0.8112
19850TIP3    H180965   3.897   1.084  11.335 -1.0187 -0.1387  0.6233
19850TIP3    H280966   3.870   1.106  11.188  2.1144 -0.3185 -0.0199
19851TIP3   OH280967   4.246   5.785  13.686  0.5476  0.8261  0.2260
19851TIP3    H180968   4.227   5.874  13.656 -0.0554  1.2760  1.8980
19851TIP3    H280969   4.314   5.753  13.626  1.4468  2.7583  0.1741
19852TIP3   OH280970   4.098   5.449   0.239 -0.0165 -0.1656 -0.2505
19852TIP3    H180971   4.184   5.492   0.244 -1.4711  2.7988  0.7084
19852TIP3    H280972   4.048   5.503   0.178 -1.5834 -1.1438  0.1502
19853TIP3   OH280973   4.008   3.468  11.309 -0.0142 -0.3632  0.2826
19853TIP3    H180974   4.054   3.520  11.374 -0.4169  1.2971 -0.7326
19853TIP3    H280975   4.054   3.485  11.227 -1.3271 -0.0564 -0.4132
19854TIP3   OH280976   1.189   3.882  15.979 -0.0812 -0.2510  0.2458
19854TIP3    H180977   1.135   3.827  15.921  0.1557 -1.0305  0.7657
19854TIP3    H280978   1.277   3.876  15.942 -0.4896  1.7757 -1.1592
19855TIP3   OH280979   5.132   5.826  15.401 -0.1400 -0.2940  0.2963
19855TIP3    H180980   5.189   5.843  15.476 -1.1304 -0.8372  1.1745
19855TIP3    H280981   5.154   5.737  15.374  0.9817  0.2792 -0.7481
19856TIP3   OH280982   1.306   6.396   0.277 -0.3852 -0.1873 -0.3718
19856TIP3    H180983   1.384   6.451   0.277  0.1117 -0.8605  0.7916
19856TIP3    H280984   1.255   6.425   0.201  0.3894  1.1095 -0.4003
19857TIP3   OH280985   6.060   4.611   0.815  1.2026 -0.1535  0.3686
19857TIP3    H180986   6.035   4.654   0.733  1.9198  1.1263  0.7994
19857TIP3    H280987   5.979   4.603   0.864  0.3310 -3.0835 -1.4109
19858TIP3   OH280988   1.779   0.409   1.614 -0.2339  0.3039 -0.7368
19858TIP3    H180989   1.796   0.354   1.691 -2.5197  0.2713 -0.2218
19858TIP3    H280990   1.696   0.376   1.579 -0.8272  2.4021 -1.3438
19859TIP3   OH280991   3.423   2.969   1.602  0.4512  0.0405  0.4837
19859TIP3    H180992   3.464   3.056   1.597  0.8531 -0.0849  1.4185
19859TIP3    H280993   3.334   2.986   1.633 -0.6186  0.4193 -2.6432
19860TIP3   OH280994   1.320   1.267   3.165  0.2866  0.8718 -0.3197
19860TIP3    H180995   1.349   1.177   3.176  0.6395  0.7765 -1.9441
19860TIP3    H280996   1.396   1.320   3.189  0.3283  0.7285 -0.1302
19861TIP3   OH280997   4.228   1.174   2.853 -0.1238  0.2875  0.3513
19861TIP3    H180998   4.228   1.103   2.918 -0.2252 -0.8745 -0.8992
19861TIP3    H280999   4.135   1.189   2.835 -0.1494  1.4976  1.4051
19862TIP3   OH281000   0.704   6.168  11.689  0.2723  0.7966  0.1123
19862TIP3    H181001   0.612   6.186  11.673  0.1342 -0.6429 -0.8623
19862TIP3    H281002   0.709   6.072  11.691  1.9688  0.8332 -1.2424
19863TIP3   OH281003   3.795   5.534   2.938  0.1383 -0.0270  0.4468
19863TIP3    H181004   3.821   5.493   2.856  3.1177  1.3039  0.6628
19863TIP3    H281005   3.708   5.571   2.921  0.1147 -0.9943 -1.6340
19864TIP3   OH281006   0.382   4.787  11.729 -0.3060  0.9709  0.3627
19864TIP3    H181007   0.327   4.861  11.704 -0.4304  0.8779  0.3595
19864TIP3    H281008   0.451   4.785  11.663 -1.2606  0.0372 -0.6225
19865TIP3   OH281009   2.380   1.286  15.445  0.5653 -0.7373 -0.0540
19865TIP3    H181010   2.308   1.227  15.423 -0.0734 -0.2657  0.7541
19865TIP3    H281011   2.447   1.230  15.484  0.4435 -1.0970 -0.3588
19866TIP3   OH281012   1.304   2.615   5.335  0.2670  0.8412 -0.0337
19866TIP3    H181013   1.276   2.542   5.280 -0.4875  0.0107  1.4233
19866TIP3    H281014   1.381   2.583   5.381  0.7719  1.4624 -0.4388
19867TIP3   OH281015   4.095   5.290  16.457 -0.0736  0.4734 -0.3420
19867TIP3    H181016   4.139   5.279  16.372 -0.1697 -2.0751 -0.0920
19867TIP3    H281017   4.018   5.235  16.450 -0.4687  0.8380  1.1584
19868TIP3   OH281018   5.652   0.259  13.751  0.1824 -0.2486 -0.1320
19868TIP3    H181019   5.657   0.349  13.719 -0.6073  0.7847  2.5124
19868TIP3    H281020   5.607   0.266  13.836 -0.3917 -3.2016 -0.1412
19869TIP3   OH281021   2.689   0.172   2.656 -0.5258  0.2412  0.0618
19869TIP3    H181022   2.675   0.185   2.749  2.4377 -2.0135  0.8921
19869TIP3    H281023   2.609   0.132   2.625 -0.3380 -1.9966  2.3297
19870TIP3   OH281024   0.484   6.634   0.798 -0.6960 -0.4598  0.6449
19870TIP3    H181025   0.469   6.727   0.783  1.3686 -0.2427 -0.1832
19870TIP3    H281026   0.509   6.628   0.890  0.5779  0.0073  0.3405
19871TIP3   OH281027   4.154   2.853   5.883  0.1091  0.5250 -0.1905
19871TIP3    H181028   4.248   2.840   5.895  0.3203  0.7476 -1.5010
19871TIP3    H281029   4.126   2.774   5.836 -0.6971 -0.3795  1.7744
19872TIP3   OH281030   0.087   0.026   1.118  0.7226  0.5763 -0.0232
19872TIP3    H181031   0.031   0.046   1.193 -0.2845  0.3346 -0.7102
19872TIP3    H281032   0.161   0.087   1.126 -0.3835  1.9201  0.0538
19873TIP3   OH281033   1.895   6.117   4.330 -0.2685 -0.1120  0.4619
19873TIP3    H181034   1.833   6.190   4.335  1.1463  1.1178  0.3299
19873TIP3    H281035   1.945   6.132   4.250 -0.8722 -1.9900 -0.3068
19874TIP3   OH281036   1.294   2.864   2.341 -0.6569 -0.4328  0.5291
19874TIP3    H181037   1.361   2.828   2.283  0.4659  0.0191  1.5230
19874TIP3    H281038   1.302   2.812   2.421 -1.4995 -0.3706  0.6523
19875TIP3   OH281039   3.530   4.289  11.104  0.6180  0.2642  0.3468
19875TIP3    H181040   3.482   4.215  11.142  1.5984 -0.5987 -0.0610
19875TIP3    H281041   3.605   4.249  11.060  0.7531  1.4469 -0.5228
19876TIP3   OH281042   6.695   6.467  12.832 -0.3057 -0.6046 -0.0845
19876TIP3    H181043   6.766   6.431  12.780 -0.2196  0.9870 -1.1233
19876TIP3    H281044   6.738   6.521  12.898 -0.4994 -0.6432  0.0726
19877TIP3   OH281045   0.102   3.043   5.039 -1.1102  0.3449 -0.1229
19877TIP3    H181046   0.035   3.103   5.007 -1.1157  0.4008 -0.0082
19877TIP3    H281047   0.060   2.957   5.041 -1.5257  0.5657  1.0211
19878TIP3   OH281048   0.597   0.628   3.650  0.0767 -0.5744  0.2229
19878TIP3    H181049   0.675   0.685   3.648  0.2502 -0.8139  0.1577
19878TIP3    H281050   0.632   0.541   3.667 -0.2386 -0.5780  0.8383
19879TIP3   OH281051   3.811   4.309  12.617 -0.1319 -0.3512 -0.0299
19879TIP3    H181052   3.823   4.330  12.524  1.8825 -0.6697  0.1364
19879TIP3    H281053   3.716   4.316  12.631 -0.2477  1.7441 -1.5993
19880TIP3   OH281054   4.831   4.805   2.429  0.0108 -0.5657 -0.1414
19880TIP3    H181055   4.881   4.723   2.437  1.3964  0.4966  2.6688
19880TIP3    H281056   4.879   4.854   2.362  0.5561 -1.0808 -0.1414
19881TIP3   OH281057   4.429   0.168  16.859  0.0828 -0.1315  0.2362
19881TIP3    H181058   4.393   0.239  16.912  1.0278  0.0643  0.6131
19881TIP3    H281059   4.524   0.181  16.862  0.2086 -0.8886 -0.4201
19882TIP3   OH281060   2.108   3.282  14.358  0.0945 -0.5176 -0.2330
19882TIP3    H181061   2.151   3.196  14.358  2.0719  0.4390  0.1403
19882TIP3    H281062   2.019   3.264  14.388  0.5290 -2.4116  0.0343
19883TIP3   OH281063   3.337   5.287  13.959  0.5016  0.9724  0.0185
19883TIP3    H181064   3.382   5.371  13.949  1.8697  0.3856  1.1012
19883TIP3    H281065   3.408   5.224  13.970 -0.4994 -0.4036 -1.2671
19884TIP3   OH281066   1.603   5.770  15.131 -0.6205 -0.2416 -0.0150
19884TIP3    H181067   1.691   5.788  15.098  0.5397 -0.0389  3.0023
19884TIP3    H281068   1.577   5.851  15.176 -2.0526 -0.5337 -0.2833
19885TIP3   OH281069   5.081   6.261   1.816  1.1379 -0.1675  0.3816
19885TIP3    H181070   5.168   6.221   1.820  1.0466 -0.2897  1.1696
19885TIP3    H281071   5.038   6.232   1.896 -0.1564 -1.3152 -0.7171
19886TIP3   OH281072   4.840   2.274   3.160  0.1524  1.0436  0.1465
19886TIP3    H181073   4.834   2.182   3.186  0.5345  0.9248 -0.1742
19886TIP3    H281074   4.845   2.322   3.243  0.0678  0.7658  0.3119
19887TIP3   OH281075   6.746   4.557   2.054  0.0614  0.7336 -0.2658
19887TIP3    H181076   6.809   4.496   2.017 -0.5361 -0.4196  0.5711
19887TIP3    H281077   6.675   4.560   1.990  0.0967  0.5502 -0.3140
19888TIP3   OH281078   1.605   5.802  12.180 -0.2330 -0.3217 -0.1928
19888TIP3    H181079   1.632   5.893  12.183 -1.9828  0.1667  2.4538
19888TIP3    H281080   1.561   5.792  12.096 -1.2086  1.6302  0.0657
19889TIP3   OH281081   6.061   3.153  11.142  0.2186 -0.6114  0.3871
19889TIP3    H181082   6.148   3.191  11.150  0.6937 -1.4892 -0.5526
19889TIP3    H281083   6.009   3.221  11.098  0.3184  0.0603  1.2912
19890TIP3   OH281084   1.001   1.538  16.228 -0.3851 -0.0309 -0.8380
19890TIP3    H181085   1.024   1.613  16.172 -1.0902 -0.8636 -2.2544
19890TIP3    H281086   1.085   1.500  16.253  0.0010  1.5103  0.2941
19891TIP3   OH281087   0.138   1.123   5.707  0.1843 -0.2715 -0.0475
19891TIP3    H181088   0.099   1.151   5.790 -0.9193 -0.0507 -0.6218
19891TIP3    H281089   0.063   1.108   5.650  0.9723  0.7607 -1.3772
19892TIP3   OH281090   3.816   3.194   5.160 -0.1427  0.1000  0.2062
19892TIP3    H181091   3.891   3.146   5.194  0.8580  0.7520 -1.0501
19892TIP3    H281092   3.772   3.132   5.102  0.7944  0.4708 -0.9232
19893TIP3   OH281093   6.666   4.731  14.050 -0.1852 -0.3055 -0.3689
19893TIP3    H181094   6.584   4.698  14.012  0.2016  0.5822 -2.0613
19893TIP3    H281095   6.726   4.657  14.045 -1.1742 -1.3054  1.9088
19894TIP3   OH281096   1.452   3.080  16.113 -0.3499  0.2333  0.5853
19894TIP3    H181097   1.387   3.147  16.087 -0.5715 -0.0449  0.4140
19894TIP3    H281098   1.514   3.127  16.168 -0.4154  0.6222  0.3369
19895TIP3   OH281099   4.637   6.300  13.448 -0.6363  0.0125  0.2723
19895TIP3    H181100   4.577   6.248  13.502  1.0402 -1.1098  1.1435
19895TIP3    H281101   4.657   6.244  13.373 -0.9152  0.4900 -0.1541
19896TIP3   OH281102   4.006   0.497   0.140  0.4725  0.6741  0.2735
19896TIP3    H181103   4.070   0.466   0.076 -0.1942 -2.0232  0.8454
19896TIP3    H281104   3.922   0.493   0.095  0.2240  0.5187  0.7410
19897TIP3   OH281105   4.503   4.720  16.234 -0.5070 -0.2604 -0.3676
19897TIP3    H181106   4.502   4.628  16.210 -0.5713 -0.0655 -1.1412
19897TIP3    H281107   4.511   4.766  16.150  1.0712  0.3932  0.1269
19898TIP3   OH281108   3.874   5.972  14.179  0.0732 -0.3323  0.0547
19898TIP3    H181109   3.900   5.882  14.160  0.5027 -0.0758 -0.5848
19898TIP3    H281110   3.822   5.999  14.103  0.0089 -0.0168  0.2072
19899TIP3   OH281111   4.066   6.144   2.495 -0.2048  0.1972  0.6382
19899TIP3    H181112   4.009   6.102   2.559  0.5904  2.2484  2.7716
19899TIP3    H281113   4.039   6.235   2.494 -0.4090  0.1746 -2.2395
19900TIP3   OH281114   3.075   4.903  11.815 -0.5810 -0.2208 -0.1092
19900TIP3    H181115   3.038   4.827  11.769  1.3632 -0.9448 -0.5198
19900TIP3    H281116   3.131   4.946  11.751 -1.9256  1.7921  0.0198
19901TIP3   OH281117   2.113   4.390  15.209  0.1357 -0.1429  0.0983
19901TIP3    H181118   2.201   4.411  15.241 -1.0640  1.1061  2.7724
19901TIP3    H281119   2.102   4.297  15.229  1.3335 -0.6485 -1.5113
19902TIP3   OH281120   3.156   1.496  15.093 -0.0019 -0.0889 -0.2241
19902TIP3    H181121   3.198   1.411  15.094  0.7779  0.3004  0.1048
19902TIP3    H281122   3.091   1.492  15.164  1.3302  0.2483  1.0283
19903TIP3   OH281123   4.715   5.756   0.353 -0.1737 -1.0203 -0.2096
19903TIP3    H181124   4.750   5.837   0.390  0.1315 -1.4868  0.5432
19903TIP3    H281125   4.644   5.784   0.296 -0.5613 -0.2626  0.6302
19904TIP3   OH281126   4.142   1.244  16.687  0.0957 -0.0067  0.4016
19904TIP3    H181127   4.236   1.250  16.667 -0.3127  1.9466 -1.1040
19904TIP3    H281128   4.099   1.257  16.602 -1.5636 -0.6476  1.1232
19905TIP3   OH281129   6.106   4.490  16.899  0.4007 -0.1138  0.8025
19905TIP3    H181130   6.154   4.440  16.965 -1.0742 -0.4299  1.6479
19905TIP3    H281131   6.014   4.472  16.917 -0.1059  1.6930  0.1658
19906TIP3   OH281132   1.261   6.694  15.169  0.3426 -0.2843  0.2389
19906TIP3    H181133   1.168   6.697  15.192  0.6745  3.7461  1.3906
19906TIP3    H281134   1.262   6.702  15.074 -0.4647 -0.3722  0.2109
19907TIP3   OH281135   0.362   1.343   0.100 -0.8774 -0.1705 -0.1673
19907TIP3    H181136   0.448   1.311   0.125 -1.7208 -0.4332  2.5876
19907TIP3    H281137   0.377   1.432   0.068  0.4252 -0.3186  0.0138
19908TIP3   OH281138   4.088   4.478  15.972  0.1949 -0.0528  0.2947
19908TIP3    H181139   3.996   4.490  15.995 -0.2954 -2.3320 -0.3623
19908TIP3    H281140   4.124   4.425  16.043  0.8350  0.2197  0.1844
19909TIP3   OH281141   6.572   4.024  16.318  0.2601 -0.4570 -0.4742
19909TIP3    H181142   6.481   4.001  16.335  0.8876 -2.2720  0.4606
19909TIP3    H281143   6.589   4.098  16.376 -0.5387 -0.2803 -0.4573
19910TIP3   OH281144   2.241   1.063  16.845 -0.0289 -0.1740 -0.0314
19910TIP3    H181145   2.211   1.139  16.795 -0.6837 -0.0113  0.5931
19910TIP3    H281146   2.207   0.988  16.797 -0.8419 -0.0136  0.2793
19911TIP3   OH281147   2.162   4.661   1.621 -0.5228 -0.0797  1.2219
19911TIP3    H181148   2.177   4.740   1.569 -0.9830 -0.2891  0.7756
19911TIP3    H281149   2.122   4.599   1.560  0.8892 -1.0575  1.2610
19912TIP3   OH281150   3.285   3.442  16.848 -0.2561 -0.0376 -0.3565
19912TIP3    H181151   3.273   3.522  16.899 -0.4984 -0.7738  0.7485
19912TIP3    H281152   3.267   3.371  16.909 -1.3566 -0.9249 -1.6737
19913TIP3   OH281153   3.664   4.793  15.178 -0.0290 -0.0847 -0.1892
19913TIP3    H181154   3.642   4.829  15.093 -0.9884 -0.7900 -0.2415
19913TIP3    H281155   3.671   4.699  15.164 -1.3483 -0.3286  0.7550
19914TIP3   OH281156   4.476   5.416  14.774 -0.4491  0.3581 -0.5292
19914TIP3    H181157   4.496   5.339  14.722 -0.0824  0.4467 -0.5169
19914TIP3    H281158   4.393   5.394  14.818 -0.0555 -0.2511 -0.0813
19915TIP3   OH281159   2.465   4.817   0.631 -0.0840 -1.0197  0.0899
19915TIP3    H181160   2.531   4.847   0.568  0.7955 -0.2316  1.3805
19915TIP3    H281161   2.412   4.895   0.650  1.6112 -0.4602  2.7139
19916TIP3   OH281162   2.890   2.573   2.311  0.3462 -0.4589  0.2745
19916TIP3    H181163   2.801   2.540   2.324  0.4662 -1.2156 -0.7344
19916TIP3    H281164   2.936   2.501   2.268  2.0180 -0.8119  2.6053
19917TIP3   OH281165   4.341   2.220   3.445  0.1694 -0.0088 -0.3808
19917TIP3    H181166   4.315   2.260   3.528  1.4103  1.1288 -0.5287
19917TIP3    H281167   4.380   2.292   3.395  1.8529 -1.2547 -0.9012
19918TIP3   OH281168   2.864   1.593  16.868  0.3857 -0.3674  0.0079
19918TIP3    H181169   2.867   1.620  16.960  0.9434 -1.1581  0.2227
19918TIP3    H281170   2.802   1.654  16.827  0.4660  0.2600  0.8132
19919TIP3   OH281171   0.089   4.820   3.956  0.0140 -0.6311  0.3714
19919TIP3    H181172   0.183   4.810   3.940 -0.2311 -1.4605 -0.6367
19919TIP3    H281173   0.069   4.910   3.928  0.6065 -0.2431  1.1614
19920TIP3   OH281174   4.222   6.159   2.968  0.1141 -0.2962 -0.5265
19920TIP3    H181175   4.305   6.165   3.015 -1.3504 -0.3478  2.1828
19920TIP3    H281176   4.214   6.067   2.945  1.0702 -0.1855 -1.3337
19921TIP3   OH281177   4.507   5.622   4.199 -0.6337  0.8701  0.4021
19921TIP3    H181178   4.432   5.568   4.225 -1.0650  0.9893 -0.5955
19921TIP3    H281179   4.571   5.609   4.270  0.2720 -2.9515 -0.9827
19922TIP3   OH281180   1.016   5.302   0.748  0.6370 -0.0371  0.0926
19922TIP3    H181181   1.096   5.306   0.800  0.5865  0.0619  0.1634
19922TIP3    H281182   1.043   5.335   0.662  1.0592 -1.5718 -0.3795
19923TIP3   OH281183   6.123   4.615   2.401 -0.0466 -0.5005  0.2202
19923TIP3    H181184   6.057   4.552   2.372  0.3242 -0.5373 -0.5555
19923TIP3    H281185   6.078   4.699   2.403 -0.2917 -0.6361  0.3445
19924TIP3   OH281186   3.130   0.650  15.250 -0.0202  0.7985 -0.5901
19924TIP3    H181187   3.118   0.713  15.321  1.0496 -0.3496  0.6544
19924TIP3    H281188   3.112   0.565  15.291  1.6952  0.0266 -1.3968
19925TIP3   OH281189   1.808   6.746  15.545 -0.4719 -0.0056 -0.1569
19925TIP3    H181190   1.730   6.757  15.490 -1.2265  0.1995  0.9370
19925TIP3    H281191   1.866   6.817  15.518 -0.5296 -0.3402 -1.1928
19926TIP3   OH281192   0.473   1.877   1.866 -0.3033 -0.1971 -0.4893
19926TIP3    H181193   0.449   1.850   1.777 -0.4686 -2.1951  0.1434
19926TIP3    H281194   0.565   1.851   1.874 -0.6213 -1.1303  0.3142
19927TIP3   OH281195   5.544   3.504  12.001  0.6535  0.1632  0.4732
19927TIP3    H181196   5.476   3.532  11.941  0.6746 -0.3899  0.1915
19927TIP3    H281197   5.505   3.513  12.088 -0.4312 -1.9294  0.2257
19928TIP3   OH281198   4.159   3.870  13.979 -0.4223 -0.3443  0.5705
19928TIP3    H181199   4.172   3.962  14.000  1.4140 -0.3504 -0.4164
19928TIP3    H281200   4.064   3.860  13.972 -0.6531  1.3893  1.0357
19929TIP3   OH281201   2.483   5.072  11.683  0.7966  0.2133 -0.2692
19929TIP3    H181202   2.496   5.068  11.778  0.4632 -2.0205 -0.2719
19929TIP3    H281203   2.390   5.053  11.671  0.9275  0.0392 -1.0478
19930TIP3   OH281204   0.821   4.462   4.304 -0.5588 -0.2129 -0.1139
19930TIP3    H181205   0.905   4.508   4.309  0.2346 -1.7569  1.7195
19930TIP3    H281206   0.838   4.385   4.250 -0.4163 -1.1937  1.2751
19931TIP3   OH281207   6.243   6.154  16.596 -0.2822  0.8965  0.1477
19931TIP3    H181208   6.218   6.176  16.506  0.3966  0.4180 -0.1713
19931TIP3    H281209   6.316   6.093  16.585 -0.3705  0.6378  1.0280
19932TIP3   OH281210   0.744   0.962  14.960 -0.2168  0.3047 -0.0965
19932TIP3    H181211   0.822   1.014  14.983 -0.8070  0.4985  1.5355
19932TIP3    H281212   0.701   1.014  14.892 -0.3879  1.6037  0.9726
19933TIP3   OH281213   5.470   4.213   0.552  0.2616  0.0735 -0.1946
19933TIP3    H181214   5.445   4.206   0.460  1.1949 -0.3646 -0.4244
19933TIP3    H281215   5.566   4.215   0.550  0.2692  0.6712  0.7248
19934TIP3   OH281216   2.198   2.882  16.244 -0.0388  0.3214 -0.6441
19934TIP3    H181217   2.105   2.902  16.234 -0.2449 -0.8530 -1.1183
19934TIP3    H281218   2.212   2.804  16.191  0.5190 -1.3931  1.9309
19935TIP3   OH281219   5.477   1.329   4.835 -0.7387 -0.1440 -0.1038
19935TIP3    H181220   5.519   1.269   4.773 -1.6339 -0.9881  0.0920
19935TIP3    H281221   5.411   1.375   4.782  0.0338  0.7572 -0.2811
19936TIP3   OH281222   0.122   4.284  13.318 -0.3426 -0.3868  0.1271
19936TIP3    H181223   0.116   4.367  13.272  2.0468 -0.4523 -0.3726
19936TIP3    H281224   0.105   4.305  13.410 -2.5563  0.1715 -0.4019
19937TIP3   OH281225   4.681   6.331   1.154 -0.0413 -0.1822  0.2040
19937TIP3    H181226   4.591   6.300   1.157  0.4508 -1.7671 -0.4704
19937TIP3    H281227   4.683   6.390   1.079 -0.7882  0.7694  0.9314
19938TIP3   OH281228   0.226   1.242   1.114  0.2464 -1.1466 -0.4259
19938TIP3    H181229   0.213   1.297   1.192  1.5426 -1.6417  0.1622
19938TIP3    H281230   0.156   1.177   1.119 -0.1183 -0.7342 -0.0609
19939TIP3   OH281231   1.121   6.014   2.682 -0.3671 -0.2295  0.1795
19939TIP3    H181232   1.039   6.054   2.654  0.5847  1.8709  0.2917
19939TIP3    H281233   1.130   6.039   2.774  1.6811  1.8063 -0.5368
19940TIP3   OH281234   0.866   6.336   1.328 -0.6139 -0.0141 -0.2991
19940TIP3    H181235   0.843   6.412   1.274 -0.9824 -1.5951 -2.4174
19940TIP3    H281236   0.953   6.310   1.297 -0.8613 -0.9866 -0.1800
19941TIP3   OH281237   2.650   6.062   5.414  0.2048 -0.1267  0.1500
19941TIP3    H181238   2.596   6.006   5.358 -1.4019  1.1703  0.3971
19941TIP3    H281239   2.698   6.000   5.469 -0.8542 -1.2970 -0.2207
19942TIP3   OH281240   5.896   6.150   4.673 -0.3458  0.3867  0.2912
19942TIP3    H181241   5.931   6.184   4.590  0.0477  0.7677  0.6157
19942TIP3    H281242   5.823   6.208   4.693  0.8327  1.5615  1.2681
19943TIP3   OH281243   2.004   0.891  15.757  0.0828  0.0722  0.6244
19943TIP3    H181244   2.031   0.887  15.665  1.1225 -2.4236  0.9938
19943TIP3    H281245   2.074   0.844  15.804 -1.5027 -0.5355  2.4210
19944TIP3   OH281246   1.651   5.804   2.643 -0.1842 -0.4835  0.1820
19944TIP3    H181247   1.607   5.803   2.728 -0.6902  1.8368 -0.0291
19944TIP3    H281248   1.704   5.884   2.644  3.4061 -2.7474  0.0859
19945TIP3   OH281249   1.958   2.184   1.118  0.1205 -0.1791  0.2461
19945TIP3    H181250   1.926   2.122   1.052  0.6357  0.3010 -0.4539
19945TIP3    H281251   1.888   2.187   1.183 -1.8935  1.9187 -1.9720
19946TIP3   OH281252   5.101   6.671  14.641  0.0077  0.4195 -0.1195
19946TIP3    H181253   5.026   6.620  14.610  0.1994  0.4451 -0.6181
19946TIP3    H281254   5.061   6.738  14.698 -0.1363 -1.0315  1.5415
19947TIP3   OH281255   4.680   4.038  16.183  0.2642 -0.2246 -0.4632
19947TIP3    H181256   4.646   4.077  16.103  0.9774 -1.3031 -1.2959
19947TIP3    H281257   4.681   3.944  16.166  0.0814 -0.5003  0.9429
19948TIP3   OH281258   0.720   1.692  12.703 -0.4580 -0.2099 -0.2999
19948TIP3    H181259   0.799   1.686  12.650  0.1966  1.2383  0.4807
19948TIP3    H281260   0.674   1.609  12.688  2.0944 -1.8477  0.6310
19949TIP3   OH281261   1.593   1.648  15.590  0.0137 -0.5295 -0.3244
19949TIP3    H181262   1.658   1.633  15.522 -0.0886  0.3691 -0.6280
19949TIP3    H281263   1.526   1.581  15.575  0.4007 -0.8608 -0.5860
19950TIP3   OH281264   4.789   6.533   1.539 -0.0578  0.0196  0.2860
19950TIP3    H181265   4.841   6.467   1.494 -0.0584 -0.0162  0.3379
19950TIP3    H281266   4.849   6.607   1.551 -0.7678  1.0345 -2.0841
19951TIP3   OH281267   4.595   3.365  16.851  0.0794 -0.0286 -0.3325
19951TIP3    H181268   4.565   3.274  16.841  0.1597 -0.0262 -0.5864
19951TIP3    H281269   4.515   3.414  16.870  0.0201 -0.1349 -0.3046
19952TIP3   OH281270   1.671   6.159  15.510  0.2657 -0.3116  0.7100
19952TIP3    H181271   1.723   6.239  15.512  0.3260 -0.3773  2.4977
19952TIP3    H281272   1.581   6.189  15.503  0.3771 -0.1440 -0.1333
19953TIP3   OH281273   1.752   4.812   3.530 -0.5186  0.0810  0.1933
19953TIP3    H181274   1.801   4.775   3.604 -0.9305 -1.3268 -0.2237
19953TIP3    H281275   1.819   4.833   3.465 -0.3334 -0.4761  0.2019
19954TIP3   OH281276   0.949   5.825   2.878 -0.2798  0.0915 -0.3619
19954TIP3    H181277   1.014   5.819   2.807 -1.1541  1.2925 -1.3024
19954TIP3    H281278   0.865   5.828   2.832 -0.8557  0.8592  0.7338
19955TIP3   OH281279   4.229   0.565  16.796 -0.3347  0.0648  0.1693
19955TIP3    H181280   4.268   0.565  16.709 -0.0419 -0.8486  0.2937
19955TIP3    H281281   4.191   0.478  16.805 -0.6061  0.2536  0.8405
19956TIP3   OH281282   3.723   6.079  13.980 -0.6607  0.3576 -0.1479
19956TIP3    H181283   3.786   6.149  13.964  0.1701 -0.7300 -1.7131
19956TIP3    H281284   3.643   6.124  14.007 -0.0016  1.8767 -0.7189
19957TIP3   OH281285   2.864   6.094  12.727  0.0929  0.3366  0.6807
19957TIP3    H181286   2.816   6.056  12.653  0.4524 -2.5393  1.8597
19957TIP3    H281287   2.802   6.089  12.800  1.0560 -0.4013  1.4570
19958TIP3   OH281288   5.927   3.546  15.387 -0.8185  0.0550  0.5518
19958TIP3    H181289   5.930   3.460  15.428 -0.7141 -1.5940 -2.7560
19958TIP3    H281290   5.992   3.598  15.435 -0.1436 -2.0210  1.9314
19959TIP3   OH281291   2.486   5.656   1.135 -0.7409 -0.4471 -0.4417
19959TIP3    H181292   2.484   5.638   1.229 -0.5083 -0.1971 -0.3861
19959TIP3    H281293   2.439   5.738   1.125 -1.2262 -0.7451 -0.6119
19960TIP3   OH281294   1.521   4.472   3.204 -0.4708 -0.0540 -0.0264
19960TIP3    H181295   1.508   4.429   3.289 -1.1766  0.0156 -0.0984
19960TIP3    H281296   1.440   4.521   3.189 -1.5147 -2.3016 -2.0449
19961TIP3   OH281297   2.585   0.470  15.092 -0.3276 -0.6851  0.1113
19961TIP3    H181298   2.593   0.416  15.171  0.7818 -0.4956  0.1355
19961TIP3    H281299   2.491   0.472  15.074 -0.4418 -2.0747  0.4983
19962TIP3   OH281300   0.874   1.630  12.933 -0.4004 -0.2762 -0.4321
19962TIP3    H181301   0.839   1.654  12.847  0.1153  2.1239 -0.0120
19962TIP3    H281302   0.964   1.601  12.915 -0.2374  0.3828 -0.7066
19963TIP3   OH281303   0.822   4.035   3.554 -0.2491  0.1827  0.1546
19963TIP3    H181304   0.782   3.980   3.621  3.0308 -1.6326  0.7552
19963TIP3    H281305   0.857   3.973   3.490  0.2400  1.7359 -1.1045
19964TIP3   OH281306   6.724   0.841  13.140  0.3980  0.3491  0.1246
19964TIP3    H181307   6.750   0.809  13.227  0.5449  1.6907  0.5766
19964TIP3    H281308   6.745   0.769  13.081  1.5339 -0.0630  1.0175
19965TIP3   OH281309   1.578   6.668  11.976  0.1092  0.0231  0.0533
19965TIP3    H181310   1.611   6.749  12.015  1.6255 -0.6069  0.1064
19965TIP3    H281311   1.597   6.677  11.883  0.1651 -0.2264  0.0407
19966TIP3   OH281312   5.868   6.220   2.412  0.4762 -0.2336 -0.5509
19966TIP3    H181313   5.778   6.205   2.440  0.6452  0.0257  0.1301
19966TIP3    H281314   5.864   6.301   2.361  0.6499  0.8625  1.1332
19967TIP3   OH281315   2.577   2.206  13.171  0.1578  0.0743  0.0315
19967TIP3    H181316   2.537   2.234  13.089 -0.8846 -1.2281  0.0733
19967TIP3    H281317   2.651   2.265  13.183 -0.1900  0.8289 -1.4057
19968TIP3   OH281318   2.915   5.068  13.668 -0.1095  0.3647 -0.2852
19968TIP3    H181319   3.001   5.110  13.671  0.3659 -0.5207 -1.2519
19968TIP3    H281320   2.865   5.113  13.736  1.2062  0.6832  0.5050
19969TIP3   OH281321   6.190   2.841  12.241  0.1015 -0.6171 -0.1927
19969TIP3    H181322   6.251   2.910  12.217 -2.3245  2.2058  1.4174
19969TIP3    H281323   6.173   2.854  12.334 -1.3442 -2.6156 -0.1256
19970TIP3   OH281324   4.604   5.612  13.682  0.3614  0.3362 -0.1573
19970TIP3    H181325   4.638   5.581  13.598  0.7282 -1.0381  0.4881
19970TIP3    H281326   4.563   5.696  13.661 -0.8326 -0.6534 -1.9988
19971TIP3   OH281327   2.263   6.700   5.644  0.0806 -0.0842 -0.3587
19971TIP3    H181328   2.223   6.636   5.703  2.5969 -1.0326  0.4002
19971TIP3    H281329   2.236   6.673   5.556 -0.0044 -1.3771  0.0583
19972TIP3   OH281330   0.785   0.104   3.063 -0.4066  0.1610  0.0157
19972TIP3    H181331   0.830   0.188   3.059  0.6210 -0.4326 -0.8433
19972TIP3    H281332   0.817   0.055   2.988  1.2369 -2.1042  2.1387
19973TIP3   OH281333   0.115   2.303   5.761 -0.0875 -0.8933 -0.3932
19973TIP3    H181334   0.188   2.262   5.713 -0.7599 -1.1010 -1.2662
19973TIP3    H281335   0.038   2.282   5.708 -0.5823  0.6282 -0.2949
19974TIP3   OH281336   1.872   4.377   0.147 -0.6493  0.5062 -0.0085
19974TIP3    H181337   1.961   4.379   0.112 -0.5637 -3.7898 -0.2675
19974TIP3    H281338   1.816   4.387   0.070 -0.4134  1.0413 -0.1146
19975TIP3   OH281339   0.059   3.771  11.472  0.2294 -0.5636 -0.4343
19975TIP3    H181340  -0.012   3.758  11.409 -0.1809 -0.5257  0.0136
19975TIP3    H281341   0.089   3.860  11.456  0.6933 -0.8473 -1.1448
19976TIP3   OH281342   4.098   3.751   3.951  0.0048  0.1445  0.2643
19976TIP3    H181343   4.021   3.734   4.006 -0.7075  0.2444 -0.7016
19976TIP3    H281344   4.159   3.795   4.010  0.0192 -1.4929  1.5252
19977TIP3   OH281345   1.965   1.645   3.025  0.1882  0.2287  0.0213
19977TIP3    H181346   2.022   1.572   3.050 -0.5831  0.1668  1.6655
19977TIP3    H281347   1.882   1.604   3.002  0.1242  0.4948 -0.2240
19978TIP3   OH281348   2.827   2.341  13.227 -0.0142 -0.7033 -0.0102
19978TIP3    H181349   2.860   2.393  13.300  0.4741 -2.9371  1.4163
19978TIP3    H281350   2.901   2.288  13.200  0.0001  0.5550 -2.6041
19979TIP3   OH281351   3.242   2.424  11.609  0.2918  0.0255 -0.2290
19979TIP3    H181352   3.332   2.453  11.593 -0.0461  0.1577 -2.0310
19979TIP3    H281353   3.251   2.349  11.669  1.4041  1.6177  1.6489
19980TIP3   OH281354   0.145   3.591  14.920  0.2694  0.3308 -0.5798
19980TIP3    H181355   0.091   3.611  14.844  0.1824 -0.6926 -0.7988
19980TIP3    H281356   0.115   3.650  14.988 -0.7369  0.1597 -0.8744
19981TIP3   OH281357   5.551   5.137   1.759 -0.0992  0.0879  0.1503
19981TIP3    H181358   5.506   5.122   1.675  0.1159 -0.2812  0.0960
19981TIP3    H281359   5.640   5.104   1.744  0.4381  1.5822 -0.0026
19982TIP3   OH281360   2.565   0.512   2.473  0.3148 -1.0183  0.3537
19982TIP3    H181361   2.632   0.578   2.456 -0.7837  0.8713  3.2049
19982TIP3    H281362   2.510   0.513   2.395 -2.1959  4.5386  2.0181
19983TIP3   OH281363   4.152   0.202  12.058 -0.0314 -0.0442  0.1896
19983TIP3    H181364   4.174   0.289  12.026 -0.5812 -0.8767 -2.5702
19983TIP3    H281365   4.236   0.164  12.085  0.4235  0.7197 -0.1435
19984TIP3   OH281366   5.728   5.179  10.952 -0.2646  0.1643  0.5249
19984TIP3    H181367   5.793   5.147  10.889 -1.0239  0.2206 -0.3113
19984TIP3    H281368   5.645   5.177  10.903 -1.3102 -2.1470  2.2838
19985TIP3   OH281369   3.544   1.417  11.801  0.5359 -0.4461  0.1967
19985TIP3    H181370   3.579   1.482  11.740 -1.5468  0.7144  0.1888
19985TIP3    H281371   3.531   1.466  11.882  0.5694 -1.2832  0.7087
19986LIG      O81372   5.019   1.789  16.383 -0.3783  0.1852  0.1865
19986LIG     C181373   5.104   1.690  16.439 -0.4996 -0.3407 -0.5383
19986LIG     C281374   5.188   1.629  16.330  0.0253  0.4355  0.1083
19986LIG     C381375   5.177   1.757  16.559 -0.0540  0.3446 -0.0481
19986LIG     H181376   5.040   1.610  16.482 -1.7536  0.4973 -0.8280
19986LIG     H281377   5.253   1.709  16.288  0.2579 -0.0271 -0.4243
19986LIG     H381378   5.125   1.591  16.246  0.6409 -0.2975 -0.0250
19986LIG     H481379   5.244   1.544  16.375  0.5675  0.5735 -0.3032
19986LIG     H581380   5.259   1.819  16.517  0.8282  0.0713  1.2358
19986LIG     H681381   5.222   1.680  16.626 -0.1707 -0.4290 -0.8375
19986LIG     H781382   5.102   1.803  16.626  0.6713 -0.1630  1.1423
19986LIG     H881383   4.957   1.736  16.332  2.2972 -1.1651 -1.7619
   6.78697   6.78697  17.23950
